 Gaussian 16, Revision A.03,
 Gaussian 16:  ES64L-G16RevA.03 25-Dec-2016

 -----------------------------
 # opt freq b3lyp/6-31g(2df,p)
 -----------------------------

 -------------------
 Title Card Required
 -------------------
 Symbolic Z-matrix:
 Charge =  0 Multiplicity = 1

 SCF Done:  E(RB3LYP) =  -353.845188824     A.U. after   12 cycles
 SCF Done:  E(RB3LYP) =  -353.847528724     A.U. after   10 cycles
 SCF Done:  E(RB3LYP) =  -353.848097852     A.U. after    9 cycles
 SCF Done:  E(RB3LYP) =  -353.848209680     A.U. after    9 cycles
 SCF Done:  E(RB3LYP) =  -353.848220156     A.U. after    8 cycles
 SCF Done:  E(RB3LYP) =  -353.848221664     A.U. after    7 cycles
 SCF Done:  E(RB3LYP) =  -353.848221838     A.U. after    6 cycles
 SCF Done:  E(RB3LYP) =  -353.848221862     A.U. after    5 cycles
 Optimization completed.
    -- Stationary point found.
 Normal termination of Gaussian 16 at Sun May 28 18:40:56 2023.

 ----------------------------------------------------------------------
 #N Geom=AllCheck Guess=TCheck SCRF=Check GenChk RB3LYP/6-31G(2df,p) Fr
 eq
 ----------------------------------------------------------------------

 Structure from the checkpoint file:  "CCCC1CCCCC1.chk"
 -------------------
 Title Card Required
 -------------------
 Charge =  0 Multiplicity = 1

                         Standard orientation:
 ---------------------------------------------------------------------
 Center     Atomic      Atomic             Coordinates (Angstroms)
 Number     Number       Type             X           Y           Z
 ---------------------------------------------------------------------
      1          6           0        3.815010   -0.000120   -0.337673
      2          6           0        2.297176    0.000070   -0.545849
      3          6           0        1.526323    0.000146    0.782153
      4          6           0       -0.012612    0.000091    0.692914
      5          6           0       -0.585798    1.262792    0.023061
      6          6           0       -2.121828    1.267584    0.040323
      7          6           0       -2.693881   -0.000101   -0.609921
      8          6           0       -2.121692   -1.267691    0.040383
      9          6           0       -0.585664   -1.262745    0.023181
     10          1           0        4.350846   -0.000664   -1.292221
     11          1           0        4.137306   -0.883219    0.225605
     12          1           0        4.137660    0.883361    0.224797
     13          1           0        2.016381   -0.876649   -1.141729
     14          1           0        2.016604    0.876935   -1.141625
     15          1           0        1.839442    0.876838    1.366655
     16          1           0        1.839473   -0.876427    1.366813
     17          1           0       -0.377926    0.000108    1.732028
     18          1           0       -0.242446    1.315774   -1.018953
     19          1           0       -0.198474    2.159289    0.523173
     20          1           0       -2.503242    2.160950   -0.467586
     21          1           0       -2.471048    1.328797    1.080671
     22          1           0       -2.444229   -0.000106   -1.680401
     23          1           0       -3.788092   -0.000163   -0.546486
     24          1           0       -2.502984   -2.161119   -0.467516
     25          1           0       -2.470965   -1.328915    1.080710
     26          1           0       -0.242254   -1.315824   -1.018808
     27          1           0       -0.198267   -2.159127    0.523439
 ---------------------------------------------------------------------

 SCF Done:  E(RB3LYP) =  -353.848221862     A.U. after    1 cycles

 The electronic state is 1-A.
 Alpha  occ. eigenvalues --  -10.17601 -10.17318 -10.17172 -10.17159 -10.17143
 Alpha  occ. eigenvalues --  -10.17036 -10.16964 -10.16963 -10.16832  -0.82757
 Alpha  occ. eigenvalues --   -0.78020  -0.73386  -0.73181  -0.66379  -0.60097
 Alpha  occ. eigenvalues --   -0.60022  -0.56720  -0.53434  -0.46427  -0.45343
 Alpha  occ. eigenvalues --   -0.43500  -0.43240  -0.42964  -0.40575  -0.38884
 Alpha  occ. eigenvalues --   -0.37093  -0.36878  -0.35028  -0.34570  -0.33882
 Alpha  occ. eigenvalues --   -0.33671  -0.31824  -0.31470  -0.29858  -0.28664
 Alpha  occ. eigenvalues --   -0.28616
 Alpha virt. eigenvalues --    0.08585   0.10042   0.10475   0.11933   0.12881
 Alpha virt. eigenvalues --    0.14893   0.15104   0.16080   0.16623   0.16873
 Alpha virt. eigenvalues --    0.17230   0.17883   0.18014   0.18745   0.19808

 Mulliken charges:
               1
     1  C   -0.376046
     2  C   -0.161209
     3  C   -0.199589
     4  C    0.042944
     5  C   -0.185530
     6  C   -0.196789
     7  C   -0.175168
     8  C   -0.196791
     9  C   -0.185528
    10  H    0.108039
    11  H    0.111986
    12  H    0.111990
    13  H    0.096933
    14  H    0.096932
    15  H    0.084602
    16  H    0.084602
    17  H    0.060802
    18  H    0.091545
    19  H    0.083430
    20  H    0.086121
    21  H    0.089727
    22  H    0.089637
    23  H    0.086532
    24  H    0.086122
    25  H    0.089728
    26  H    0.091547
    27  H    0.083432
 Sum of Mulliken charges =  -0.00000

 Dipole moment (field-independent basis, Debye):
    X=             -0.0761    Y=              0.0000    Z=             -0.0078  Tot=              0.0765
 Quadrupole moment (field-independent basis, Debye-Ang):
   XX=            -60.7718   YY=            -59.5530   ZZ=            -59.2321
   XY=              0.0001   XZ=             -0.1868   YZ=              0.0000

  Exact polarizability: 112.741   0.000  91.343   0.582   0.000  84.734
 Approx polarizability: 133.503   0.000 131.810  -0.645  -0.000 132.965

                      1                      2                      3
                      A                      A                      A
 Frequencies --     66.1436                92.1335               103.7208
 Red. masses --      1.6326                 2.7503                 2.7721
 Frc consts  --      0.0042                 0.0138                 0.0176
 IR Inten    --      0.0217                 0.0029                 0.0076

                      4                      5                      6
                      A                      A                      A
 Frequencies --    217.3445               229.3249               246.0285
 Red. masses --      2.5629                 1.7722                 1.1206
 Frc consts  --      0.0713                 0.0549                 0.0400
 IR Inten    --      0.1548                 0.0078                 0.0072

                      7                      8                      9
                      A                      A                      A
 Frequencies --    294.4814               311.7639               336.1393
 Red. masses --      3.2208                 2.1093                 1.7671
 Frc consts  --      0.1646                 0.1208                 0.1176
 IR Inten    --      0.0154                 0.0086                 0.0757

                     10                     11                     12
                      A                      A                      A
 Frequencies --    418.4961               447.0376               492.7505
 Red. masses --      2.3848                 2.9843                 1.5782
 Frc consts  --      0.2461                 0.3514                 0.2258
 IR Inten    --      0.2414                 0.0009                 0.5651

                     13                     14                     15
                      A                      A                      A
 Frequencies --    626.2657               739.3458               771.2083
 Red. masses --      2.7897                 1.1210                 2.5115
 Frc consts  --      0.6447                 0.3610                 0.8801
 IR Inten    --      0.0717                 2.0130                 0.0979

                     16                     17                     18
                      A                      A                      A
 Frequencies --    795.6341               844.5304               855.1392
 Red. masses --      1.4590                 2.7524                 1.4575
 Frc consts  --      0.5442                 1.1566                 0.6280
 IR Inten    --      0.0987                 0.4528                 0.5883

                     19                     20                     21
                      A                      A                      A
 Frequencies --    861.8440               903.9353               907.4653
 Red. masses --      1.6138                 1.4953                 1.6636
 Frc consts  --      0.7062                 0.7199                 0.8072
 IR Inten    --      1.0513                 2.1513                 1.8109

                     22                     23                     24
                      A                      A                      A
 Frequencies --    929.3942               978.0347              1028.6482
 Red. masses --      1.5207                 2.6846                 1.6272
 Frc consts  --      0.7739                 1.5130                 1.0144
 IR Inten    --      0.1273                 0.9172                 0.3164

                     25                     26                     27
                      A                      A                      A
 Frequencies --   1033.1277              1039.2170              1064.4248
 Red. masses --      2.2266                 1.8301                 1.6610
 Frc consts  --      1.4003                 1.1645                 1.1088
 IR Inten    --      1.1460                 0.7308                 0.5326

                     28                     29                     30
                      A                      A                      A
 Frequencies --   1078.5617              1092.7908              1121.8893
 Red. masses --      1.1162                 1.7065                 2.6392
 Frc consts  --      0.7650                 1.2007                 1.9571
 IR Inten    --      0.0602                 0.0852                 1.6777

                     31                     32                     33
                      A                      A                      A
 Frequencies --   1131.4406              1173.8445              1216.5516
 Red. masses --      1.4270                 2.4458                 1.6583
 Frc consts  --      1.0763                 1.9856                 1.4461
 IR Inten    --      0.6202                 0.3396                 0.0133

                     34                     35                     36
                      A                      A                      A
 Frequencies --   1262.1774              1277.4593              1290.1912
 Red. masses --      1.3679                 1.2542                 1.2756
 Frc consts  --      1.2840                 1.2059                 1.2511
 IR Inten    --      0.3851                 0.3838                 1.6673

                     37                     38                     39
                      A                      A                      A
 Frequencies --   1291.4248              1315.1339              1325.0385
 Red. masses --      1.2891                 1.4031                 1.1967
 Frc consts  --      1.2667                 1.4298                 1.2379
 IR Inten    --      0.7577                 1.5580                 0.0001

                     40                     41                     42
                      A                      A                      A
 Frequencies --   1339.7882              1346.0156              1369.1427
 Red. masses --      1.2611                 1.1916                 1.3453
 Frc consts  --      1.3337                 1.2720                 1.4858
 IR Inten    --      2.9791                 0.0387                 0.3382

                     43                     44                     45
                      A                      A                      A
 Frequencies --   1378.9922              1381.5010              1391.1490
 Red. masses --      1.4400                 1.4716                 1.4174
 Frc consts  --      1.6134                 1.6548                 1.6161
 IR Inten    --      0.4172                 7.9199                 1.0085

                     46                     47                     48
                      A                      A                      A
 Frequencies --   1392.3481              1407.9103              1417.3709
 Red. masses --      1.5279                 1.3429                 1.3303
 Frc consts  --      1.7452                 1.5684                 1.5746
 IR Inten    --      0.0004                 1.0180                 1.6967

                     49                     50                     51
                      A                      A                      A
 Frequencies --   1480.7575              1483.1052              1484.9012
 Red. masses --      1.0771                 1.0904                 1.0953
 Frc consts  --      1.3915                 1.4131                 1.4229
 IR Inten    --      1.3389                 0.0001                 0.9194

                     52                     53                     54
                      A                      A                      A
 Frequencies --   1487.8411              1490.7651              1494.3564
 Red. masses --      1.0968                 1.0745                 1.0684
 Frc consts  --      1.4305                 1.4069                 1.4057
 IR Inten    --      1.2506                 4.1908                 5.6434

                     55                     56                     57
                      A                      A                      A
 Frequencies --   1499.7936              1505.7721              1511.2571
 Red. masses --      1.0408                 1.0955                 1.0862
 Frc consts  --      1.3794                 1.4635                 1.4616
 IR Inten    --      5.1107                 1.2307                 1.5064

                     58                     59                     60
                      A                      A                      A
 Frequencies --   2971.6602              3000.4565              3005.6828
 Red. masses --      1.0792                 1.0613                 1.0695
 Frc consts  --      5.6149                 5.6295                 5.6926
 IR Inten    --     12.8164                32.7840                21.1103

                     61                     62                     63
                      A                      A                      A
 Frequencies --   3006.9746              3009.5945              3011.5292
 Red. masses --      1.0663                 1.0588                 1.0612
 Frc consts  --      5.6807                 5.6504                 5.6707
 IR Inten    --     28.1413                 4.0315                28.9171

                     64                     65                     66
                      A                      A                      A
 Frequencies --   3014.0802              3026.3799              3027.3154
 Red. masses --      1.0609                 1.0380                 1.1006
 Frc consts  --      5.6783                 5.6013                 5.9427
 IR Inten    --     46.0128                27.5564                 6.1074

                     67                     68                     69
                      A                      A                      A
 Frequencies --   3029.3866              3049.0881              3052.8012
 Red. masses --      1.0576                 1.0975                 1.0989
 Frc consts  --      5.7183                 6.0117                 6.0341
 IR Inten    --     23.5938                98.8406                18.5010

                     70                     71                     72
                      A                      A                      A
 Frequencies --   3056.7835              3057.1346              3063.0171
 Red. masses --      1.1013                 1.0912                 1.1020
 Frc consts  --      6.0630                 6.0089                 6.0917
 IR Inten    --      7.3782                60.8742                18.3300

                     73                     74                     75
                      A                      A                      A
 Frequencies --   3065.2660              3095.0256              3098.5193
 Red. masses --      1.1038                 1.1025                 1.1008
 Frc consts  --      6.1107                 6.2226                 6.2269
 IR Inten    --    119.6874                60.8469                40.1523

 - Thermochemistry -
 -------------------
 Temperature   298.150 Kelvin.  Pressure   1.00000 Atm.
 Atom     1 has atomic number  6 and mass  12.00000

 Molecular mass:   126.14085 amu.
 Principal axes and moments of inertia in atomic units:
                           1         2         3
     Eigenvalues --   534.631342235.263852467.45854
           X            1.00000  -0.00000  -0.00099
           Y            0.00000   1.00000  -0.00000
           Z            0.00099   0.00000   1.00000
 This molecule is an asymmetric top.
 Rotational symmetry number  1.
 Warning -- assumption of classical behavior for rotation
           may cause significant error
 Rotational temperatures (Kelvin)      0.16201     0.03875     0.03510
 Rotational constants (GHZ):           3.37567     0.80740     0.73142
 Zero-point vibrational energy     668195.4 (Joules/Mol)
                                  159.70253 (Kcal/Mol)
 Warning -- explicit consideration of  12 degrees of freedom as
           vibrations may cause significant error
 Vibrational temperatures:     95.17   132.56   149.23   312.71   329.95
          (Kelvin)            353.98   423.69   448.56   483.63   602.12
                              643.19   708.96   901.06  1063.75  1109.60
                             1144.74  1215.09  1230.35  1240.00  1300.56
                             1305.64  1337.19  1407.17  1480.00  1486.44
                             1495.20  1531.47  1551.81  1572.28  1614.15
                             1627.89  1688.90  1750.35  1815.99  1837.98
                             1856.30  1858.07  1892.18  1906.43  1927.66
                             1936.62  1969.89  1984.06  1987.67  2001.55
                             2003.28  2025.67  2039.28  2130.48  2133.86
                             2136.44  2140.67  2144.88  2150.05  2157.87
                             2166.47  2174.36  4275.56  4316.99  4324.51
                             4326.37  4330.14  4332.92  4336.59  4354.29
                             4355.63  4358.61  4386.96  4392.30  4398.03
                             4398.53  4407.00  4410.23  4453.05  4458.08

 Zero-point correction=                           0.254502 (Hartree/Particle)
 Thermal correction to Energy=                    0.264396
 Thermal correction to Enthalpy=                  0.265340
 Thermal correction to Gibbs Free Energy=         0.219542
 Sum of electronic and zero-point Energies=           -353.593720
 Sum of electronic and thermal Energies=              -353.583826
 Sum of electronic and thermal Enthalpies=            -353.582882
 Sum of electronic and thermal Free Energies=         -353.628680

                     E (Thermal)             CV                S
                      KCal/Mol        Cal/Mol-Kelvin    Cal/Mol-Kelvin
 Total                  165.911             38.331             96.390
 Electronic               0.000              0.000              0.000
 Translational            0.889              2.981             40.410
 Rotational               0.889              2.981             29.468
 Vibrational            164.134             32.369             26.512
 Vibration     1          0.598              1.970              4.265
 Vibration     2          0.602              1.955              3.614
 Vibration     3          0.605              1.946              3.383
 Vibration     4          0.646              1.815              1.981
 Vibration     5          0.652              1.796              1.884
 Vibration     6          0.660              1.769              1.759
 Vibration     7          0.689              1.684              1.448
 Vibration     8          0.700              1.651              1.353
 Vibration     9          0.717              1.603              1.230
 Vibration    10          0.781              1.430              0.897
 Vibration    11          0.806              1.367              0.805
 Vibration    12          0.848              1.266              0.676

 Optimization completed.
    -- Stationary point found.
 Normal termination of Gaussian 16 at Sun May 28 19:24:35 2023.
