 Gaussian 16, Revision A.03,
 Gaussian 16:  ES64L-G16RevA.03 25-Dec-2016

 -----------------------------
 # opt freq b3lyp/6-31g(2df,p)
 -----------------------------

 -------------------
 Title Card Required
 -------------------
 Symbolic Z-matrix:
 Charge =  0 Multiplicity = 1

 SCF Done:  E(RB3LYP) =  -834.569731028     A.U. after   12 cycles
 SCF Done:  E(RB3LYP) =  -834.636140962     A.U. after   11 cycles
 SCF Done:  E(RB3LYP) =  -834.638725984     A.U. after   13 cycles
 SCF Done:  E(RB3LYP) =  -834.695724060     A.U. after   11 cycles
 SCF Done:  E(RB3LYP) =  -834.736954061     A.U. after   11 cycles
 SCF Done:  E(RB3LYP) =  -834.751744506     A.U. after   11 cycles
 SCF Done:  E(RB3LYP) =  -834.763860790     A.U. after   11 cycles
 SCF Done:  E(RB3LYP) =  -834.773362793     A.U. after   10 cycles
 SCF Done:  E(RB3LYP) =  -834.779182343     A.U. after   10 cycles
 SCF Done:  E(RB3LYP) =  -834.782539990     A.U. after   10 cycles
 SCF Done:  E(RB3LYP) =  -834.811565625     A.U. after    8 cycles
 SCF Done:  E(RB3LYP) =  -834.811570784     A.U. after    8 cycles
 SCF Done:  E(RB3LYP) =  -834.811575631     A.U. after    8 cycles
 SCF Done:  E(RB3LYP) =  -834.811577917     A.U. after    7 cycles
 SCF Done:  E(RB3LYP) =  -834.811578978     A.U. after    7 cycles
 SCF Done:  E(RB3LYP) =  -834.811580369     A.U. after    7 cycles
 SCF Done:  E(RB3LYP) =  -834.811581034     A.U. after    7 cycles
 SCF Done:  E(RB3LYP) =  -834.811581449     A.U. after    6 cycles
 SCF Done:  E(RB3LYP) =  -834.811581596     A.U. after    6 cycles
 Optimization completed.
    -- Stationary point found.
 Normal termination of Gaussian 16 at Tue May 23 00:31:19 2023.

 ----------------------------------------------------------------------
 #N Geom=AllCheck Guess=TCheck SCRF=Check GenChk RB3LYP/6-31G(2df,p) Fr
 eq
 ----------------------------------------------------------------------

 Structure from the checkpoint file:  "CCCCCC1OCCCqCNCOrCCCC1C.chk"
 -------------------
 Title Card Required
 -------------------
 Charge =  0 Multiplicity = 1

                         Standard orientation:
 ---------------------------------------------------------------------
 Center     Atomic      Atomic             Coordinates (Angstroms)
 Number     Number       Type             X           Y           Z
 ---------------------------------------------------------------------
      1          6           0       -7.095410    1.418895    0.724326
      2          6           0       -5.619951    1.087868    0.964427
      3          6           0       -4.970140    0.339465   -0.204395
      4          6           0       -3.490888    0.011760    0.028151
      5          6           0       -2.857804   -0.740970   -1.147582
      6          6           0       -1.343259   -0.987732   -1.045954
      7          8           0       -0.714325    0.286870   -0.987341
      8          6           0        0.454264    0.514929   -1.758392
      9          6           0        1.304121    1.564939   -1.034028
     10          6           0        2.277898    1.052764    0.066721
     11          6           0        3.660150    0.798476   -0.565479
     12          7           0        4.685739    0.447260    0.412416
     13          6           0        6.040538    0.437022   -0.107093
     14          8           0        6.960964    0.252290    0.940073
     15          6           0        1.780076   -0.194002    0.824505
     16          6           0        0.421158   -0.046701    1.546637
     17          6           0       -0.522676   -1.269321    1.485972
     18          6           0       -0.932701   -1.935074    0.133177
     19          6           0        0.061489   -3.013615   -0.347157
     20          1           0       -7.530640    1.952217    1.575412
     21          1           0       -7.684773    0.508753    0.565464
     22          1           0       -7.220193    2.050018   -0.162783
     23          1           0       -5.523393    0.485797    1.877839
     24          1           0       -5.061952    2.014426    1.153990
     25          1           0       -5.069703    0.940379   -1.119393
     26          1           0       -5.526637   -0.589793   -0.393467
     27          1           0       -3.399046   -0.581141    0.947118
     28          1           0       -2.931914    0.939097    0.197865
     29          1           0       -3.032738   -0.170485   -2.068724
     30          1           0       -3.357206   -1.709858   -1.281919
     31          1           0       -1.045558   -1.484689   -1.981710
     32          1           0        0.167855    0.889823   -2.753958
     33          1           0        1.015101   -0.415688   -1.917774
     34          1           0        0.599758    2.288407   -0.611236
     35          1           0        1.886578    2.117763   -1.781336
     36          1           0        2.412439    1.863957    0.794083
     37          1           0        3.989717    1.720944   -1.060192
     38          1           0        3.557307    0.041374   -1.368099
     39          1           0        4.494417   -0.462583    0.818977
     40          1           0        6.195700    1.390849   -0.638839
     41          1           0        6.247674   -0.378387   -0.820397
     42          1           0        6.713685    0.887361    1.622988
     43          1           0        2.538741   -0.475635    1.562973
     44          1           0        1.743843   -1.024373    0.115550
     45          1           0       -0.110062    0.821943    1.162207
     46          1           0        0.604747    0.156089    2.609421
     47          1           0       -1.440565   -0.972191    2.006054
     48          1           0       -0.094163   -2.074281    2.098784
     49          1           0       -1.843907   -2.495626    0.381662
     50          1           0        0.986005   -2.600320   -0.759000
     51          1           0       -0.393170   -3.624383   -1.135301
     52          1           0        0.337566   -3.686084    0.471950
 ---------------------------------------------------------------------

 SCF Done:  E(RB3LYP) =  -834.811581596     A.U. after    1 cycles

 The electronic state is 1-A.
 Alpha  occ. eigenvalues --  -19.13020 -19.13007 -14.31325 -10.24589 -10.22703
 Alpha  occ. eigenvalues --  -10.22629 -10.20437 -10.18453 -10.18340 -10.17824
 Alpha  occ. eigenvalues --  -10.17423 -10.17414 -10.17364 -10.17308 -10.17213
 Alpha  occ. eigenvalues --  -10.17147 -10.17050 -10.16864 -10.16613  -1.02389
 Alpha  occ. eigenvalues --   -1.02100  -0.89384  -0.81169  -0.80514  -0.79057
 Alpha  occ. eigenvalues --   -0.75427  -0.73878  -0.72104  -0.68782  -0.67585
 Alpha  occ. eigenvalues --   -0.64860  -0.63158  -0.61368  -0.60898  -0.57925
 Alpha  occ. eigenvalues --   -0.57040  -0.54751  -0.54391  -0.52204  -0.49237
 Alpha  occ. eigenvalues --   -0.48386  -0.46855  -0.46551  -0.46067  -0.44683
 Alpha  occ. eigenvalues --   -0.43841  -0.43300  -0.43120  -0.42177  -0.41758
 Alpha  occ. eigenvalues --   -0.40856  -0.40376  -0.39758  -0.39516  -0.38626
 Alpha  occ. eigenvalues --   -0.37976  -0.37795  -0.36914  -0.35942  -0.35662
 Alpha  occ. eigenvalues --   -0.34675  -0.34260  -0.33647  -0.33094  -0.32690
 Alpha  occ. eigenvalues --   -0.32430  -0.31952  -0.31764  -0.30935  -0.30428
 Alpha  occ. eigenvalues --   -0.30065  -0.29408  -0.28548  -0.27183  -0.23900
 Alpha  occ. eigenvalues --   -0.22781
 Alpha virt. eigenvalues --    0.06934   0.08021   0.09140   0.09467   0.09738
 Alpha virt. eigenvalues --    0.10257   0.10823   0.11149   0.12071   0.12232
 Alpha virt. eigenvalues --    0.12526   0.13824   0.13908   0.14502   0.14604

 Mulliken charges:
               1
     1  C   -0.378651
     2  C   -0.165083
     3  C   -0.157391
     4  C   -0.174728
     5  C   -0.213139
     6  C    0.088111
     7  O   -0.254856
     8  C   -0.074556
     9  C   -0.221160
    10  C    0.009599
    11  C   -0.151478
    12  N   -0.315381
    13  C   -0.007414
    14  O   -0.414773
    15  C   -0.193352
    16  C   -0.197476
    17  C   -0.215907
    18  C    0.022754
    19  C   -0.414018
    20  H    0.109409
    21  H    0.111739
    22  H    0.112370
    23  H    0.092104
    24  H    0.094189
    25  H    0.090463
    26  H    0.087262
    27  H    0.094246
    28  H    0.109912
    29  H    0.091473
    30  H    0.088020
    31  H    0.062543
    32  H    0.087007
    33  H    0.092735
    34  H    0.111272
    35  H    0.089599
    36  H    0.078109
    37  H    0.098739
    38  H    0.075186
    39  H    0.220047
    40  H    0.085276
    41  H    0.091081
    42  H    0.276837
    43  H    0.089348
    44  H    0.091192
    45  H    0.119758
    46  H    0.078629
    47  H    0.097044
    48  H    0.087136
    49  H    0.076452
    50  H    0.121296
    51  H    0.107849
    52  H    0.110579
 Sum of Mulliken charges =  -0.00000

 Dipole moment (field-independent basis, Debye):
    X=             -1.3029    Y=             -0.1995    Z=             -0.8175  Tot=              1.5510
 Quadrupole moment (field-independent basis, Debye-Ang):
   XX=           -140.0441   YY=           -118.9797   ZZ=           -119.0395
   XY=              5.0813   XZ=             -2.6305   YZ=              0.4415

  Exact polarizability: 232.048   0.427 170.722   0.345  -1.396 170.530
 Approx polarizability: 264.857   1.549 257.101   0.888  -1.166 260.086

                      1                      2                      3
                      A                      A                      A
 Frequencies --     13.9403                31.0601                38.2453
 Red. masses --      4.6744                 3.8700                 4.0406
 Frc consts  --      0.0005                 0.0022                 0.0035
 IR Inten    --      0.1423                 0.0052                 0.4787

                      4                      5                      6
                      A                      A                      A
 Frequencies --     53.9785                57.5619                71.7479
 Red. masses --      1.5656                 2.2649                 3.1398
 Frc consts  --      0.0027                 0.0044                 0.0095
 IR Inten    --      0.1562                 0.2870                 0.1741

                      7                      8                      9
                      A                      A                      A
 Frequencies --     82.2267                91.6502               103.7148
 Red. masses --      4.0288                 2.6288                 3.0895
 Frc consts  --      0.0160                 0.0130                 0.0196
 IR Inten    --      1.3096                 1.9051                 0.5334

                     10                     11                     12
                      A                      A                      A
 Frequencies --    136.5172               143.6900               152.7330
 Red. masses --      2.6151                 1.9453                 2.3056
 Frc consts  --      0.0287                 0.0237                 0.0317
 IR Inten    --      0.2121                 0.0381                 0.8992

                     13                     14                     15
                      A                      A                      A
 Frequencies --    173.6905               176.4471               197.0428
 Red. masses --      2.0958                 3.3003                 2.8057
 Frc consts  --      0.0373                 0.0605                 0.0642
 IR Inten    --      3.1705                 2.5062                 0.2287

                     16                     17                     18
                      A                      A                      A
 Frequencies --    222.7131               238.2607               246.1687
 Red. masses --      1.8837                 1.7447                 2.4832
 Frc consts  --      0.0550                 0.0584                 0.0887
 IR Inten    --      0.1470                 0.3076                 2.1920

                     19                     20                     21
                      A                      A                      A
 Frequencies --    247.8849               287.5775               299.5954
 Red. masses --      1.3670                 2.6900                 3.1156
 Frc consts  --      0.0495                 0.1311                 0.1648
 IR Inten    --      0.6190                 0.8381                 0.2902

                     22                     23                     24
                      A                      A                      A
 Frequencies --    311.0156               325.2211               328.9887
 Red. masses --      2.4375                 2.3878                 2.3530
 Frc consts  --      0.1389                 0.1488                 0.1501
 IR Inten    --      1.7094                 0.6971                 1.2403

                     25                     26                     27
                      A                      A                      A
 Frequencies --    345.7390               380.7979               393.1184
 Red. masses --      2.7040                 3.0194                 1.4382
 Frc consts  --      0.1904                 0.2580                 0.1310
 IR Inten    --      6.1877                 0.1783                81.7086

                     28                     29                     30
                      A                      A                      A
 Frequencies --    423.6585               431.1846               438.9516
 Red. masses --      2.9987                 1.9067                 2.1252
 Frc consts  --      0.3171                 0.2089                 0.2413
 IR Inten    --      0.4390                42.1939                 6.0554

                     31                     32                     33
                      A                      A                      A
 Frequencies --    485.8501               540.5581               575.8291
 Red. masses --      3.0813                 2.6371                 2.6673
 Frc consts  --      0.4285                 0.4540                 0.5211
 IR Inten    --      2.6856                11.9058                 9.6276

                     34                     35                     36
                      A                      A                      A
 Frequencies --    626.5798               666.3757               723.1747
 Red. masses --      2.8693                 2.8729                 2.1379
 Frc consts  --      0.6637                 0.7516                 0.6587
 IR Inten    --      6.8404                 3.2814                 1.2563

                     37                     38                     39
                      A                      A                      A
 Frequencies --    734.9087               751.6860               766.0230
 Red. masses --      1.0825                 1.4944                 1.6107
 Frc consts  --      0.3445                 0.4975                 0.5568
 IR Inten    --      3.5648                 2.0145                 1.0268

                     40                     41                     42
                      A                      A                      A
 Frequencies --    795.2757               812.0881               832.8213
 Red. masses --      1.7158                 1.3040                 1.5223
 Frc consts  --      0.6394                 0.5067                 0.6221
 IR Inten    --      3.2365                66.1473                 4.8495

                     43                     44                     45
                      A                      A                      A
 Frequencies --    853.8225               868.2769               899.1372
 Red. masses --      2.0945                 1.8620                 1.9675
 Frc consts  --      0.8996                 0.8271                 0.9372
 IR Inten    --      1.6400                 0.5971                 1.1738

                     46                     47                     48
                      A                      A                      A
 Frequencies --    910.2676               918.3577               948.4279
 Red. masses --      1.6288                 1.9330                 1.9306
 Frc consts  --      0.7952                 0.9605                 1.0232
 IR Inten    --      9.8017                 1.8243                 3.7046

                     49                     50                     51
                      A                      A                      A
 Frequencies --    962.1738               989.1019               993.6831
 Red. masses --      2.2894                 1.7289                 1.8625
 Frc consts  --      1.2487                 0.9965                 1.0835
 IR Inten    --      1.5283                 9.1603                 5.1651

                     52                     53                     54
                      A                      A                      A
 Frequencies --    996.3316              1004.3254              1008.3511
 Red. masses --      2.1497                 1.5769                 1.7498
 Frc consts  --      1.2573                 0.9371                 1.0482
 IR Inten    --      3.9097                24.0674                11.9892

                     55                     56                     57
                      A                      A                      A
 Frequencies --   1023.1619              1037.9942              1060.1609
 Red. masses --      2.7375                 1.9799                 2.1180
 Frc consts  --      1.6885                 1.2569                 1.4026
 IR Inten    --      0.8395                 0.3194                 1.6421

                     58                     59                     60
                      A                      A                      A
 Frequencies --   1068.5127              1071.7702              1085.9259
 Red. masses --      2.2098                 2.2836                 2.8403
 Frc consts  --      1.4865                 1.5455                 1.9734
 IR Inten    --     11.3881                19.5184                22.7428

                     61                     62                     63
                      A                      A                      A
 Frequencies --   1092.0958              1098.7124              1107.1281
 Red. masses --      3.8109                 1.8764                 2.0818
 Frc consts  --      2.6779                 1.3346                 1.5035
 IR Inten    --     77.8132                 8.8493                 8.9770

                     64                     65                     66
                      A                      A                      A
 Frequencies --   1118.7234              1131.0833              1134.5473
 Red. masses --      2.1890                 2.3408                 3.5542
 Frc consts  --      1.6141                 1.7644                 2.6955
 IR Inten    --      3.5054                50.5420               222.7364

                     67                     68                     69
                      A                      A                      A
 Frequencies --   1146.1707              1154.4661              1174.0678
 Red. masses --      3.6614                 2.1009                 1.7933
 Frc consts  --      2.8340                 1.6497                 1.4565
 IR Inten    --     33.7018                 2.3340                15.5297

                     70                     71                     72
                      A                      A                      A
 Frequencies --   1182.2846              1200.4081              1216.8374
 Red. masses --      2.1328                 1.3406                 1.1714
 Frc consts  --      1.7565                 1.1382                 1.0220
 IR Inten    --     18.7267                 2.0354                 0.4892

                     73                     74                     75
                      A                      A                      A
 Frequencies --   1236.7364              1247.9207              1261.8861
 Red. masses --      1.4396                 1.2734                 1.3471
 Frc consts  --      1.2973                 1.1684                 1.2638
 IR Inten    --      0.1232                 8.6622                 1.1205

                     76                     77                     78
                      A                      A                      A
 Frequencies --   1268.4991              1289.1590              1292.5568
 Red. masses --      1.3459                 1.2488                 1.2322
 Frc consts  --      1.2759                 1.2228                 1.2129
 IR Inten    --      3.1022                 4.0296                 9.0225

                     79                     80                     81
                      A                      A                      A
 Frequencies --   1301.8819              1304.5839              1318.7424
 Red. masses --      1.2590                 1.2440                 1.3085
 Frc consts  --      1.2572                 1.2474                 1.3407
 IR Inten    --      3.4907                 2.5212                11.3239

                     82                     83                     84
                      A                      A                      A
 Frequencies --   1326.2701              1330.4705              1332.8702
 Red. masses --      1.2123                 1.0986                 1.1687
 Frc consts  --      1.2564                 1.1458                 1.2232
 IR Inten    --      1.8693                 2.6293                 5.6728

                     85                     86                     87
                      A                      A                      A
 Frequencies --   1335.6753              1349.4429              1351.0951
 Red. masses --      1.1862                 1.2797                 1.2282
 Frc consts  --      1.2469                 1.3730                 1.3210
 IR Inten    --      3.1445                 2.9714                13.2281

                     88                     89                     90
                      A                      A                      A
 Frequencies --   1366.8173              1375.1338              1379.0787
 Red. masses --      1.3439                 1.2373                 1.2953
 Frc consts  --      1.4793                 1.3786                 1.4515
 IR Inten    --      5.8377                 6.1264                14.6999

                     91                     92                     93
                      A                      A                      A
 Frequencies --   1387.3550              1391.6212              1393.8967
 Red. masses --      1.3457                 1.3291                 1.3704
 Frc consts  --      1.5261                 1.5165                 1.5688
 IR Inten    --      7.6381                23.7848                 2.5719

                     94                     95                     96
                      A                      A                      A
 Frequencies --   1396.5127              1397.7772              1404.7792
 Red. masses --      1.3838                 1.4052                 1.4028
 Frc consts  --      1.5900                 1.6176                 1.6310
 IR Inten    --     11.3268                 8.3417                 2.3668

                     97                     98                     99
                      A                      A                      A
 Frequencies --   1408.4302              1413.0889              1420.9025
 Red. masses --      1.4089                 1.2574                 1.2603
 Frc consts  --      1.6466                 1.4793                 1.4992
 IR Inten    --     17.3780                 2.7109                 7.8877

                    100                    101                    102
                      A                      A                      A
 Frequencies --   1433.5195              1445.9612              1474.7586
 Red. masses --      1.3402                 1.2658                 1.0833
 Frc consts  --      1.6226                 1.5593                 1.3881
 IR Inten    --      4.1211                25.5351                 1.0170

                    103                    104                    105
                      A                      A                      A
 Frequencies --   1479.3415              1481.1816              1484.0596
 Red. masses --      1.0891                 1.0964                 1.1447
 Frc consts  --      1.4043                 1.4172                 1.4854
 IR Inten    --     12.0993                 5.8356                58.5561

                    106                    107                    108
                      A                      A                      A
 Frequencies --   1485.6364              1490.3860              1493.3453
 Red. masses --      1.0928                 1.0701                 1.0914
 Frc consts  --      1.4210                 1.4004                 1.4340
 IR Inten    --     24.6627                 1.3862                20.0042

                    109                    110                    111
                      A                      A                      A
 Frequencies --   1499.2716              1499.8105              1501.4221
 Red. masses --      1.0716                 1.0404                 1.0804
 Frc consts  --      1.4192                 1.3788                 1.4350
 IR Inten    --      0.7983                 4.8847                 4.0457

                    112                    113                    114
                      A                      A                      A
 Frequencies --   1503.3916              1505.1210              1505.9505
 Red. masses --      1.0747                 1.0875                 1.0673
 Frc consts  --      1.4312                 1.4515                 1.4261
 IR Inten    --      0.6111                11.8088                 4.9645

                    115                    116                    117
                      A                      A                      A
 Frequencies --   1514.0906              1526.3624              1538.2713
 Red. masses --      1.0923                 1.0848                 1.0959
 Frc consts  --      1.4754                 1.4891                 1.5278
 IR Inten    --      2.7146                 5.1393                 1.4164

                    118                    119                    120
                      A                      A                      A
 Frequencies --   2903.7175              2953.4917              2968.2391
 Red. masses --      1.0717                 1.0538                 1.0690
 Frc consts  --      5.3240                 5.4158                 5.5490
 IR Inten    --     60.4830                75.6361                30.1459

                    121                    122                    123
                      A                      A                      A
 Frequencies --   2976.0656              2979.4828              2998.1435
 Red. masses --      1.0802                 1.1084                 1.0639
 Frc consts  --      5.6367                 5.7971                 5.6345
 IR Inten    --     59.4592                71.1872                11.3571

                    124                    125                    126
                      A                      A                      A
 Frequencies --   2998.7424              3009.5283              3012.9232
 Red. masses --      1.0714                 1.0708                 1.0595
 Frc consts  --      5.6764                 5.7140                 5.6669
 IR Inten    --      4.3912                20.5128                22.5056

                    127                    128                    129
                      A                      A                      A
 Frequencies --   3015.3081              3016.8413              3021.9447
 Red. masses --      1.0628                 1.0808                 1.0904
 Frc consts  --      5.6936                 5.7956                 5.8667
 IR Inten    --     20.9008                26.8636                20.0450

                    130                    131                    132
                      A                      A                      A
 Frequencies --   3023.3469              3024.9758              3027.1582
 Red. masses --      1.0734                 1.0844                 1.0457
 Frc consts  --      5.7810                 5.8464                 5.6459
 IR Inten    --     40.2316                10.8072                13.3510

                    133                    134                    135
                      A                      A                      A
 Frequencies --   3028.2987              3030.7485              3031.6678
 Red. masses --      1.0619                 1.0508                 1.0697
 Frc consts  --      5.7378                 5.6869                 5.7926
 IR Inten    --     81.1636                19.0558                19.7013

                    136                    137                    138
                      A                      A                      A
 Frequencies --   3041.5329              3046.1105              3046.2372
 Red. masses --      1.0807                 1.0917                 1.0739
 Frc consts  --      5.8903                 5.9681                 5.8714
 IR Inten    --     91.7825                51.5557                29.7702

                    139                    140                    141
                      A                      A                      A
 Frequencies --   3050.0306              3054.0655              3077.6402
 Red. masses --      1.1035                 1.0923                 1.0973
 Frc consts  --      6.0483                 6.0025                 6.1238
 IR Inten    --      2.0857                34.3747                28.1630

                    142                    143                    144
                      A                      A                      A
 Frequencies --   3079.0246              3089.6205              3093.6847
 Red. masses --      1.1033                 1.1003                 1.1020
 Frc consts  --      6.1628                 6.1881                 6.2143
 IR Inten    --     46.0898                52.0522                63.2041

                    145                    146                    147
                      A                      A                      A
 Frequencies --   3098.1248              3099.0117              3116.7493
 Red. masses --      1.0955                 1.1009                 1.0931
 Frc consts  --      6.1952                 6.2295                 6.2563
 IR Inten    --     37.3520                39.2337                31.7441

                    148                    149                    150
                      A                      A                      A
 Frequencies --   3139.8012              3525.3251              3787.8655
 Red. masses --      1.0876                 1.0731                 1.0649
 Frc consts  --      6.3172                 7.8578                 9.0022
 IR Inten    --     18.0786                 0.4070                14.2734

 - Thermochemistry -
 -------------------
 Temperature   298.150 Kelvin.  Pressure   1.00000 Atm.
 Atom     1 has atomic number  6 and mass  12.00000

 Molecular mass:   271.25113 amu.
 Principal axes and moments of inertia in atomic units:
                           1         2         3
     Eigenvalues --  2296.24112********************
           X            0.99998  -0.00362  -0.00568
           Y            0.00369   0.99991   0.01251
           Z            0.00564  -0.01253   0.99991
 This molecule is an asymmetric top.
 Rotational symmetry number  1.
 Warning -- assumption of classical behavior for rotation
           may cause significant error
 Rotational temperatures (Kelvin)      0.03772     0.00583     0.00567
 Rotational constants (GHZ):           0.78595     0.12149     0.11813
 Zero-point vibrational energy    1260404.1 (Joules/Mol)
                                  301.24381 (Kcal/Mol)
 Warning -- explicit consideration of  33 degrees of freedom as
           vibrations may cause significant error
 Vibrational temperatures:     20.06    44.69    55.03    77.66    82.82
          (Kelvin)            103.23   118.31   131.86   149.22   196.42
                              206.74   219.75   249.90   253.87   283.50
                              320.43   342.80   354.18   356.65   413.76
                              431.05   447.48   467.92   473.34   497.44
                              547.88   565.61   609.55   620.38   631.55
                              699.03   777.74   828.49   901.51   958.77
                             1040.49  1057.37  1081.51  1102.14  1144.22
                             1168.41  1198.24  1228.46  1249.26  1293.66
                             1309.67  1321.31  1364.58  1384.35  1423.10
                             1429.69  1433.50  1445.00  1450.79  1472.10
                             1493.44  1525.34  1537.35  1542.04  1562.41
                             1571.28  1580.80  1592.91  1609.59  1627.38
                             1632.36  1649.08  1661.02  1689.22  1701.04
                             1727.12  1750.76  1779.39  1795.48  1815.57
                             1825.09  1854.81  1859.70  1873.12  1877.01
                             1897.38  1908.21  1914.25  1917.70  1921.74
                             1941.55  1943.92  1966.55  1978.51  1984.19
                             1996.09  2002.23  2005.51  2009.27  2011.09
                             2021.16  2026.42  2033.12  2044.36  2062.51
                             2080.42  2121.85  2128.44  2131.09  2135.23
                             2137.50  2144.33  2148.59  2157.12  2157.89
                             2160.21  2163.05  2165.53  2166.73  2178.44
                             2196.10  2213.23  4177.80  4249.42  4270.63
                             4281.89  4286.81  4313.66  4314.52  4330.04
                             4334.92  4338.36  4340.56  4347.90  4349.92
                             4352.27  4355.41  4357.05  4360.57  4361.89
                             4376.09  4382.67  4382.86  4388.31  4394.12
                             4428.04  4430.03  4445.27  4451.12  4457.51
                             4458.79  4484.31  4517.47  5072.16  5449.89

 Zero-point correction=                           0.480063 (Hartree/Particle)
 Thermal correction to Energy=                    0.502674
 Thermal correction to Enthalpy=                  0.503618
 Thermal correction to Gibbs Free Energy=         0.426455
 Sum of electronic and zero-point Energies=           -834.331519
 Sum of electronic and thermal Energies=              -834.308908
 Sum of electronic and thermal Enthalpies=            -834.307964
 Sum of electronic and thermal Free Energies=         -834.385127

                     E (Thermal)             CV                S
                      KCal/Mol        Cal/Mol-Kelvin    Cal/Mol-Kelvin
 Total                  315.433             84.531            162.404
 Electronic               0.000              0.000              0.000
 Translational            0.889              2.981             42.692
 Rotational               0.889              2.981             34.610
 Vibrational            313.655             78.569             85.102
 Vibration     1          0.593              1.986              7.351
 Vibration     2          0.594              1.983              5.761
 Vibration     3          0.594              1.982              5.348
 Vibration     4          0.596              1.976              4.666
 Vibration     5          0.596              1.974              4.539
 Vibration     6          0.598              1.967              4.105
 Vibration     7          0.600              1.961              3.837
 Vibration     8          0.602              1.955              3.625
 Vibration     9          0.605              1.946              3.383
 Vibration    10          0.614              1.917              2.852
 Vibration    11          0.616              1.909              2.754
 Vibration    12          0.619              1.900              2.638
 Vibration    13          0.627              1.875              2.395
 Vibration    14          0.628              1.871              2.366
 Vibration    15          0.636              1.844              2.161
 Vibration    16          0.648              1.806              1.937
 Vibration    17          0.656              1.782              1.816
 Vibration    18          0.661              1.769              1.758
 Vibration    19          0.662              1.766              1.746
 Vibration    20          0.685              1.697              1.488
 Vibration    21          0.692              1.674              1.419
 Vibration    22          0.700              1.653              1.357
 Vibration    23          0.709              1.625              1.284
 Vibration    24          0.712              1.618              1.265
 Vibration    25          0.724              1.584              1.186
 Vibration    26          0.751              1.511              1.036
 Vibration    27          0.760              1.485              0.988
 Vibration    28          0.786              1.419              0.880
 Vibration    29          0.792              1.402              0.855
 Vibration    30          0.799              1.385              0.830
 Vibration    31          0.842              1.281              0.694
 Vibration    32          0.896              1.160              0.564
 Vibration    33          0.932              1.084              0.493

                           ! Non-Optimized Parameters !
 Normal termination of Gaussian 16 at Tue May 23 08:57:24 2023.
