 Gaussian 16, Revision A.03,
 Gaussian 16:  ES64L-G16RevA.03 25-Dec-2016

 -----------------------------
 # opt freq b3lyp/6-31g(2df,p)
 -----------------------------

 -------------------
 Title Card Required
 -------------------
 Symbolic Z-matrix:
 Charge =  0 Multiplicity = 1

 SCF Done:  E(RB3LYP) =  -777.177574320     A.U. after   13 cycles
 SCF Done:  E(RB3LYP) =  -777.193222930     A.U. after   12 cycles
 SCF Done:  E(RB3LYP) =  -777.199396438     A.U. after   11 cycles
 SCF Done:  E(RB3LYP) =  -777.201486684     A.U. after   10 cycles
 SCF Done:  E(RB3LYP) =  -777.202266987     A.U. after   11 cycles
 SCF Done:  E(RB3LYP) =  -777.202295338     A.U. after   13 cycles
 SCF Done:  E(RB3LYP) =  -777.202914317     A.U. after   11 cycles
 SCF Done:  E(RB3LYP) =  -777.202998953     A.U. after   11 cycles
 SCF Done:  E(RB3LYP) =  -777.203137546     A.U. after   11 cycles
 SCF Done:  E(RB3LYP) =  -777.203201699     A.U. after   10 cycles
 SCF Done:  E(RB3LYP) =  -777.203221776     A.U. after   10 cycles
 SCF Done:  E(RB3LYP) =  -777.203233237     A.U. after    8 cycles
 SCF Done:  E(RB3LYP) =  -777.203235984     A.U. after    7 cycles
 SCF Done:  E(RB3LYP) =  -777.203238443     A.U. after    8 cycles
 SCF Done:  E(RB3LYP) =  -777.203238542     A.U. after    7 cycles
 Optimization completed.
    -- Stationary point found.
 Normal termination of Gaussian 16 at Mon May 22 09:24:09 2023.

 ----------------------------------------------------------------------
 #N Geom=AllCheck Guess=TCheck SCRF=Check GenChk RB3LYP/6-31G(2df,p) Fr
 eq
 ----------------------------------------------------------------------

 Structure from the checkpoint file:  "CCCCCCOCCCCCqCCCrOO.chk"
 -------------------
 Title Card Required
 -------------------
 Charge =  0 Multiplicity = 1

                         Standard orientation:
 ---------------------------------------------------------------------
 Center     Atomic      Atomic             Coordinates (Angstroms)
 Number     Number       Type             X           Y           Z
 ---------------------------------------------------------------------
      1          6           0        9.169442   -0.237246   -0.262915
      2          6           0        7.890106    0.507288    0.128384
      3          6           0        6.613705   -0.282110   -0.181067
      4          6           0        5.328713    0.456928    0.207251
      5          6           0        4.056864   -0.337492   -0.105265
      6          6           0        2.785374    0.404842    0.282899
      7          8           0        1.671228   -0.398934   -0.041010
      8          6           0        0.434988    0.199327    0.278430
      9          6           0       -0.685812   -0.755419   -0.111250
     10          6           0       -2.077637   -0.192225    0.196127
     11          6           0       -3.195557   -1.157995   -0.212532
     12          6           0       -4.611850   -0.713404    0.172896
     13          6           0       -5.097004    0.589650   -0.485917
     14          6           0       -4.909853    1.849780    0.370346
     15          6           0       -5.428442    3.114424   -0.319799
     16          8           0       -5.410837   -1.836330   -0.223729
     17          8           0       -6.725393   -1.670960    0.360194
     18          1           0       10.062730    0.350841   -0.029988
     19          1           0        9.186634   -0.457664   -1.336171
     20          1           0        9.250901   -1.191348    0.269822
     21          1           0        7.853529    1.472819   -0.393644
     22          1           0        7.917353    0.744843    1.200257
     23          1           0        6.648828   -1.248423    0.341177
     24          1           0        6.585390   -0.520691   -1.253465
     25          1           0        5.295420    1.423211   -0.315385
     26          1           0        5.358484    0.694841    1.279836
     27          1           0        4.073717   -1.299313    0.421813
     28          1           0        4.011241   -0.570494   -1.176182
     29          1           0        2.727642    1.371490   -0.248508
     30          1           0        2.789926    0.635806    1.363023
     31          1           0        0.323709    1.160265   -0.255173
     32          1           0        0.385961    0.428257    1.358022
     33          1           0       -0.537662   -1.703973    0.418621
     34          1           0       -0.597735   -0.979087   -1.181360
     35          1           0       -2.200734    0.765624   -0.324058
     36          1           0       -2.154873    0.027259    1.269713
     37          1           0       -3.018993   -2.136165    0.249119
     38          1           0       -3.166547   -1.316448   -1.298297
     39          1           0       -4.685272   -0.622057    1.266477
     40          1           0       -6.167805    0.474386   -0.684837
     41          1           0       -4.606932    0.716341   -1.460491
     42          1           0       -3.853193    1.984818    0.627957
     43          1           0       -5.437367    1.709085    1.322604
     44          1           0       -4.895140    3.301532   -1.258606
     45          1           0       -5.302357    3.996530    0.315692
     46          1           0       -6.494050    3.025375   -0.559123
     47          1           0       -7.271010   -1.665955   -0.438020
 ---------------------------------------------------------------------

 SCF Done:  E(RB3LYP) =  -777.203238542     A.U. after    1 cycles

 The electronic state is 1-A.
 Alpha  occ. eigenvalues --  -19.18401 -19.18307 -19.13253 -10.22857 -10.22280
 Alpha  occ. eigenvalues --  -10.22118 -10.18543 -10.18160 -10.18080 -10.17813
 Alpha  occ. eigenvalues --  -10.17769 -10.17648 -10.17613 -10.17498 -10.17450
 Alpha  occ. eigenvalues --  -10.17384 -10.17017  -1.10592  -1.02746  -0.90719
 Alpha  occ. eigenvalues --   -0.80761  -0.80067  -0.78568  -0.76532  -0.73716
 Alpha  occ. eigenvalues --   -0.70584  -0.68621  -0.64637  -0.61913  -0.59552
 Alpha  occ. eigenvalues --   -0.58693  -0.57733  -0.57310  -0.56886  -0.52051
 Alpha  occ. eigenvalues --   -0.49289  -0.48359  -0.47814  -0.47071  -0.46035
 Alpha  occ. eigenvalues --   -0.45664  -0.44474  -0.43880  -0.42682  -0.41889
 Alpha  occ. eigenvalues --   -0.40967  -0.40282  -0.39710  -0.38948  -0.38381
 Alpha  occ. eigenvalues --   -0.37749  -0.36738  -0.36345  -0.35732  -0.35057
 Alpha  occ. eigenvalues --   -0.34280  -0.34049  -0.33391  -0.32899  -0.32799
 Alpha  occ. eigenvalues --   -0.32438  -0.32379  -0.31880  -0.31678  -0.30785
 Alpha  occ. eigenvalues --   -0.30471  -0.29780  -0.24963  -0.24736
 Alpha virt. eigenvalues --    0.03663   0.08149   0.08812   0.08999   0.09521
 Alpha virt. eigenvalues --    0.10282   0.10666   0.10954   0.11848   0.12803
 Alpha virt. eigenvalues --    0.13005   0.13356   0.13893   0.14159   0.15084

 Mulliken charges:
               1
     1  C   -0.379025
     2  C   -0.164103
     3  C   -0.158167
     4  C   -0.180948
     5  C   -0.198931
     6  C   -0.051606
     7  O   -0.247886
     8  C   -0.053862
     9  C   -0.198112
    10  C   -0.196520
    11  C   -0.214310
    12  C    0.159975
    13  C   -0.186348
    14  C   -0.172018
    15  C   -0.378918
    16  O   -0.205737
    17  O   -0.332660
    18  H    0.110041
    19  H    0.113095
    20  H    0.113209
    21  H    0.093012
    22  H    0.093149
    23  H    0.092371
    24  H    0.092178
    25  H    0.092418
    26  H    0.092650
    27  H    0.103479
    28  H    0.103120
    29  H    0.080267
    30  H    0.080733
    31  H    0.079967
    32  H    0.081052
    33  H    0.107423
    34  H    0.105901
    35  H    0.103537
    36  H    0.098014
    37  H    0.110788
    38  H    0.104567
    39  H    0.076879
    40  H    0.090262
    41  H    0.089248
    42  H    0.100268
    43  H    0.102671
    44  H    0.113281
    45  H    0.111661
    46  H    0.114178
    47  H    0.309756
 Sum of Mulliken charges =  -0.00000

 Dipole moment (field-independent basis, Debye):
    X=              0.2503    Y=              1.9664    Z=             -0.4541  Tot=              2.0336
 Quadrupole moment (field-independent basis, Debye-Ang):
   XX=           -103.9311   YY=           -113.3676   ZZ=           -107.8619
   XY=             -4.2948   XZ=              7.5338   YZ=              0.9556

  Exact polarizability: 224.416   0.901 155.996  -0.491   1.030 139.382
 Approx polarizability: 241.742   2.094 222.350  -2.530   1.060 222.536

                      1                      2                      3
                      A                      A                      A
 Frequencies --     14.0414                23.9832                25.2467
 Red. masses --      4.0514                 2.9120                 2.2325
 Frc consts  --      0.0005                 0.0010                 0.0008
 IR Inten    --      0.0465                 0.0832                 0.1620

                      4                      5                      6
                      A                      A                      A
 Frequencies --     40.6927                57.3154                68.0452
 Red. masses --      3.0225                 3.3762                 2.1615
 Frc consts  --      0.0029                 0.0065                 0.0059
 IR Inten    --      0.1356                 0.0520                 0.3909

                      7                      8                      9
                      A                      A                      A
 Frequencies --     69.1630                79.3177                91.4192
 Red. masses --      1.9060                 3.6089                 2.4961
 Frc consts  --      0.0054                 0.0134                 0.0123
 IR Inten    --      0.3027                 0.3996                 0.8750

                     10                     11                     12
                      A                      A                      A
 Frequencies --    106.4697               123.1952               130.2235
 Red. masses --      2.0408                 2.5019                 3.1925
 Frc consts  --      0.0136                 0.0224                 0.0319
 IR Inten    --      0.3434                 1.1779                 0.2271

                     13                     14                     15
                      A                      A                      A
 Frequencies --    142.5880               153.4654               159.3518
 Red. masses --      2.2193                 3.5317                 2.0799
 Frc consts  --      0.0266                 0.0490                 0.0311
 IR Inten    --      0.1018                 2.9376                 0.1395

                     16                     17                     18
                      A                      A                      A
 Frequencies --    163.4276               173.1898               196.9908
 Red. masses --      3.3708                 3.0992                 2.6495
 Frc consts  --      0.0530                 0.0548                 0.0606
 IR Inten    --      3.1495                 5.2420                 5.2272

                     19                     20                     21
                      A                      A                      A
 Frequencies --    218.4102               226.6421               245.4745
 Red. masses --      2.9202                 1.2576                 1.1286
 Frc consts  --      0.0821                 0.0381                 0.0401
 IR Inten    --      6.8600               111.2800                 0.1117

                     22                     23                     24
                      A                      A                      A
 Frequencies --    247.9618               289.6260               290.7666
 Red. masses --      1.1209                 3.5620                 3.4543
 Frc consts  --      0.0406                 0.1760                 0.1721
 IR Inten    --      0.0106                 0.4038                 0.9333

                     25                     26                     27
                      A                      A                      A
 Frequencies --    336.2940               373.2877               427.0575
 Red. masses --      3.4464                 3.2453                 3.1334
 Frc consts  --      0.2296                 0.2664                 0.3367
 IR Inten    --      0.4233                 0.4178                 1.3828

                     28                     29                     30
                      A                      A                      A
 Frequencies --    446.6210               485.3422               507.2994
 Red. masses --      3.1893                 2.9585                 3.9273
 Frc consts  --      0.3748                 0.4106                 0.5955
 IR Inten    --      1.5665                 2.6180                 3.2072

                     31                     32                     33
                      A                      A                      A
 Frequencies --    537.3301               562.1951               733.3728
 Red. masses --      3.8163                 3.1092                 1.0643
 Frc consts  --      0.6492                 0.5790                 0.3373
 IR Inten    --     11.3623                 1.9867                 3.8475

                     34                     35                     36
                      A                      A                      A
 Frequencies --    736.1331               750.0820               753.1963
 Red. masses --      1.1294                 1.0845                 1.0954
 Frc consts  --      0.3606                 0.3595                 0.3661
 IR Inten    --      5.0296                 2.1289                 0.0031

                     37                     38                     39
                      A                      A                      A
 Frequencies --    799.5569               809.7504               852.4979
 Red. masses --      1.1854                 1.1543                 1.4434
 Frc consts  --      0.4465                 0.4459                 0.6181
 IR Inten    --      0.2299                 0.1471                 2.4507

                     40                     41                     42
                      A                      A                      A
 Frequencies --    890.2912               898.8011               902.0718
 Red. masses --      1.5592                 1.9107                 1.1993
 Frc consts  --      0.7281                 0.9094                 0.5750
 IR Inten    --      2.0199                 2.0272                 1.1196

                     43                     44                     45
                      A                      A                      A
 Frequencies --    921.2578               934.2792               969.0146
 Red. masses --      1.8795                 5.8713                 1.6884
 Frc consts  --      0.9398                 3.0195                 0.9341
 IR Inten    --      4.1356                18.3645                 0.6876

                     46                     47                     48
                      A                      A                      A
 Frequencies --    987.8140               998.1587              1007.4903
 Red. masses --      5.4809                 3.9781                 1.1303
 Frc consts  --      3.1510                 2.3352                 0.6760
 IR Inten    --     13.7362                 0.5413                 0.0090

                     49                     50                     51
                      A                      A                      A
 Frequencies --   1024.5064              1035.0027              1050.1802
 Red. masses --      3.7582                 3.4283                 2.9314
 Frc consts  --      2.3241                 2.1638                 1.9048
 IR Inten    --      3.7755                 1.9313                 1.9459

                     52                     53                     54
                      A                      A                      A
 Frequencies --   1053.2871              1059.5904              1064.6845
 Red. masses --      2.1975                 1.8169                 2.3176
 Frc consts  --      1.4364                 1.2019                 1.5479
 IR Inten    --      1.1485                 0.3100                 0.0588

                     55                     56                     57
                      A                      A                      A
 Frequencies --   1069.6821              1073.7090              1090.9220
 Red. masses --      1.9679                 2.1866                 2.3835
 Frc consts  --      1.3267                 1.4852                 1.6713
 IR Inten    --      1.3677                 3.1291                 1.5041

                     58                     59                     60
                      A                      A                      A
 Frequencies --   1129.3173              1138.2098              1154.4113
 Red. masses --      2.5258                 2.4677                 3.4816
 Frc consts  --      1.8980                 1.8836                 2.7337
 IR Inten    --      9.8798                 4.2036                15.1266

                     61                     62                     63
                      A                      A                      A
 Frequencies --   1161.7520              1183.5601              1198.0818
 Red. masses --      7.9948                 1.7527                 1.7982
 Frc consts  --      6.3575                 1.4465                 1.5208
 IR Inten    --    311.3039                 0.8036                 3.5978

                     64                     65                     66
                      A                      A                      A
 Frequencies --   1218.8021              1235.2991              1253.8040
 Red. masses --      1.5258                 1.4489                 1.2793
 Frc consts  --      1.3354                 1.3027                 1.1849
 IR Inten    --      2.1528                 2.9178                 4.6081

                     67                     68                     69
                      A                      A                      A
 Frequencies --   1260.5640              1262.9168              1283.0803
 Red. masses --      1.3365                 1.3334                 1.2595
 Frc consts  --      1.2512                 1.2530                 1.2216
 IR Inten    --      1.3872                 0.6058                 0.2960

                     70                     71                     72
                      A                      A                      A
 Frequencies --   1290.8565              1302.9061              1311.2917
 Red. masses --      1.2226                 1.2794                 1.0865
 Frc consts  --      1.2003                 1.2796                 1.1007
 IR Inten    --      2.6585                 2.6834                 0.2733

                     73                     74                     75
                      A                      A                      A
 Frequencies --   1314.1301              1319.2401              1325.0446
 Red. masses --      1.1397                 1.1783                 1.2898
 Frc consts  --      1.1596                 1.2083                 1.3342
 IR Inten    --      2.7406                 1.8914                 0.6438

                     76                     77                     78
                      A                      A                      A
 Frequencies --   1327.7078              1329.0849              1333.1747
 Red. masses --      1.1289                 1.1265                 1.0706
 Frc consts  --      1.1724                 1.1724                 1.1211
 IR Inten    --      2.4622                 0.2431                 0.3019

                     79                     80                     81
                      A                      A                      A
 Frequencies --   1336.5997              1363.1958              1380.5262
 Red. masses --      1.1127                 1.3268                 1.3838
 Frc consts  --      1.1712                 1.4527                 1.5539
 IR Inten    --      1.3851                58.5723                 5.8312

                     82                     83                     84
                      A                      A                      A
 Frequencies --   1381.3265              1390.9340              1397.5075
 Red. masses --      1.3800                 1.2980                 1.5116
 Frc consts  --      1.5514                 1.4796                 1.7394
 IR Inten    --      2.2490                 5.9261                 8.3107

                     85                     86                     87
                      A                      A                      A
 Frequencies --   1401.8875              1406.9788              1408.7244
 Red. masses --      1.5884                 1.4268                 1.4468
 Frc consts  --      1.8392                 1.6641                 1.6916
 IR Inten    --      1.0166                44.9010                12.7606

                     88                     89                     90
                      A                      A                      A
 Frequencies --   1413.8068              1413.9273              1455.6104
 Red. masses --      1.2644                 1.2533                 1.5172
 Frc consts  --      1.4890                 1.4763                 1.8940
 IR Inten    --      0.8389                 2.1215                 1.5844

                     91                     92                     93
                      A                      A                      A
 Frequencies --   1475.0648              1483.7742              1485.6593
 Red. masses --      1.0790                 1.0693                 1.0732
 Frc consts  --      1.3833                 1.3871                 1.3956
 IR Inten    --      3.4730                 0.1941                 0.1914

                     94                     95                     96
                      A                      A                      A
 Frequencies --   1487.7231              1491.7673              1493.4577
 Red. masses --      1.0718                 1.0800                 1.0606
 Frc consts  --      1.3977                 1.4160                 1.3938
 IR Inten    --      1.6402                 0.1262                 0.7645

                     97                     98                     99
                      A                      A                      A
 Frequencies --   1494.0186              1499.5431              1499.9460
 Red. masses --      1.0742                 1.0406                 1.0402
 Frc consts  --      1.4127                 1.3786                 1.3789
 IR Inten    --      1.0396                 5.1933                 4.9398

                    100                    101                    102
                      A                      A                      A
 Frequencies --   1503.4502              1508.0129              1510.3659
 Red. masses --      1.0822                 1.0923                 1.0831
 Frc consts  --      1.4413                 1.4636                 1.4557
 IR Inten    --      0.4579                 3.7015                 3.1377

                    103                    104                    105
                      A                      A                      A
 Frequencies --   1513.4928              1519.9440              1538.0165
 Red. masses --      1.0909                 1.0924                 1.0965
 Frc consts  --      1.4723                 1.4869                 1.5281
 IR Inten    --      4.0749                 4.4990                 0.6265

                    106                    107                    108
                      A                      A                      A
 Frequencies --   2932.0316              2945.4663              2960.6768
 Red. masses --      1.0535                 1.0542                 1.1038
 Frc consts  --      5.3359                 5.3889                 5.7006
 IR Inten    --     17.8072                73.6313                79.9241

                    109                    110                    111
                      A                      A                      A
 Frequencies --   2963.2528              2997.1809              3000.3165
 Red. masses --      1.1055                 1.0818                 1.0575
 Frc consts  --      5.7193                 5.7258                 5.6087
 IR Inten    --     16.9866                10.6451                 1.2588

                    112                    113                    114
                      A                      A                      A
 Frequencies --   3004.4368              3011.7054              3015.2411
 Red. masses --      1.0583                 1.0601                 1.0596
 Frc consts  --      5.6283                 5.6652                 5.6761
 IR Inten    --      7.6277                11.6755                54.2695

                    115                    116                    117
                      A                      A                      A
 Frequencies --   3017.3257              3022.0047              3025.5093
 Red. masses --      1.0634                 1.0986                 1.0600
 Frc consts  --      5.7042                 5.9112                 5.7168
 IR Inten    --      1.7103                 0.6372                 3.3979

                    118                    119                    120
                      A                      A                      A
 Frequencies --   3027.2864              3028.0930              3030.2839
 Red. masses --      1.0434                 1.0370                 1.0572
 Frc consts  --      5.6339                 5.6022                 5.7195
 IR Inten    --     19.5398                26.7021                47.8374

                    121                    122                    123
                      A                      A                      A
 Frequencies --   3030.8983              3034.5988              3034.7163
 Red. masses --      1.0554                 1.1019                 1.0598
 Frc consts  --      5.7124                 5.9785                 5.7506
 IR Inten    --     60.1315                 0.3280                78.9083

                    124                    125                    126
                      A                      A                      A
 Frequencies --   3044.6679              3055.0168              3055.4531
 Red. masses --      1.0978                 1.1047                 1.0944
 Frc consts  --      5.9956                 6.0748                 6.0197
 IR Inten    --      1.2761                26.2829                 1.5426

                    127                    128                    129
                      A                      A                      A
 Frequencies --   3069.2795              3074.9987              3076.5584
 Red. masses --      1.1030                 1.1050                 1.0999
 Frc consts  --      6.1220                 6.1558                 6.1341
 IR Inten    --      2.5811                66.2076                20.1197

                    130                    131                    132
                      A                      A                      A
 Frequencies --   3084.1361              3094.4272              3097.1283
 Red. masses --      1.1043                 1.1020                 1.1023
 Frc consts  --      6.1889                 6.2173                 6.2299
 IR Inten    --     74.9832                61.3106                70.5945

                    133                    134                    135
                      A                      A                      A
 Frequencies --   3099.8986              3101.2858              3768.1880
 Red. masses --      1.1010                 1.1008                 1.0686
 Frc consts  --      6.2333                 6.2377                 8.9396
 IR Inten    --     38.9774                37.7970                39.5093

 - Thermochemistry -
 -------------------
 Temperature   298.150 Kelvin.  Pressure   1.00000 Atm.
 Atom     1 has atomic number  6 and mass  12.00000

 Molecular mass:   246.21950 amu.
 Principal axes and moments of inertia in atomic units:
                           1         2         3
     Eigenvalues --  1483.07655********************
           X            0.99997  -0.00818   0.00069
           Y            0.00818   0.99996   0.00307
           Z           -0.00071  -0.00306   1.00000
 This molecule is an asymmetric top.
 Rotational symmetry number  1.
 Warning -- assumption of classical behavior for rotation
           may cause significant error
 Rotational temperatures (Kelvin)      0.05840     0.00375     0.00356
 Rotational constants (GHZ):           1.21689     0.07803     0.07419
 Zero-point vibrational energy    1123104.0 (Joules/Mol)
                                  268.42830 (Kcal/Mol)
 Warning -- explicit consideration of  32 degrees of freedom as
           vibrations may cause significant error
 Vibrational temperatures:     20.20    34.51    36.32    58.55    82.46
          (Kelvin)             97.90    99.51   114.12   131.53   153.19
                              177.25   187.36   205.15   220.80   229.27
                              235.14   249.18   283.43   314.24   326.09
                              353.18   356.76   416.71   418.35   483.85
                              537.08   614.44   642.59   698.30   729.89
                              773.10   808.87  1055.16  1059.13  1079.20
                             1083.68  1150.38  1165.05  1226.55  1280.93
                             1293.17  1297.88  1325.48  1344.22  1394.20
                             1421.24  1436.13  1449.55  1474.04  1489.14
                             1510.98  1515.45  1524.51  1531.84  1539.03
                             1544.83  1569.59  1624.84  1637.63  1660.94
                             1671.50  1702.88  1723.77  1753.58  1777.32
                             1803.94  1813.67  1817.06  1846.07  1857.25
                             1874.59  1886.66  1890.74  1898.09  1906.44
                             1910.28  1912.26  1918.14  1923.07  1961.33
                             1986.27  1987.42  2001.24  2010.70  2017.00
                             2024.33  2026.84  2034.15  2034.33  2094.30
                             2122.29  2134.82  2137.53  2140.50  2146.32
                             2148.75  2149.56  2157.51  2158.09  2163.13
                             2169.69  2173.08  2177.58  2186.86  2212.86
                             4218.54  4237.87  4259.75  4263.46  4312.27
                             4316.79  4322.71  4333.17  4338.26  4341.26
                             4347.99  4353.03  4355.59  4356.75  4359.90
                             4360.79  4366.11  4366.28  4380.60  4395.49
                             4396.12  4416.01  4424.24  4426.48  4437.38
                             4452.19  4456.08  4460.06  4462.06  5421.58

 Zero-point correction=                           0.427768 (Hartree/Particle)
 Thermal correction to Energy=                    0.450628
 Thermal correction to Enthalpy=                  0.451572
 Thermal correction to Gibbs Free Energy=         0.371512
 Sum of electronic and zero-point Energies=           -776.775471
 Sum of electronic and thermal Energies=              -776.752611
 Sum of electronic and thermal Enthalpies=            -776.751667
 Sum of electronic and thermal Free Energies=         -776.831727

                     E (Thermal)             CV                S
                      KCal/Mol        Cal/Mol-Kelvin    Cal/Mol-Kelvin
 Total                  282.773             79.899            168.501
 Electronic               0.000              0.000              0.000
 Translational            0.889              2.981             42.404
 Rotational               0.889              2.981             35.077
 Vibrational            280.996             73.938             91.020
 Vibration     1          0.593              1.986              7.337
 Vibration     2          0.593              1.985              6.274
 Vibration     3          0.593              1.985              6.172
 Vibration     4          0.594              1.981              5.225
 Vibration     5          0.596              1.975              4.548
 Vibration     6          0.598              1.969              4.209
 Vibration     7          0.598              1.969              4.177
 Vibration     8          0.600              1.963              3.908
 Vibration     9          0.602              1.955              3.629
 Vibration    10          0.605              1.944              3.332
 Vibration    11          0.610              1.930              3.050
 Vibration    12          0.612              1.923              2.943
 Vibration    13          0.616              1.911              2.769
 Vibration    14          0.619              1.899              2.629
 Vibration    15          0.621              1.892              2.557
 Vibration    16          0.623              1.887              2.510
 Vibration    17          0.627              1.875              2.401
 Vibration    18          0.636              1.844              2.161
 Vibration    19          0.646              1.813              1.972
 Vibration    20          0.650              1.800              1.905
 Vibration    21          0.660              1.770              1.763
 Vibration    22          0.662              1.766              1.745
 Vibration    23          0.686              1.693              1.476
 Vibration    24          0.687              1.691              1.469
 Vibration    25          0.717              1.603              1.230
 Vibration    26          0.745              1.527              1.066
 Vibration    27          0.789              1.411              0.868
 Vibration    28          0.806              1.368              0.806
 Vibration    29          0.841              1.283              0.696
 Vibration    30          0.862              1.234              0.640
 Vibration    31          0.892              1.167              0.571
 Vibration    32          0.918              1.113              0.519

                           ! Non-Optimized Parameters !
 Normal termination of Gaussian 16 at Mon May 22 13:03:26 2023.
