 Gaussian 16, Revision A.03,
 Gaussian 16:  ES64L-G16RevA.03 25-Dec-2016

 -----------------------------
 # opt freq b3lyp/6-31g(2df,p)
 -----------------------------

 -------------------
 Title Card Required
 -------------------
 Symbolic Z-matrix:
 Charge =  0 Multiplicity = 1

 SCF Done:  E(RB3LYP) =  -350.914304467     A.U. after   15 cycles
 SCF Done:  E(RB3LYP) =  -350.981912664     A.U. after   14 cycles
 SCF Done:  E(RB3LYP) =  -351.030323255     A.U. after   14 cycles
 SCF Done:  E(RB3LYP) =  -351.118660454     A.U. after   13 cycles
 SCF Done:  E(RB3LYP) =  -351.155884396     A.U. after   11 cycles
 SCF Done:  E(RB3LYP) =  -351.189100130     A.U. after   11 cycles
 SCF Done:  E(RB3LYP) =  -351.220059562     A.U. after   11 cycles
 SCF Done:  E(RB3LYP) =  -351.241869275     A.U. after   11 cycles
 SCF Done:  E(RB3LYP) =  -351.263224702     A.U. after   11 cycles
 SCF Done:  E(RB3LYP) =  -351.278618293     A.U. after   11 cycles
 SCF Done:  E(RB3LYP) =  -351.284453260     A.U. after   10 cycles
 SCF Done:  E(RB3LYP) =  -351.287268573     A.U. after   10 cycles
 SCF Done:  E(RB3LYP) =  -351.288076744     A.U. after   10 cycles
 SCF Done:  E(RB3LYP) =  -351.288311379     A.U. after    9 cycles
 SCF Done:  E(RB3LYP) =  -351.288343722     A.U. after    8 cycles
 SCF Done:  E(RB3LYP) =  -351.288347901     A.U. after    7 cycles
 SCF Done:  E(RB3LYP) =  -351.288349210     A.U. after    6 cycles
 SCF Done:  E(RB3LYP) =  -351.288349512     A.U. after    6 cycles
 SCF Done:  E(RB3LYP) =  -351.288349580     A.U. after    5 cycles
 Optimization completed.
    -- Stationary point found.
 Normal termination of Gaussian 16 at Sun May 28 20:43:32 2023.

 ----------------------------------------------------------------------
 #N Geom=AllCheck Guess=TCheck SCRF=Check GenChk RB3LYP/6-31G(2df,p) Fr
 eq
 ----------------------------------------------------------------------

 Structure from the checkpoint file:  "CCCC1C2C3CC2C13.chk"
 -------------------
 Title Card Required
 -------------------
 Charge =  0 Multiplicity = 1

                         Standard orientation:
 ---------------------------------------------------------------------
 Center     Atomic      Atomic             Coordinates (Angstroms)
 Number     Number       Type             X           Y           Z
 ---------------------------------------------------------------------
      1          6           0        3.545552   -0.521535   -0.000017
      2          6           0        2.013659   -0.513082    0.000059
      3          6           0        1.441812    0.910592   -0.000064
      4          6           0       -0.077110    1.079606    0.000020
      5          6           0       -1.020033    0.293469   -0.943940
      6          6           0       -1.113088   -0.960965   -0.000162
      7          6           0       -2.652859   -0.941066    0.000004
      8          6           0       -2.247648    0.543535    0.000156
      9          6           0       -1.019887    0.293242    0.943999
     10          1           0        3.940430   -1.542404   -0.001182
     11          1           0        3.944359   -0.011110    0.883956
     12          1           0        3.944322   -0.009100   -0.882847
     13          1           0        1.649258   -1.059813    0.878020
     14          1           0        1.649082   -1.059908   -0.877773
     15          1           0        1.840522    1.446225   -0.874102
     16          1           0        1.840555    1.446556    0.873754
     17          1           0       -0.299232    2.156340    0.000143
     18          1           0       -1.051280    0.276603   -2.035785
     19          1           0       -0.452476   -1.826424   -0.000368
     20          1           0       -3.151620   -1.317126    0.899610
     21          1           0       -3.151595   -1.316648   -0.899856
     22          1           0       -2.873961    1.437825    0.000262
     23          1           0       -1.050756    0.276214    2.035838
 ---------------------------------------------------------------------

 SCF Done:  E(RB3LYP) =  -351.288349580     A.U. after    1 cycles

 The electronic state is 1-A.
 Alpha  occ. eigenvalues --  -10.19230 -10.19103 -10.19043 -10.19041 -10.18153
 Alpha  occ. eigenvalues --  -10.17551 -10.17457 -10.17263 -10.16918  -0.93098
 Alpha  occ. eigenvalues --   -0.78676  -0.73682  -0.67569  -0.62629  -0.62463
 Alpha  occ. eigenvalues --   -0.59982  -0.55692  -0.49757  -0.49219  -0.45725
 Alpha  occ. eigenvalues --   -0.45256  -0.42867  -0.42367  -0.39473  -0.38197
 Alpha  occ. eigenvalues --   -0.35397  -0.33660  -0.33142  -0.30638  -0.29803
 Alpha  occ. eigenvalues --   -0.29405  -0.28598  -0.28575  -0.27939
 Alpha virt. eigenvalues --    0.09167   0.10896   0.12506   0.12599   0.12815
 Alpha virt. eigenvalues --    0.13089   0.13897   0.14181   0.15720   0.17160
 Alpha virt. eigenvalues --    0.17905   0.18159   0.18398   0.19559   0.20029

 Mulliken charges:
               1
     1  C   -0.385180
     2  C   -0.160894
     3  C   -0.214627
     4  C   -0.004283
     5  C   -0.053976
     6  C   -0.023464
     7  C   -0.282741
     8  C   -0.030545
     9  C   -0.053998
    10  H    0.108718
    11  H    0.112502
    12  H    0.112491
    13  H    0.099351
    14  H    0.099355
    15  H    0.091583
    16  H    0.091579
    17  H    0.058802
    18  H    0.062054
    19  H    0.070252
    20  H    0.088101
    21  H    0.088081
    22  H    0.064781
    23  H    0.062060
 Sum of Mulliken charges =  -0.00000

 Dipole moment (field-independent basis, Debye):
    X=              0.1119    Y=              0.0487    Z=              0.0001  Tot=              0.1220
 Quadrupole moment (field-independent basis, Debye-Ang):
   XX=            -57.7168   YY=            -56.5332   ZZ=            -55.7130
   XY=             -0.3365   XZ=              0.0001   YZ=             -0.0000

  Exact polarizability: 106.875   2.889  84.812   0.001   0.000  79.594
 Approx polarizability: 131.423   2.345 128.902   0.001   0.001 128.142

                      1                      2                      3
                      A                      A                      A
 Frequencies --     78.9589               111.7015               139.1171
 Red. masses --      2.5588                 1.6106                 3.4115
 Frc consts  --      0.0094                 0.0118                 0.0389
 IR Inten    --      0.0000                 0.0000                 0.0149

                      4                      5                      6
                      A                      A                      A
 Frequencies --    248.0333               267.1781               267.6293
 Red. masses --      1.1251                 3.0986                 2.2698
 Frc consts  --      0.0408                 0.1303                 0.0958
 IR Inten    --      0.0033                 0.4425                 0.3327

                      7                      8                      9
                      A                      A                      A
 Frequencies --    322.3734               428.0316               632.1885
 Red. masses --      3.3421                 1.8850                 3.7026
 Frc consts  --      0.2046                 0.2035                 0.8719
 IR Inten    --      0.2412                 0.2084                 0.3274

                     10                     11                     12
                      A                      A                      A
 Frequencies --    719.3134               749.6887               759.2508
 Red. masses --      2.6950                 1.2627                 4.1359
 Frc consts  --      0.8216                 0.4181                 1.4047
 IR Inten    --      0.3117                 1.8384                 1.0646

                     13                     14                     15
                      A                      A                      A
 Frequencies --    829.1820               837.2669               849.7091
 Red. masses --      2.3167                 1.6321                 1.9200
 Frc consts  --      0.9385                 0.6741                 0.8168
 IR Inten    --      0.5191                 0.0902                 0.9208

                     16                     17                     18
                      A                      A                      A
 Frequencies --    850.7645               884.9995               911.7540
 Red. masses --      2.0431                 2.0348                 1.9958
 Frc consts  --      0.8713                 0.9390                 0.9775
 IR Inten    --      0.5511                 0.2572                 1.6275

                     19                     20                     21
                      A                      A                      A
 Frequencies --    916.2644               938.0502               964.9132
 Red. masses --      1.4903                 2.0269                 1.0807
 Frc consts  --      0.7372                 1.0508                 0.5928
 IR Inten    --      0.0339                 0.8776                 0.0686

                     22                     23                     24
                      A                      A                      A
 Frequencies --   1006.5889              1027.6820              1028.2918
 Red. masses --      3.2793                 2.7183                 1.2866
 Frc consts  --      1.9576                 1.6914                 0.8015
 IR Inten    --      1.9964                 0.8043                 0.0508

                     25                     26                     27
                      A                      A                      A
 Frequencies --   1049.2951              1079.5659              1111.1267
 Red. masses --      1.1095                 2.1244                 1.9973
 Frc consts  --      0.7198                 1.4588                 1.4528
 IR Inten    --      0.1571                 2.0387                 0.9254

                     28                     29                     30
                      A                      A                      A
 Frequencies --   1113.1958              1139.7038              1152.7992
 Red. masses --      1.2975                 2.0920                 2.3102
 Frc consts  --      0.9473                 1.6010                 1.8089
 IR Inten    --      0.8813                 1.7812                 1.0501

                     31                     32                     33
                      A                      A                      A
 Frequencies --   1156.9097              1157.3515              1177.3094
 Red. masses --      1.7299                 1.4744                 1.6030
 Frc consts  --      1.3642                 1.1636                 1.3090
 IR Inten    --      0.9289                 0.0058                 6.3219

                     34                     35                     36
                      A                      A                      A
 Frequencies --   1192.6335              1233.4947              1243.5420
 Red. masses --      1.6143                 1.6265                 1.5775
 Frc consts  --      1.3528                 1.4581                 1.4372
 IR Inten    --      4.2907                 5.7139                 9.8796

                     37                     38                     39
                      A                      A                      A
 Frequencies --   1288.5491              1292.1515              1311.9439
 Red. masses --      1.3300                 1.5951                 1.6461
 Frc consts  --      1.3011                 1.5692                 1.6693
 IR Inten    --      0.4327                 4.2651                 0.4356

                     40                     41                     42
                      A                      A                      A
 Frequencies --   1320.1835              1339.7538              1383.6015
 Red. masses --      1.7923                 1.1115                 1.6974
 Frc consts  --      1.8404                 1.1755                 1.9145
 IR Inten    --      0.4213                 0.7002                 5.4821

                     43                     44                     45
                      A                      A                      A
 Frequencies --   1409.7951              1428.6323              1478.7602
 Red. masses --      1.2660                 1.3936                 1.0792
 Frc consts  --      1.4825                 1.6758                 1.3904
 IR Inten    --      0.8997                14.3170                 0.7644

                     46                     47                     48
                      A                      A                      A
 Frequencies --   1493.7216              1499.5420              1510.3263
 Red. masses --      1.0516                 1.0405                 1.1321
 Frc consts  --      1.3824                 1.3785                 1.5215
 IR Inten    --      2.5826                 5.0388                 0.3842

                     49                     50                     51
                      A                      A                      A
 Frequencies --   1511.3154              2987.9510              3005.9658
 Red. masses --      1.0888                 1.0664                 1.0754
 Frc consts  --      1.4653                 5.6094                 5.7250
 IR Inten    --      1.8387                12.0013                74.0683

                     52                     53                     54
                      A                      A                      A
 Frequencies --   3020.4823              3025.8111              3027.7224
 Red. masses --      1.1000                 1.0492                 1.0454
 Frc consts  --      5.9127                 5.6598                 5.6463
 IR Inten    --     15.7044                 7.0830                89.6583

                     55                     56                     57
                      A                      A                      A
 Frequencies --   3031.5339              3061.9928              3081.3150
 Red. masses --      1.0542                 1.1025                 1.0861
 Frc consts  --      5.7084                 6.0900                 6.0754
 IR Inten    --     46.3984                 8.2298                 7.4013

                     58                     59                     60
                      A                      A                      A
 Frequencies --   3082.0213              3086.9434              3095.2596
 Red. masses --      1.0895                 1.1093                 1.1026
 Frc consts  --      6.0973                 6.2280                 6.2237
 IR Inten    --    100.7845                40.3724                65.6732

                     61                     62                     63
                      A                      A                      A
 Frequencies --   3096.1708              3099.2909              3125.4904
 Red. masses --      1.0930                 1.1008                 1.0927
 Frc consts  --      6.1734                 6.2302                 6.2888
 IR Inten    --     70.9332                35.1446                35.4261

 - Thermochemistry -
 -------------------
 Temperature   298.150 Kelvin.  Pressure   1.00000 Atm.
 Atom     1 has atomic number  6 and mass  12.00000

 Molecular mass:   122.10955 amu.
 Principal axes and moments of inertia in atomic units:
                           1         2         3
     Eigenvalues --   415.549621911.557422069.72295
           X            1.00000  -0.00147   0.00000
           Y            0.00147   1.00000   0.00000
           Z           -0.00000  -0.00000   1.00000
 This molecule is an asymmetric top.
 Rotational symmetry number  1.
 Rotational temperatures (Kelvin)      0.20843     0.04531     0.04185
 Rotational constants (GHZ):           4.34302     0.94412     0.87197
 Zero-point vibrational energy     542339.5 (Joules/Mol)
                                  129.62225 (Kcal/Mol)
 Warning -- explicit consideration of   8 degrees of freedom as
           vibrations may cause significant error
 Vibrational temperatures:    113.60   160.71   200.16   356.86   384.41
          (Kelvin)            385.06   463.82   615.84   909.58  1034.93
                             1078.63  1092.39  1193.01  1204.64  1222.54
                             1224.06  1273.32  1311.81  1318.30  1349.65
                             1388.29  1448.26  1478.61  1479.48  1509.70
                             1553.25  1598.66  1601.64  1639.78  1658.62
                             1664.54  1665.17  1693.89  1715.93  1774.72
                             1789.18  1853.93  1859.12  1887.59  1899.45
                             1927.61  1990.69  2028.38  2055.48  2127.61
                             2149.13  2157.51  2173.02  2174.45  4299.00
                             4324.91  4345.80  4353.47  4356.22  4361.70
                             4405.52  4433.33  4434.34  4441.42  4453.39
                             4454.70  4459.19  4496.88

 Zero-point correction=                           0.206566 (Hartree/Particle)
 Thermal correction to Energy=                    0.215043
 Thermal correction to Enthalpy=                  0.215988
 Thermal correction to Gibbs Free Energy=         0.173248
 Sum of electronic and zero-point Energies=           -351.081783
 Sum of electronic and thermal Energies=              -351.073306
 Sum of electronic and thermal Enthalpies=            -351.072362
 Sum of electronic and thermal Free Energies=         -351.115101

                     E (Thermal)             CV                S
                      KCal/Mol        Cal/Mol-Kelvin    Cal/Mol-Kelvin
 Total                  134.942             33.335             89.952
 Electronic               0.000              0.000              0.000
 Translational            0.889              2.981             40.313
 Rotational               0.889              2.981             28.888
 Vibrational            133.164             27.373             20.751
 Vibration     1          0.600              1.963              3.917
 Vibration     2          0.607              1.940              3.239
 Vibration     3          0.615              1.914              2.816
 Vibration     4          0.662              1.766              1.745
 Vibration     5          0.672              1.733              1.614
 Vibration     6          0.673              1.733              1.611
 Vibration     7          0.707              1.631              1.298
 Vibration     8          0.790              1.409              0.865

                           ! Non-Optimized Parameters !
 Normal termination of Gaussian 16 at Sun May 28 21:22:01 2023.
