 Gaussian 16, Revision A.03,
 Gaussian 16:  ES64L-G16RevA.03 25-Dec-2016

 -----------------------------
 # opt freq b3lyp/6-31g(2df,p)
 -----------------------------

 -------------------
 Title Card Required
 -------------------
 Symbolic Z-matrix:
 Charge =  0 Multiplicity = 1

 SCF Done:  E(RB3LYP) =  -850.092624399     A.U. after   14 cycles
 SCF Done:  E(RB3LYP) =  -850.109146991     A.U. after   14 cycles
 SCF Done:  E(RB3LYP) =  -850.111858302     A.U. after   12 cycles
 SCF Done:  E(RB3LYP) =  -850.110026534     A.U. after   13 cycles
 SCF Done:  E(RB3LYP) =  -850.113379367     A.U. after   13 cycles
 SCF Done:  E(RB3LYP) =  -850.113577723     A.U. after   11 cycles
 SCF Done:  E(RB3LYP) =  -850.113578810     A.U. after   11 cycles
 SCF Done:  E(RB3LYP) =  -850.114045077     A.U. after   11 cycles
 SCF Done:  E(RB3LYP) =  -850.114112049     A.U. after   11 cycles
 SCF Done:  E(RB3LYP) =  -850.114139454     A.U. after   11 cycles
 SCF Done:  E(RB3LYP) =  -850.114150851     A.U. after    9 cycles
 SCF Done:  E(RB3LYP) =  -850.114159937     A.U. after   10 cycles
 SCF Done:  E(RB3LYP) =  -850.114165712     A.U. after   10 cycles
 SCF Done:  E(RB3LYP) =  -850.114167740     A.U. after   10 cycles
 SCF Done:  E(RB3LYP) =  -850.114167834     A.U. after    7 cycles
 SCF Done:  E(RB3LYP) =  -850.114167908     A.U. after    7 cycles
 SCF Done:  E(RB3LYP) =  -850.114167937     A.U. after    7 cycles
 SCF Done:  E(RB3LYP) =  -850.114167954     A.U. after    7 cycles
 Optimization completed.
    -- Stationary point found.
 Normal termination of Gaussian 16 at Mon May 22 18:14:54 2023.

 ----------------------------------------------------------------------
 #N Geom=AllCheck Guess=TCheck SCRF=Check GenChk RB3LYP/6-31G(2df,p) Fr
 eq
 ----------------------------------------------------------------------

 Structure from the checkpoint file:  "CCCCCqCrOCCCqCCdOrCqdOrOCC.chk"
 -------------------
 Title Card Required
 -------------------
 Charge =  0 Multiplicity = 1

                         Standard orientation:
 ---------------------------------------------------------------------
 Center     Atomic      Atomic             Coordinates (Angstroms)
 Number     Number       Type             X           Y           Z
 ---------------------------------------------------------------------
      1          6           0        7.617341   -1.094461    0.718278
      2          6           0        6.231134   -1.432923    0.163793
      3          6           0        5.224583   -0.286224    0.315391
      4          6           0        3.841347   -0.630175   -0.246690
      5          6           0        2.768554    0.438468   -0.017830
      6          6           0        3.053173    1.751562   -0.752189
      7          8           0        1.542103   -0.145748   -0.454089
      8          6           0        0.370819    0.450325    0.057124
      9          6           0       -0.814369   -0.354305   -0.467606
     10          6           0       -2.172380    0.065415    0.112256
     11          6           0       -2.617873    1.497300   -0.282392
     12          6           0       -1.986911    2.585793    0.557900
     13          8           0       -1.517596    3.607733    0.130033
     14          6           0       -3.247213   -0.938836   -0.298842
     15          8           0       -3.106261   -1.828795   -1.098074
     16          8           0       -4.399827   -0.704209    0.361826
     17          6           0       -5.498768   -1.585329    0.046709
     18          6           0       -6.687517   -1.155769    0.883954
     19          1           0        8.312299   -1.931306    0.596907
     20          1           0        7.568995   -0.854435    1.786434
     21          1           0        8.048367   -0.227188    0.205564
     22          1           0        5.840381   -2.325510    0.669829
     23          1           0        6.315421   -1.700668   -0.897722
     24          1           0        5.625458    0.605642   -0.183044
     25          1           0        5.134444   -0.024520    1.379493
     26          1           0        3.478794   -1.558038    0.211428
     27          1           0        3.911337   -0.826123   -1.324700
     28          1           0        2.697807    0.641214    1.065498
     29          1           0        3.144892    1.569404   -1.828009
     30          1           0        3.982845    2.204826   -0.396246
     31          1           0        2.254965    2.482392   -0.595284
     32          1           0        0.296403    1.503829   -0.248600
     33          1           0        0.386460    0.435088    1.162624
     34          1           0       -0.639482   -1.408994   -0.237122
     35          1           0       -0.845383   -0.284892   -1.559717
     36          1           0       -2.135114    0.026568    1.211044
     37          1           0       -3.698663    1.581278   -0.106662
     38          1           0       -2.428592    1.703394   -1.339787
     39          1           0       -2.012766    2.380923    1.655332
     40          1           0       -5.195489   -2.614881    0.260328
     41          1           0       -5.705939   -1.521729   -1.026024
     42          1           0       -6.459142   -1.223018    1.951329
     43          1           0       -7.542336   -1.805041    0.673147
     44          1           0       -6.974838   -0.125099    0.657258
 ---------------------------------------------------------------------

 SCF Done:  E(RB3LYP) =  -850.114167954     A.U. after    1 cycles

 The electronic state is 1-A.
 Alpha  occ. eigenvalues --  -19.18774 -19.14596 -19.13177 -19.13144 -10.30953
 Alpha  occ. eigenvalues --  -10.27914 -10.24710 -10.22685 -10.22610 -10.21777
 Alpha  occ. eigenvalues --  -10.20535 -10.19180 -10.18416 -10.17636 -10.17596
 Alpha  occ. eigenvalues --  -10.17133 -10.16998 -10.16884  -1.10672  -1.05332
 Alpha  occ. eigenvalues --   -1.02542  -1.01953  -0.83279  -0.80237  -0.77952
 Alpha  occ. eigenvalues --   -0.76646  -0.73627  -0.70422  -0.69376  -0.65291
 Alpha  occ. eigenvalues --   -0.63195  -0.59716  -0.58650  -0.57907  -0.56838
 Alpha  occ. eigenvalues --   -0.56039  -0.51060  -0.50275  -0.49504  -0.47965
 Alpha  occ. eigenvalues --   -0.47518  -0.46765  -0.46508  -0.45309  -0.44553
 Alpha  occ. eigenvalues --   -0.43189  -0.42324  -0.42094  -0.41486  -0.40677
 Alpha  occ. eigenvalues --   -0.40451  -0.39679  -0.39030  -0.38858  -0.37865
 Alpha  occ. eigenvalues --   -0.37482  -0.36655  -0.35989  -0.35713  -0.35179
 Alpha  occ. eigenvalues --   -0.34538  -0.33908  -0.33100  -0.32692  -0.31858
 Alpha  occ. eigenvalues --   -0.31629  -0.30571  -0.29971  -0.27907  -0.25560
 Alpha  occ. eigenvalues --   -0.24861
 Alpha virt. eigenvalues --   -0.02927   0.00789   0.08289   0.08758   0.09524
 Alpha virt. eigenvalues --    0.10007   0.10338   0.11820   0.12039   0.12355
 Alpha virt. eigenvalues --    0.12742   0.13635   0.13740   0.14406   0.14726

 Mulliken charges:
               1
     1  C   -0.381229
     2  C   -0.161818
     3  C   -0.170519
     4  C   -0.192770
     5  C    0.133759
     6  C   -0.403645
     7  O   -0.262594
     8  C   -0.099251
     9  C   -0.188595
    10  C   -0.171869
    11  C   -0.286664
    12  C    0.165799
    13  O   -0.243250
    14  C    0.453750
    15  O   -0.353687
    16  O   -0.253733
    17  C   -0.045630
    18  C   -0.392813
    19  H    0.110999
    20  H    0.112379
    21  H    0.112983
    22  H    0.094992
    23  H    0.095977
    24  H    0.096421
    25  H    0.089981
    26  H    0.097907
    27  H    0.099772
    28  H    0.059268
    29  H    0.120372
    30  H    0.118315
    31  H    0.125289
    32  H    0.108654
    33  H    0.076425
    34  H    0.122625
    35  H    0.121858
    36  H    0.103708
    37  H    0.142522
    38  H    0.131368
    39  H    0.074962
    40  H    0.125576
    41  H    0.124901
    42  H    0.130931
    43  H    0.127056
    44  H    0.129518
 Sum of Mulliken charges =  -0.00000

 Dipole moment (field-independent basis, Debye):
    X=             -1.8836    Y=             -0.7199    Z=              2.0204  Tot=              2.8545
 Quadrupole moment (field-independent basis, Debye-Ang):
   XX=            -89.7475   YY=           -124.8767   ZZ=           -111.1092
   XY=              2.8013   XZ=             -3.6217   YZ=             -3.2802

  Exact polarizability: 210.394   5.346 159.348  -2.562   2.192 137.429
 Approx polarizability: 230.027   7.697 237.119  -6.894   6.054 222.335

                      1                      2                      3
                      A                      A                      A
 Frequencies --     11.1594                15.9005                27.0208
 Red. masses --      3.4207                 3.8924                 4.0661
 Frc consts  --      0.0003                 0.0006                 0.0017
 IR Inten    --      0.7136                 0.6737                 0.3543

                      4                      5                      6
                      A                      A                      A
 Frequencies --     35.9634                44.1562                58.3440
 Red. masses --      2.8163                 2.5166                 3.3176
 Frc consts  --      0.0021                 0.0029                 0.0067
 IR Inten    --      0.8363                 6.0219                 0.3690

                      7                      8                      9
                      A                      A                      A
 Frequencies --     60.0817                67.7609                76.0324
 Red. masses --      3.3255                 3.6886                 2.2686
 Frc consts  --      0.0071                 0.0100                 0.0077
 IR Inten    --      0.4042                 2.1376                 0.4072

                     10                     11                     12
                      A                      A                      A
 Frequencies --     87.4703                98.2637               113.7413
 Red. masses --      2.3224                 3.1606                 2.4405
 Frc consts  --      0.0105                 0.0180                 0.0186
 IR Inten    --      0.6317                 0.3210                 3.2386

                     13                     14                     15
                      A                      A                      A
 Frequencies --    126.8051               139.5736               157.7522
 Red. masses --      2.7801                 1.9541                 3.5840
 Frc consts  --      0.0263                 0.0224                 0.0525
 IR Inten    --      1.1589                 0.8350                 1.1702

                     16                     17                     18
                      A                      A                      A
 Frequencies --    168.3664               203.8919               233.6661
 Red. masses --      3.4894                 2.6560                 1.3747
 Frc consts  --      0.0583                 0.0651                 0.0442
 IR Inten    --      2.4357                 4.9446                 0.8545

                     19                     20                     21
                      A                      A                      A
 Frequencies --    243.3050               249.7878               267.9633
 Red. masses --      1.6498                 1.2988                 1.7372
 Frc consts  --      0.0575                 0.0477                 0.0735
 IR Inten    --      1.9175                 1.3683                 1.7468

                     22                     23                     24
                      A                      A                      A
 Frequencies --    291.2487               299.7510               340.0705
 Red. masses --      3.3169                 3.0381                 2.8389
 Frc consts  --      0.1658                 0.1608                 0.1934
 IR Inten    --      2.2676                 0.1944                 2.5198

                     25                     26                     27
                      A                      A                      A
 Frequencies --    346.3211               372.4190               395.3683
 Red. masses --      4.6866                 3.1840                 3.2008
 Frc consts  --      0.3312                 0.2602                 0.2948
 IR Inten    --      7.9863                 0.5260                 9.3066

                     28                     29                     30
                      A                      A                      A
 Frequencies --    438.2908               466.8246               498.8607
 Red. masses --      2.5594                 2.9645                 3.4596
 Frc consts  --      0.2897                 0.3806                 0.5073
 IR Inten    --      2.3975                 6.6869                 6.9106

                     31                     32                     33
                      A                      A                      A
 Frequencies --    533.4024               556.7678               691.1548
 Red. masses --      2.7765                 2.9540                 3.2832
 Frc consts  --      0.4654                 0.5395                 0.9241
 IR Inten    --      1.4866                 6.3122                10.4354

                     34                     35                     36
                      A                      A                      A
 Frequencies --    736.6133               752.6973               786.5250
 Red. masses --      1.0802                 2.9091                 1.4547
 Frc consts  --      0.3453                 0.9711                 0.5302
 IR Inten    --      2.8971                 0.3065                 2.2927

                     37                     38                     39
                      A                      A                      A
 Frequencies --    790.4935               803.2983               812.1564
 Red. masses --      1.2258                 1.3459                 1.5704
 Frc consts  --      0.4513                 0.5117                 0.6103
 IR Inten    --      0.2996                 2.8417                 1.6927

                     40                     41                     42
                      A                      A                      A
 Frequencies --    852.8859               880.3219               902.7588
 Red. masses --      2.2108                 2.5037                 1.8383
 Frc consts  --      0.9475                 1.1432                 0.8827
 IR Inten    --      1.9169                10.7538                 1.4423

                     43                     44                     45
                      A                      A                      A
 Frequencies --    916.6537               920.3542               946.4593
 Red. masses --      1.4678                 2.0943                 2.6429
 Frc consts  --      0.7267                 1.0452                 1.3948
 IR Inten    --      3.4047                 7.5639                 8.4405

                     46                     47                     48
                      A                      A                      A
 Frequencies --    963.8801               991.8250              1014.2470
 Red. masses --      2.5793                 1.5677                 1.3628
 Frc consts  --      1.4119                 0.9086                 0.8260
 IR Inten    --      6.0445                 5.7873                 0.3366

                     49                     50                     51
                      A                      A                      A
 Frequencies --   1029.2996              1046.4073              1053.9062
 Red. masses --      2.5470                 2.5468                 2.6349
 Frc consts  --      1.5899                 1.6430                 1.7243
 IR Inten    --      3.0212                 8.9866                41.5852

                     52                     53                     54
                      A                      A                      A
 Frequencies --   1058.4927              1067.8700              1092.8181
 Red. masses --      2.7390                 2.3919                 2.7717
 Frc consts  --      1.8081                 1.6070                 1.9502
 IR Inten    --     59.6579                 0.4138                21.5315

                     55                     56                     57
                      A                      A                      A
 Frequencies --   1113.1824              1123.5531              1136.1322
 Red. masses --      2.9808                 2.8534                 2.2625
 Frc consts  --      2.1763                 2.1222                 1.7207
 IR Inten    --     15.3569                63.1049                15.5999

                     58                     59                     60
                      A                      A                      A
 Frequencies --   1143.2197              1152.8900              1156.7760
 Red. masses --      2.5725                 3.1294                 2.4629
 Frc consts  --      1.9809                 2.4507                 1.9417
 IR Inten    --    216.4619                50.6299                29.7582

                     61                     62                     63
                      A                      A                      A
 Frequencies --   1182.7187              1197.3622              1203.6704
 Red. masses --      1.5638                 2.0808                 1.9618
 Frc consts  --      1.2888                 1.7576                 1.6746
 IR Inten    --      3.6605               232.0071                98.1162

                     64                     65                     66
                      A                      A                      A
 Frequencies --   1210.1363              1249.7804              1268.0891
 Red. masses --      1.4979                 1.4637                 1.2421
 Frc consts  --      1.2925                 1.3470                 1.1768
 IR Inten    --      5.0163                 3.0213                 7.6309

                     67                     68                     69
                      A                      A                      A
 Frequencies --   1275.6894              1276.3352              1291.7945
 Red. masses --      1.2842                 1.4268                 1.0982
 Frc consts  --      1.2313                 1.3695                 1.0798
 IR Inten    --      4.0355               101.5466                 1.8822

                     70                     71                     72
                      A                      A                      A
 Frequencies --   1297.0797              1310.8473              1314.4458
 Red. masses --      1.4823                 1.1963                 1.1222
 Frc consts  --      1.4693                 1.2112                 1.1424
 IR Inten    --     87.0204                 1.2813                13.3330

                     73                     74                     75
                      A                      A                      A
 Frequencies --   1332.3938              1347.5002              1350.0403
 Red. masses --      1.0649                 1.2844                 1.3890
 Frc consts  --      1.1139                 1.3740                 1.4915
 IR Inten    --      1.3053                11.9470                 1.7892

                     76                     77                     78
                      A                      A                      A
 Frequencies --   1370.2922              1380.5294              1385.3445
 Red. masses --      1.3620                 1.3876                 1.4876
 Frc consts  --      1.5068                 1.5582                 1.6821
 IR Inten    --     51.9351                 5.3994                10.0922

                     79                     80                     81
                      A                      A                      A
 Frequencies --   1398.4769              1399.9323              1408.6175
 Red. masses --      1.3656                 1.5811                 1.2810
 Frc consts  --      1.5735                 1.8257                 1.4976
 IR Inten    --      3.9641                 1.1060                19.8526

                     82                     83                     84
                      A                      A                      A
 Frequencies --   1413.6944              1422.6998              1426.3560
 Red. masses --      1.2537                 1.4201                 1.1856
 Frc consts  --      1.4762                 1.6936                 1.4212
 IR Inten    --      3.9487                 5.1740                 3.9249

                     85                     86                     87
                      A                      A                      A
 Frequencies --   1446.6460              1456.1704              1480.5348
 Red. masses --      1.4362                 1.0935                 1.0724
 Frc consts  --      1.7708                 1.3661                 1.3849
 IR Inten    --      4.8541                 5.5547                 0.0092

                     88                     89                     90
                      A                      A                      A
 Frequencies --   1486.2240              1486.5600              1489.3835
 Red. masses --      1.0398                 1.0639                 1.0823
 Frc consts  --      1.3532                 1.3853                 1.4145
 IR Inten    --      5.2675                 0.7808                 4.0011

                     91                     92                     93
                      A                      A                      A
 Frequencies --   1493.6705              1496.1013              1498.0055
 Red. masses --      1.0640                 1.0468                 1.0596
 Frc consts  --      1.3986                 1.3805                 1.4009
 IR Inten    --      2.1793                 2.4690                 2.1885

                     94                     95                     96
                      A                      A                      A
 Frequencies --   1499.9250              1503.8047              1513.6991
 Red. masses --      1.0406                 1.0658                 1.0911
 Frc consts  --      1.3794                 1.4201                 1.4729
 IR Inten    --      5.0669                 1.4998                 3.7050

                     97                     98                     99
                      A                      A                      A
 Frequencies --   1519.8934              1532.2336              1818.2226
 Red. masses --      1.0854                 1.0856                12.0746
 Frc consts  --      1.4772                 1.5016                23.5189
 IR Inten    --      5.2470                 4.0165               208.2721

                    100                    101                    102
                      A                      A                      A
 Frequencies --   1833.6921              2844.2664              2932.6900
 Red. masses --     10.3266                 1.0814                 1.0701
 Frc consts  --     20.4578                 5.1546                 5.4226
 IR Inten    --    161.5631                84.0925                28.6976

                    103                    104                    105
                      A                      A                      A
 Frequencies --   2945.7040              3003.4927              3003.6233
 Red. masses --      1.0808                 1.0788                 1.0630
 Frc consts  --      5.5253                 5.7337                 5.6503
 IR Inten    --     57.8346                 9.5369                10.2072

                    106                    107                    108
                      A                      A                      A
 Frequencies --   3012.4305              3014.9657              3025.5631
 Red. masses --      1.0870                 1.0600                 1.0588
 Frc consts  --      5.8117                 5.6771                 5.7103
 IR Inten    --     25.9255                12.0487                39.3308

                    109                    110                    111
                      A                      A                      A
 Frequencies --   3027.9493              3030.8006              3032.7821
 Red. masses --      1.0388                 1.0616                 1.0910
 Frc consts  --      5.6117                 5.7457                 5.9124
 IR Inten    --     45.5463                 8.8343                 4.7854

                    112                    113                    114
                      A                      A                      A
 Frequencies --   3041.1615              3046.1921              3050.8998
 Red. masses --      1.0392                 1.0351                 1.1018
 Frc consts  --      5.6630                 5.6592                 6.0426
 IR Inten    --     11.9760                15.1205                 6.6398

                    115                    116                    117
                      A                      A                      A
 Frequencies --   3053.3607              3060.3822              3072.5710
 Red. masses --      1.0575                 1.0604                 1.1034
 Frc consts  --      5.8087                 5.8516                 6.1372
 IR Inten    --     16.3505                11.8174                49.9545

                    118                    119                    120
                      A                      A                      A
 Frequencies --   3091.3355              3094.2718              3100.1336
 Red. masses --      1.1064                 1.1021                 1.1009
 Frc consts  --      6.2297                 6.2172                 6.2337
 IR Inten    --      5.6523                62.6319                39.1004

                    121                    122                    123
                      A                      A                      A
 Frequencies --   3101.5673              3105.0282              3113.4969
 Red. masses --      1.1000                 1.1020                 1.1014
 Frc consts  --      6.2348                 6.2596                 6.2904
 IR Inten    --      4.2584                22.7250                26.1858

                    124                    125                    126
                      A                      A                      A
 Frequencies --   3114.8248              3121.0939              3126.0701
 Red. masses --      1.1003                 1.1010                 1.1042
 Frc consts  --      6.2899                 6.3193                 6.3574
 IR Inten    --     33.2150                21.8219                31.2310

 - Thermochemistry -
 -------------------
 Temperature   298.150 Kelvin.  Pressure   1.00000 Atm.
 Atom     1 has atomic number  6 and mass  12.00000

 Molecular mass:   258.18311 amu.
 Principal axes and moments of inertia in atomic units:
                           1         2         3
     Eigenvalues --  2390.77892********************
           X            1.00000  -0.00047  -0.00086
           Y            0.00046   0.99990  -0.01420
           Z            0.00087   0.01420   0.99990
 This molecule is an asymmetric top.
 Rotational symmetry number  1.
 Warning -- assumption of classical behavior for rotation
           may cause significant error
 Rotational temperatures (Kelvin)      0.03623     0.00558     0.00501
 Rotational constants (GHZ):           0.75488     0.11626     0.10439
 Zero-point vibrational energy    1013227.8 (Joules/Mol)
                                  242.16725 (Kcal/Mol)
 Warning -- explicit consideration of  32 degrees of freedom as
           vibrations may cause significant error
 Vibrational temperatures:     16.06    22.88    38.88    51.74    63.53
          (Kelvin)             83.94    86.44    97.49   109.39   125.85
                              141.38   163.65   182.44   200.82   226.97
                              242.24   293.35   336.19   350.06   359.39
                              385.54   419.04   431.27   489.29   498.28
                              535.83   568.85   630.60   671.66   717.75
                              767.45   801.06   994.42  1059.82  1082.96
                             1131.63  1137.34  1155.77  1168.51  1227.11
                             1266.59  1298.87  1318.86  1324.18  1361.74
                             1386.81  1427.01  1459.28  1480.93  1505.55
                             1516.34  1522.93  1536.43  1572.32  1601.62
                             1616.54  1634.64  1644.84  1658.75  1664.34
                             1701.67  1722.74  1731.81  1741.12  1798.16
                             1824.50  1835.43  1836.36  1858.60  1866.21
                             1886.02  1891.19  1917.02  1938.75  1942.41
                             1971.54  1986.27  1993.20  2012.10  2014.19
                             2026.69  2033.99  2046.95  2052.21  2081.40
                             2095.10  2130.16  2138.34  2138.83  2142.89
                             2149.06  2152.56  2155.30  2158.06  2163.64
                             2177.88  2186.79  2204.54  2616.02  2638.27
                             4092.26  4219.49  4238.21  4321.36  4321.54
                             4334.22  4337.86  4353.11  4356.54  4360.65
                             4363.50  4375.55  4382.79  4389.56  4393.10
                             4403.21  4420.74  4447.74  4451.97  4460.40
                             4462.46  4467.44  4479.63  4481.54  4490.56
                             4497.72

 Zero-point correction=                           0.385918 (Hartree/Particle)
 Thermal correction to Energy=                    0.408762
 Thermal correction to Enthalpy=                  0.409706
 Thermal correction to Gibbs Free Energy=         0.328294
 Sum of electronic and zero-point Energies=           -849.728250
 Sum of electronic and thermal Energies=              -849.705406
 Sum of electronic and thermal Enthalpies=            -849.704462
 Sum of electronic and thermal Free Energies=         -849.785874

                     E (Thermal)             CV                S
                      KCal/Mol        Cal/Mol-Kelvin    Cal/Mol-Kelvin
 Total                  256.502             78.976            171.345
 Electronic               0.000              0.000              0.000
 Translational            0.889              2.981             42.545
 Rotational               0.889              2.981             34.816
 Vibrational            254.724             73.014             93.983
 Vibration     1          0.593              1.987              7.793
 Vibration     2          0.593              1.986              7.090
 Vibration     3          0.593              1.984              6.037
 Vibration     4          0.594              1.982              5.470
 Vibration     5          0.595              1.980              5.063
 Vibration     6          0.596              1.974              4.512
 Vibration     7          0.597              1.973              4.455
 Vibration     8          0.598              1.970              4.217
 Vibration     9          0.599              1.965              3.991
 Vibration    10          0.601              1.958              3.716
 Vibration    11          0.604              1.950              3.488
 Vibration    12          0.607              1.938              3.204
 Vibration    13          0.611              1.926              2.994
 Vibration    14          0.615              1.914              2.810
 Vibration    15          0.621              1.894              2.577
 Vibration    16          0.625              1.881              2.454
 Vibration    17          0.640              1.834              2.098
 Vibration    18          0.654              1.789              1.851
 Vibration    19          0.659              1.774              1.779
 Vibration    20          0.663              1.763              1.732
 Vibration    21          0.673              1.732              1.609
 Vibration    22          0.687              1.690              1.467
 Vibration    23          0.692              1.674              1.418
 Vibration    24          0.720              1.595              1.212
 Vibration    25          0.724              1.583              1.183
 Vibration    26          0.744              1.529              1.070
 Vibration    27          0.762              1.480              0.980
 Vibration    28          0.798              1.387              0.832
 Vibration    29          0.824              1.324              0.746
 Vibration    30          0.854              1.253              0.661
 Vibration    31          0.888              1.176              0.580
 Vibration    32          0.912              1.125              0.530

                           ! Non-Optimized Parameters !
 Normal termination of Gaussian 16 at Mon May 22 22:33:03 2023.
