 Gaussian 16, Revision A.03,
 Gaussian 16:  ES64L-G16RevA.03 25-Dec-2016

 -----------------------------
 # opt freq b3lyp/6-31g(2df,p)
 -----------------------------

 -------------------
 Title Card Required
 -------------------
 Symbolic Z-matrix:
 Charge =  0 Multiplicity = 1

 SCF Done:  E(RB3LYP) =  -314.490433513     A.U. after   12 cycles
 SCF Done:  E(RB3LYP) =  -314.496574136     A.U. after    9 cycles
 SCF Done:  E(RB3LYP) =  -314.496821994     A.U. after    8 cycles
 SCF Done:  E(RB3LYP) =  -314.496845539     A.U. after    8 cycles
 SCF Done:  E(RB3LYP) =  -314.496847436     A.U. after    7 cycles
 SCF Done:  E(RB3LYP) =  -314.496847623     A.U. after    6 cycles
 Optimization completed.
    -- Stationary point found.
 Normal termination of Gaussian 16 at Sun May 28 16:12:20 2023.

 ----------------------------------------------------------------------
 #N Geom=AllCheck Guess=TCheck SCRF=Check GenChk RB3LYP/6-31G(2df,p) Fr
 eq
 ----------------------------------------------------------------------

 Structure from the checkpoint file:  "CCCCC1CCC1.chk"
 -------------------
 Title Card Required
 -------------------
 Charge =  0 Multiplicity = 1

                         Standard orientation:
 ---------------------------------------------------------------------
 Center     Atomic      Atomic             Coordinates (Angstroms)
 Number     Number       Type             X           Y           Z
 ---------------------------------------------------------------------
      1          6           0       -3.874701    0.457459    0.071697
      2          6           0       -2.670853   -0.414088   -0.296141
      3          6           0       -1.343920    0.127561    0.246397
      4          6           0       -0.132871   -0.740209   -0.116075
      5          6           0        1.187211   -0.195032    0.411919
      6          6           0        2.512704   -0.910342    0.022975
      7          6           0        3.187318    0.482320   -0.099684
      8          6           0        1.772770    1.114034   -0.197035
      9          1           0       -4.806112    0.045156   -0.329171
     10          1           0       -3.763363    1.473475   -0.323507
     11          1           0       -3.987447    0.538416    1.158724
     12          1           0       -2.604249   -0.505123   -1.388549
     13          1           0       -2.826632   -1.433363    0.081989
     14          1           0       -1.410083    0.219624    1.339836
     15          1           0       -1.187579    1.147212   -0.132243
     16          1           0       -0.068326   -0.837636   -1.209549
     17          1           0       -0.285597   -1.758173    0.270411
     18          1           0        1.132545   -0.095246    1.503554
     19          1           0        2.423401   -1.401456   -0.952139
     20          1           0        2.935287   -1.626549    0.732569
     21          1           0        3.875008    0.643343   -0.933370
     22          1           0        3.695114    0.768737    0.826013
     23          1           0        1.458453    1.237140   -1.239519
     24          1           0        1.593633    2.054235    0.330636
 ---------------------------------------------------------------------

 SCF Done:  E(RB3LYP) =  -314.496847623     A.U. after    1 cycles

 The electronic state is 1-A.
 Alpha  occ. eigenvalues --  -10.17767 -10.17445 -10.17397 -10.17207 -10.17206
 Alpha  occ. eigenvalues --  -10.17167 -10.17079 -10.16870  -0.83744  -0.78715
 Alpha  occ. eigenvalues --   -0.72813  -0.65594  -0.64782  -0.59720  -0.57049
 Alpha  occ. eigenvalues --   -0.53741  -0.47514  -0.45956  -0.45146  -0.42081
 Alpha  occ. eigenvalues --   -0.41148  -0.38699  -0.37704  -0.36456  -0.35236
 Alpha  occ. eigenvalues --   -0.34278  -0.32645  -0.32091  -0.31794  -0.30461
 Alpha  occ. eigenvalues --   -0.28950  -0.28178
 Alpha virt. eigenvalues --    0.08921   0.10010   0.10453   0.11668   0.12992
 Alpha virt. eigenvalues --    0.13634   0.14089   0.16020   0.17601   0.18012
 Alpha virt. eigenvalues --    0.18622   0.18859   0.19523   0.19838   0.20074

 Mulliken charges:
               1
     1  C   -0.379554
     2  C   -0.162006
     3  C   -0.156070
     4  C   -0.211380
     5  C    0.064707
     6  C   -0.236097
     7  C   -0.210317
     8  C   -0.214767
     9  H    0.109449
    10  H    0.112418
    11  H    0.112221
    12  H    0.092728
    13  H    0.092652
    14  H    0.088857
    15  H    0.094735
    16  H    0.085219
    17  H    0.088885
    18  H    0.064287
    19  H    0.094786
    20  H    0.091025
    21  H    0.093034
    22  H    0.099298
    23  H    0.094092
    24  H    0.091799
 Sum of Mulliken charges =   0.00000

 Dipole moment (field-independent basis, Debye):
    X=             -0.0496    Y=             -0.0342    Z=              0.0528  Tot=              0.0801
 Quadrupole moment (field-independent basis, Debye-Ang):
   XX=            -54.3014   YY=            -53.4134   ZZ=            -51.9383
   XY=              0.2696   XZ=              0.2625   YZ=             -0.1662

  Exact polarizability: 103.923  -0.339  79.941  -0.160   0.105  75.303
 Approx polarizability: 117.652   0.253 116.005  -0.081  -0.311 116.683

                      1                      2                      3
                      A                      A                      A
 Frequencies --     61.9252                77.3525               100.2558
 Red. masses --      2.7348                 1.7027                 2.6489
 Frc consts  --      0.0062                 0.0060                 0.0157
 IR Inten    --      0.0077                 0.0036                 0.0072

                      4                      5                      6
                      A                      A                      A
 Frequencies --    136.5033               168.6517               244.9303
 Red. masses --      2.2349                 1.8681                 1.1398
 Frc consts  --      0.0245                 0.0313                 0.0403
 IR Inten    --      0.0137                 0.0133                 0.0009

                      7                      8                      9
                      A                      A                      A
 Frequencies --    269.5627               308.8104               410.7817
 Red. masses --      2.4222                 3.4125                 2.0696
 Frc consts  --      0.1037                 0.1917                 0.2058
 IR Inten    --      0.0061                 0.0429                 0.0960

                     10                     11                     12
                      A                      A                      A
 Frequencies --    458.7730               634.9359               735.1661
 Red. masses --      2.3903                 1.9893                 1.0834
 Frc consts  --      0.2964                 0.4725                 0.3450
 IR Inten    --      0.1179                 1.8878                 2.8081

                     13                     14                     15
                      A                      A                      A
 Frequencies --    762.1136               785.3626               794.3073
 Red. masses --      1.5053                 1.2847                 1.1807
 Frc consts  --      0.5151                 0.4669                 0.4389
 IR Inten    --      0.2330                 0.4671                 0.3908

                     16                     17                     18
                      A                      A                      A
 Frequencies --    892.3975               897.9380               913.3766
 Red. masses --      1.9953                 1.9072                 1.4289
 Frc consts  --      0.9362                 0.9060                 0.7024
 IR Inten    --      0.4875                 1.6330                 0.2499

                     19                     20                     21
                      A                      A                      A
 Frequencies --    934.0363               957.5562               974.6145
 Red. masses --      2.2690                 1.3924                 2.3860
 Frc consts  --      1.1663                 0.7522                 1.3353
 IR Inten    --      1.3152                 0.5930                 0.2751

                     22                     23                     24
                      A                      A                      A
 Frequencies --   1010.6017              1019.1449              1056.4160
 Red. masses --      1.8583                 1.9467                 1.7347
 Frc consts  --      1.1182                 1.1913                 1.1407
 IR Inten    --      0.0670                 0.0132                 0.4423

                     25                     26                     27
                      A                      A                      A
 Frequencies --   1069.9134              1116.5170              1139.2456
 Red. masses --      2.0638                 2.4759                 2.1206
 Frc consts  --      1.3919                 1.8185                 1.6216
 IR Inten    --      0.6087                 1.3540                 0.4156

                     28                     29                     30
                      A                      A                      A
 Frequencies --   1191.9273              1202.7173              1231.6460
 Red. masses --      2.0980                 1.4042                 1.4677
 Frc consts  --      1.7561                 1.1967                 1.3118
 IR Inten    --      0.3759                 0.6325                 0.5893

                     31                     32                     33
                      A                      A                      A
 Frequencies --   1255.1896              1257.4804              1263.0225
 Red. masses --      1.2027                 1.2971                 1.3486
 Frc consts  --      1.1165                 1.2084                 1.2675
 IR Inten    --      0.3454                 0.4122                 1.2317

                     34                     35                     36
                      A                      A                      A
 Frequencies --   1268.2469              1287.0784              1299.7145
 Red. masses --      1.3234                 1.4117                 1.3810
 Frc consts  --      1.2542                 1.3779                 1.3745
 IR Inten    --      1.8097                 1.8718                 2.8688

                     37                     38                     39
                      A                      A                      A
 Frequencies --   1320.7865              1332.1585              1354.9669
 Red. masses --      1.2281                 1.0660                 1.3710
 Frc consts  --      1.2623                 1.1146                 1.4830
 IR Inten    --      0.1673                 0.4569                 1.6296

                     40                     41                     42
                      A                      A                      A
 Frequencies --   1389.4721              1399.7582              1413.1676
 Red. masses --      1.4910                 1.6320                 1.2551
 Frc consts  --      1.6960                 1.8840                 1.4768
 IR Inten    --      5.3027                 0.9530                 0.5611

                     43                     44                     45
                      A                      A                      A
 Frequencies --   1477.3112              1480.9471              1485.3255
 Red. masses --      1.0875                 1.0797                 1.0724
 Frc consts  --      1.3984                 1.3952                 1.3940
 IR Inten    --      0.1162                 0.0634                 0.6957

                     46                     47                     48
                      A                      A                      A
 Frequencies --   1487.2379              1499.2041              1499.7092
 Red. masses --      1.0778                 1.0751                 1.0407
 Frc consts  --      1.4046                 1.4238                 1.3790
 IR Inten    --      2.2859                 0.2486                 4.9707

                     49                     50                     51
                      A                      A                      A
 Frequencies --   1510.1006              1513.1443              2994.6615
 Red. masses --      1.1251                 1.0988                 1.0582
 Frc consts  --      1.5117                 1.4822                 5.5911
 IR Inten    --      0.5424                 2.9593                 7.3770

                     52                     53                     54
                      A                      A                      A
 Frequencies --   3002.3285              3013.6902              3015.1566
 Red. masses --      1.0587                 1.0735                 1.0758
 Frc consts  --      5.6228                 5.7445                 5.7626
 IR Inten    --      8.7420                12.6244                45.9797

                     55                     56                     57
                      A                      A                      A
 Frequencies --   3023.5738              3027.6146              3035.7854
 Red. masses --      1.0922                 1.0363                 1.0979
 Frc consts  --      5.8830                 5.5965                 5.9614
 IR Inten    --      9.4203                39.1187                 6.7852

                     58                     59                     60
                      A                      A                      A
 Frequencies --   3039.6720              3044.9028              3054.8886
 Red. masses --      1.0609                 1.0614                 1.0620
 Frc consts  --      5.7753                 5.7980                 5.8392
 IR Inten    --     54.0964                21.3356                37.5537

                     61                     62                     63
                      A                      A                      A
 Frequencies --   3056.5881              3091.1945              3093.6478
 Red. masses --      1.1030                 1.1038                 1.1020
 Frc consts  --      6.0718                 6.2145                 6.2142
 IR Inten    --     76.7742                18.4469                56.4868

                     64                     65                     66
                      A                      A                      A
 Frequencies --   3095.5964              3098.9999              3112.7046
 Red. masses --      1.1059                 1.1009                 1.1074
 Frc consts  --      6.2436                 6.2296                 6.3215
 IR Inten    --     27.3761                39.8270                74.1040

 - Thermochemistry -
 -------------------
 Temperature   298.150 Kelvin.  Pressure   1.00000 Atm.
 Atom     1 has atomic number  6 and mass  12.00000

 Molecular mass:   112.12520 amu.
 Principal axes and moments of inertia in atomic units:
                           1         2         3
     Eigenvalues --   283.436262427.476512578.97550
           X            1.00000  -0.00253  -0.00073
           Y            0.00254   0.99991   0.01348
           Z            0.00070  -0.01348   0.99991
 This molecule is an asymmetric top.
 Rotational symmetry number  1.
 Rotational temperatures (Kelvin)      0.30559     0.03568     0.03358
 Rotational constants (GHZ):           6.36736     0.74346     0.69979
 Zero-point vibrational energy     587082.4 (Joules/Mol)
                                  140.31605 (Kcal/Mol)
 Warning -- explicit consideration of  10 degrees of freedom as
           vibrations may cause significant error
 Vibrational temperatures:     89.10   111.29   144.25   196.40   242.65
          (Kelvin)            352.40   387.84   444.31   591.02   660.07
                              913.53  1057.74  1096.51  1129.96  1142.83
                             1283.96  1291.93  1314.15  1343.87  1377.71
                             1402.25  1454.03  1466.32  1519.95  1539.37
                             1606.42  1639.12  1714.92  1730.44  1772.06
                             1805.94  1809.23  1817.21  1824.72  1851.82
                             1870.00  1900.32  1916.68  1949.50  1999.14
                             2013.94  2033.23  2125.52  2130.75  2137.05
                             2139.80  2157.02  2157.75  2172.70  2177.08
                             4308.65  4319.68  4336.03  4338.14  4350.25
                             4356.06  4367.82  4373.41  4380.94  4395.30
                             4397.75  4447.54  4451.07  4453.87  4458.77
                             4478.49

 Zero-point correction=                           0.223608 (Hartree/Particle)
 Thermal correction to Energy=                    0.233135
 Thermal correction to Enthalpy=                  0.234079
 Thermal correction to Gibbs Free Energy=         0.188657
 Sum of electronic and zero-point Energies=           -314.273240
 Sum of electronic and thermal Energies=              -314.263713
 Sum of electronic and thermal Enthalpies=            -314.262769
 Sum of electronic and thermal Free Energies=         -314.308191

                     E (Thermal)             CV                S
                      KCal/Mol        Cal/Mol-Kelvin    Cal/Mol-Kelvin
 Total                  146.294             34.909             95.599
 Electronic               0.000              0.000              0.000
 Translational            0.889              2.981             40.059
 Rotational               0.889              2.981             28.963
 Vibrational            144.517             28.948             26.576
 Vibration     1          0.597              1.972              4.395
 Vibration     2          0.599              1.964              3.957
 Vibration     3          0.604              1.949              3.449
 Vibration     4          0.614              1.917              2.852
 Vibration     5          0.625              1.881              2.450
 Vibration     6          0.660              1.771              1.767
 Vibration     7          0.674              1.729              1.599
 Vibration     8          0.698              1.657              1.369
 Vibration     9          0.775              1.447              0.924
 Vibration    10          0.817              1.341              0.770

 Optimization completed.
    -- Stationary point found.
 Normal termination of Gaussian 16 at Sun May 28 16:38:43 2023.
