 Gaussian 16, Revision A.03,
 Gaussian 16:  ES64L-G16RevA.03 25-Dec-2016

 -----------------------------
 # opt freq b3lyp/6-31g(2df,p)
 -----------------------------

 -------------------
 Title Card Required
 -------------------
 Symbolic Z-matrix:
 Charge =  0 Multiplicity = 1

 SCF Done:  E(RB3LYP) =  -589.607047976     A.U. after   12 cycles
 SCF Done:  E(RB3LYP) =  -589.641221183     A.U. after   11 cycles
 SCF Done:  E(RB3LYP) =  -589.661368088     A.U. after   11 cycles
 SCF Done:  E(RB3LYP) =  -589.678214035     A.U. after   10 cycles
 SCF Done:  E(RB3LYP) =  -589.684488044     A.U. after   10 cycles
 SCF Done:  E(RB3LYP) =  -589.689058447     A.U. after   10 cycles
 SCF Done:  E(RB3LYP) =  -589.695108361     A.U. after   10 cycles
 SCF Done:  E(RB3LYP) =  -589.700830164     A.U. after   12 cycles
 SCF Done:  E(RB3LYP) =  -589.703209346     A.U. after    9 cycles
 SCF Done:  E(RB3LYP) =  -589.704801638     A.U. after    9 cycles
 SCF Done:  E(RB3LYP) =  -589.705763151     A.U. after   10 cycles
 SCF Done:  E(RB3LYP) =  -589.706115762     A.U. after    9 cycles
 SCF Done:  E(RB3LYP) =  -589.706237089     A.U. after    9 cycles
 SCF Done:  E(RB3LYP) =  -589.706258028     A.U. after    8 cycles
 SCF Done:  E(RB3LYP) =  -589.706266106     A.U. after    8 cycles
 SCF Done:  E(RB3LYP) =  -589.706267257     A.U. after    6 cycles
 SCF Done:  E(RB3LYP) =  -589.706267471     A.U. after    6 cycles
 SCF Done:  E(RB3LYP) =  -589.706267533     A.U. after    5 cycles
 Optimization completed.
    -- Stationary point found.
 Normal termination of Gaussian 16 at Mon May 22 04:09:05 2023.

 ----------------------------------------------------------------------
 #N Geom=AllCheck Guess=TCheck SCRF=Check GenChk RB3LYP/6-31G(2df,p) Fr
 eq
 ----------------------------------------------------------------------

 Structure from the checkpoint file:  "CCCCCC1CCCCCqCrCCC1.chk"
 -------------------
 Title Card Required
 -------------------
 Charge =  0 Multiplicity = 1

                         Standard orientation:
 ---------------------------------------------------------------------
 Center     Atomic      Atomic             Coordinates (Angstroms)
 Number     Number       Type             X           Y           Z
 ---------------------------------------------------------------------
      1          6           0       -5.863629    0.809251   -0.830109
      2          6           0       -4.786842    0.415620    0.184715
      3          6           0       -3.474010   -0.029497   -0.468891
      4          6           0       -2.389434   -0.424459    0.539097
      5          6           0       -1.086458   -0.895292   -0.123884
      6          6           0        0.009347   -1.307223    0.883919
      7          6           0        1.056116   -2.321033    0.322107
      8          6           0        2.382304   -1.784421   -0.233297
      9          6           0        2.269137   -0.913781   -1.499582
     10          6           0        3.171057    0.328649   -1.527225
     11          6           0        2.886018    1.479561   -0.512230
     12          6           0        3.744772    1.426515    0.762978
     13          6           0        1.372842    1.730874   -0.241688
     14          6           0        0.708443    1.316614    1.096872
     15          6           0        0.648165   -0.122807    1.673880
     16          1           0       -6.787959    1.121583   -0.333844
     17          1           0       -6.108425   -0.028698   -1.492507
     18          1           0       -5.527966    1.639713   -1.461409
     19          1           0       -5.164301   -0.393135    0.824628
     20          1           0       -4.588048    1.262424    0.855193
     21          1           0       -3.097448    0.779287   -1.111088
     22          1           0       -3.672746   -0.877199   -1.140018
     23          1           0       -2.770512   -1.227636    1.185860
     24          1           0       -2.190740    0.425834    1.204366
     25          1           0       -0.731255   -0.115168   -0.805109
     26          1           0       -1.319861   -1.761725   -0.756872
     27          1           0       -0.528971   -1.894622    1.640520
     28          1           0        0.566288   -2.940833   -0.440709
     29          1           0        1.310568   -3.008492    1.139293
     30          1           0        3.034051   -2.642493   -0.438197
     31          1           0        2.895626   -1.227261    0.554216
     32          1           0        1.230938   -0.602243   -1.643023
     33          1           0        2.503401   -1.522093   -2.381614
     34          1           0        3.092589    0.757189   -2.534679
     35          1           0        4.219661    0.019724   -1.420135
     36          1           0        3.232264    2.379543   -1.036722
     37          1           0        3.514379    0.575986    1.408562
     38          1           0        3.608979    2.334538    1.361286
     39          1           0        4.806839    1.363105    0.502814
     40          1           0        0.795515    1.338934   -1.084493
     41          1           0        1.215718    2.816300   -0.284408
     42          1           0       -0.321302    1.689837    1.030730
     43          1           0        1.169520    1.920750    1.889001
     44          1           0        0.080074   -0.006908    2.605183
     45          1           0        1.646150   -0.427673    2.003198
 ---------------------------------------------------------------------

 SCF Done:  E(RB3LYP) =  -589.706267533     A.U. after    1 cycles

 The electronic state is 1-A.
 Alpha  occ. eigenvalues --  -10.17995 -10.17774 -10.17508 -10.17431 -10.17204
 Alpha  occ. eigenvalues --  -10.17192 -10.17183 -10.17118 -10.16970 -10.16930
 Alpha  occ. eigenvalues --  -10.16898 -10.16863 -10.16742 -10.16718 -10.16625
 Alpha  occ. eigenvalues --   -0.81888  -0.79978  -0.78271  -0.76971  -0.74099
 Alpha  occ. eigenvalues --   -0.71230  -0.69223  -0.67442  -0.65068  -0.60604
 Alpha  occ. eigenvalues --   -0.59220  -0.57758  -0.56945  -0.53327  -0.51581
 Alpha  occ. eigenvalues --   -0.47778  -0.47300  -0.45682  -0.44004  -0.43072
 Alpha  occ. eigenvalues --   -0.42886  -0.42714  -0.41418  -0.40998  -0.39811
 Alpha  occ. eigenvalues --   -0.39421  -0.38484  -0.37542  -0.36855  -0.36415
 Alpha  occ. eigenvalues --   -0.35524  -0.35095  -0.34562  -0.33993  -0.33166
 Alpha  occ. eigenvalues --   -0.32888  -0.32320  -0.31978  -0.31575  -0.30420
 Alpha  occ. eigenvalues --   -0.29966  -0.29223  -0.28923  -0.28029  -0.27953
 Alpha virt. eigenvalues --    0.06710   0.08787   0.09341   0.09961   0.10459
 Alpha virt. eigenvalues --    0.10988   0.12111   0.12923   0.13308   0.14141
 Alpha virt. eigenvalues --    0.14655   0.15062   0.15359   0.15723   0.16737

 Mulliken charges:
               1
     1  C   -0.378886
     2  C   -0.162992
     3  C   -0.159274
     4  C   -0.191307
     5  C   -0.199182
     6  C    0.042103
     7  C   -0.238324
     8  C   -0.181266
     9  C   -0.181175
    10  C   -0.218159
    11  C    0.059379
    12  C   -0.404116
    13  C   -0.216841
    14  C   -0.193013
    15  C   -0.217266
    16  H    0.109292
    17  H    0.112350
    18  H    0.112207
    19  H    0.092766
    20  H    0.092458
    21  H    0.089820
    22  H    0.089688
    23  H    0.089006
    24  H    0.097622
    25  H    0.099852
    26  H    0.085259
    27  H    0.070807
    28  H    0.086722
    29  H    0.086879
    30  H    0.087696
    31  H    0.096931
    32  H    0.100640
    33  H    0.087067
    34  H    0.087090
    35  H    0.086816
    36  H    0.074206
    37  H    0.123027
    38  H    0.107289
    39  H    0.107417
    40  H    0.097183
    41  H    0.091465
    42  H    0.095959
    43  H    0.094264
    44  H    0.093818
    45  H    0.094723
 Sum of Mulliken charges =  -0.00000

 Dipole moment (field-independent basis, Debye):
    X=             -0.0441    Y=              0.1150    Z=              0.0813  Tot=              0.1476
 Quadrupole moment (field-independent basis, Debye-Ang):
   XX=           -100.5051   YY=            -98.6822   ZZ=            -99.6840
   XY=              0.6029   XZ=             -0.5366   YZ=             -0.0485

  Exact polarizability: 185.509  -0.038 153.931  -2.648   1.285 144.240
 Approx polarizability: 225.690   0.871 223.960  -1.131   1.102 220.570

                      1                      2                      3
                      A                      A                      A
 Frequencies --     34.8745                49.5684                57.0991
 Red. masses --      3.3509                 3.2077                 1.5490
 Frc consts  --      0.0024                 0.0046                 0.0030
 IR Inten    --      0.0013                 0.0051                 0.0001

                      4                      5                      6
                      A                      A                      A
 Frequencies --    104.3928               108.9720               122.7660
 Red. masses --      2.7081                 3.0483                 2.8500
 Frc consts  --      0.0174                 0.0213                 0.0253
 IR Inten    --      0.0225                 0.0264                 0.0162

                      7                      8                      9
                      A                      A                      A
 Frequencies --    137.3410               147.7799               164.5522
 Red. masses --      2.3847                 2.0901                 2.1968
 Frc consts  --      0.0265                 0.0269                 0.0350
 IR Inten    --      0.0175                 0.0409                 0.0941

                     10                     11                     12
                      A                      A                      A
 Frequencies --    211.1522               222.2314               235.0834
 Red. masses --      2.3885                 2.0667                 1.3592
 Frc consts  --      0.0627                 0.0601                 0.0443
 IR Inten    --      0.0535                 0.0706                 0.0792

                     13                     14                     15
                      A                      A                      A
 Frequencies --    247.6594               262.3957               275.2030
 Red. masses --      1.1286                 2.3872                 2.0942
 Frc consts  --      0.0408                 0.0968                 0.0935
 IR Inten    --      0.0015                 0.0577                 0.0718

                     16                     17                     18
                      A                      A                      A
 Frequencies --    280.0772               325.9463               333.3130
 Red. masses --      2.4371                 2.0233                 1.9510
 Frc consts  --      0.1126                 0.1267                 0.1277
 IR Inten    --      0.0962                 0.0498                 0.3721

                     19                     20                     21
                      A                      A                      A
 Frequencies --    338.9387               355.8769               406.9240
 Red. masses --      2.3816                 2.1382                 2.3171
 Frc consts  --      0.1612                 0.1596                 0.2261
 IR Inten    --      0.1466                 0.0327                 0.3115

                     22                     23                     24
                      A                      A                      A
 Frequencies --    425.1443               470.0699               522.9454
 Red. masses --      2.6440                 2.6635                 2.6598
 Frc consts  --      0.2816                 0.3468                 0.4286
 IR Inten    --      0.4350                 0.1236                 0.3022

                     25                     26                     27
                      A                      A                      A
 Frequencies --    547.6483               612.6703               681.9317
 Red. masses --      1.8644                 1.8385                 3.0333
 Frc consts  --      0.3295                 0.4066                 0.8311
 IR Inten    --      5.1974                 2.3058                 0.3421

                     28                     29                     30
                      A                      A                      A
 Frequencies --    727.0949               733.3016               753.7811
 Red. masses --      1.7440                 1.3704                 1.3028
 Frc consts  --      0.5432                 0.4342                 0.4361
 IR Inten    --      2.4991                 1.7272                 1.3471

                     31                     32                     33
                      A                      A                      A
 Frequencies --    760.9806               765.6726               771.5688
 Red. masses --      2.0018                 1.7742                 1.4883
 Frc consts  --      0.6830                 0.6128                 0.5220
 IR Inten    --      2.1510                 0.9890                 2.2559

                     34                     35                     36
                      A                      A                      A
 Frequencies --    840.7719               869.3703               887.9414
 Red. masses --      1.3823                 1.6475                 1.9039
 Frc consts  --      0.5757                 0.7336                 0.8844
 IR Inten    --      0.9218                 2.4162                 0.1484

                     37                     38                     39
                      A                      A                      A
 Frequencies --    899.7855               906.6043               950.0700
 Red. masses --      1.9002                 2.0935                 1.7429
 Frc consts  --      0.9064                 1.0138                 0.9269
 IR Inten    --      2.3213                 0.1896                 2.0122

                     40                     41                     42
                      A                      A                      A
 Frequencies --    966.9300               977.7840               986.2663
 Red. masses --      1.8491                 1.4736                 2.0794
 Frc consts  --      1.0186                 0.8301                 1.1917
 IR Inten    --      0.9383                 0.2896                 0.1865

                     43                     44                     45
                      A                      A                      A
 Frequencies --   1013.8297              1019.8995              1023.1079
 Red. masses --      2.2355                 2.6674                 1.9050
 Frc consts  --      1.3538                 1.6348                 1.1749
 IR Inten    --      0.5167                 0.2168                 0.3727

                     46                     47                     48
                      A                      A                      A
 Frequencies --   1046.7040              1054.5112              1066.1878
 Red. masses --      2.1547                 2.6474                 2.0592
 Frc consts  --      1.3909                 1.7345                 1.3791
 IR Inten    --      0.6624                 0.6201                 0.6096

                     49                     50                     51
                      A                      A                      A
 Frequencies --   1070.4112              1082.8298              1103.8184
 Red. masses --      2.1642                 1.9466                 1.5170
 Frc consts  --      1.4610                 1.3447                 1.0890
 IR Inten    --      0.5008                 1.3468                 0.8307

                     52                     53                     54
                      A                      A                      A
 Frequencies --   1123.1004              1125.6418              1129.7060
 Red. masses --      1.8879                 1.9958                 2.1352
 Frc consts  --      1.4030                 1.4899                 1.6055
 IR Inten    --      0.9057                 0.3899                 0.0905

                     55                     56                     57
                      A                      A                      A
 Frequencies --   1158.4565              1176.9750              1197.7343
 Red. masses --      2.3869                 2.2667                 1.2551
 Frc consts  --      1.8873                 1.8500                 1.0609
 IR Inten    --      1.0141                 0.3131                 0.1322

                     58                     59                     60
                      A                      A                      A
 Frequencies --   1227.8466              1238.1613              1252.8658
 Red. masses --      1.5655                 1.2760                 1.2949
 Frc consts  --      1.3906                 1.1525                 1.1976
 IR Inten    --      0.2120                 0.8694                 3.2867

                     61                     62                     63
                      A                      A                      A
 Frequencies --   1256.5763              1264.8776              1293.7840
 Red. masses --      1.1435                 1.2538                 1.2575
 Frc consts  --      1.0638                 1.1818                 1.2402
 IR Inten    --      1.4738                 1.9154                 0.3035

                     64                     65                     66
                      A                      A                      A
 Frequencies --   1303.4023              1306.7531              1325.2960
 Red. masses --      1.2407                 1.2180                 1.1976
 Frc consts  --      1.2418                 1.2254                 1.2393
 IR Inten    --      0.8184                 0.2978                 0.5973

                     67                     68                     69
                      A                      A                      A
 Frequencies --   1329.1122              1330.3306              1334.5715
 Red. masses --      1.0976                 1.1386                 1.2047
 Frc consts  --      1.1424                 1.1872                 1.2642
 IR Inten    --      1.5244                 0.1983                 0.9126

                     70                     71                     72
                      A                      A                      A
 Frequencies --   1344.1174              1350.7481              1359.7374
 Red. masses --      1.2378                 1.2893                 1.2193
 Frc consts  --      1.3176                 1.3860                 1.3282
 IR Inten    --      1.4174                 0.5960                 0.2690

                     73                     74                     75
                      A                      A                      A
 Frequencies --   1370.2315              1378.5196              1382.3488
 Red. masses --      1.2892                 1.3692                 1.3186
 Frc consts  --      1.4261                 1.5330                 1.4846
 IR Inten    --      1.8891                 3.8513                 6.4232

                     76                     77                     78
                      A                      A                      A
 Frequencies --   1386.5300              1392.8574              1397.3709
 Red. masses --      1.3324                 1.3369                 1.3300
 Frc consts  --      1.5092                 1.5282                 1.5301
 IR Inten    --      2.3263                 2.7793                 4.7657

                     79                     80                     81
                      A                      A                      A
 Frequencies --   1399.3588              1408.4269              1412.2053
 Red. masses --      1.5849                 1.4056                 1.2920
 Frc consts  --      1.8286                 1.6427                 1.5182
 IR Inten    --      1.3109                 1.2996                 7.5574

                     82                     83                     84
                      A                      A                      A
 Frequencies --   1413.2259              1417.1791              1420.9654
 Red. masses --      1.2497                 1.3288                 1.3008
 Frc consts  --      1.4705                 1.5724                 1.5475
 IR Inten    --      0.6442                 1.5585                 6.8867

                     85                     86                     87
                      A                      A                      A
 Frequencies --   1473.5360              1481.1564              1482.4555
 Red. masses --      1.0733                 1.0848                 1.0762
 Frc consts  --      1.3731                 1.4022                 1.3935
 IR Inten    --      1.3933                 3.0673                 0.7320

                     88                     89                     90
                      A                      A                      A
 Frequencies --   1483.4276              1484.9244              1487.4175
 Red. masses --      1.0748                 1.0774                 1.0899
 Frc consts  --      1.3935                 1.3997                 1.4207
 IR Inten    --      0.4807                 0.1814                 3.8116

                     91                     92                     93
                      A                      A                      A
 Frequencies --   1488.5534              1491.8696              1497.0946
 Red. masses --      1.0842                 1.0748                 1.0598
 Frc consts  --      1.4155                 1.4094                 1.3995
 IR Inten    --      8.8299                 0.6581                 2.8744

                     94                     95                     96
                      A                      A                      A
 Frequencies --   1499.8881              1503.2458              1504.8631
 Red. masses --      1.0403                 1.0750                 1.0611
 Frc consts  --      1.3789                 1.4313                 1.4159
 IR Inten    --      4.8209                 0.0286                 2.0388

                     97                     98                     99
                      A                      A                      A
 Frequencies --   1509.0525              1514.0929              1517.2633
 Red. masses --      1.0780                 1.0921                 1.0765
 Frc consts  --      1.4464                 1.4750                 1.4601
 IR Inten    --      0.2466                 2.5662                10.4272

                    100                    101                    102
                      A                      A                      A
 Frequencies --   2982.7942              2990.5039              2998.9105
 Red. masses --      1.0801                 1.0784                 1.0581
 Frc consts  --      5.6617                 5.6821                 5.6068
 IR Inten    --      5.6586                 2.4842                 2.0446

                    103                    104                    105
                      A                      A                      A
 Frequencies --   3004.7285              3007.3670              3008.4046
 Red. masses --      1.0609                 1.0638                 1.0654
 Frc consts  --      5.6432                 5.6688                 5.6809
 IR Inten    --      2.3923                 6.3089                40.6476

                    106                    107                    108
                      A                      A                      A
 Frequencies --   3013.2530              3014.5335              3016.7465
 Red. masses --      1.0662                 1.0608                 1.0738
 Frc consts  --      5.7039                 5.6796                 5.7576
 IR Inten    --     19.3969                24.1917                45.0595

                    109                    110                    111
                      A                      A                      A
 Frequencies --   3022.9918              3024.6006              3027.2161
 Red. masses --      1.0908                 1.0728                 1.0711
 Frc consts  --      5.8730                 5.7823                 5.7834
 IR Inten    --      5.9810                21.3512                46.1208

                    112                    113                    114
                      A                      A                      A
 Frequencies --   3027.6159              3031.6676              3035.0699
 Red. masses --      1.0358                 1.0547                 1.0615
 Frc consts  --      5.5943                 5.7114                 5.7610
 IR Inten    --     40.5255                32.1596                73.2392

                    115                    116                    117
                      A                      A                      A
 Frequencies --   3038.1098              3038.8863              3041.4694
 Red. masses --      1.0815                 1.0957                 1.0989
 Frc consts  --      5.8812                 5.9619                 5.9895
 IR Inten    --      9.1492                 6.3872               105.0593

                    118                    119                    120
                      A                      A                      A
 Frequencies --   3041.7955              3045.7829              3055.9432
 Red. masses --      1.0955                 1.0865                 1.1000
 Frc consts  --      5.9721                 5.9386                 6.0527
 IR Inten    --     13.5316                 6.0721                33.7461

                    121                    122                    123
                      A                      A                      A
 Frequencies --   3069.9064              3073.6434              3078.9794
 Red. masses --      1.0934                 1.0926                 1.0953
 Frc consts  --      6.0712                 6.0815                 6.1176
 IR Inten    --     63.2861                66.1120                40.3821

                    124                    125                    126
                      A                      A                      A
 Frequencies --   3089.0803              3093.1419              3093.7343
 Red. masses --      1.0998                 1.0883                 1.0987
 Frc consts  --      6.1833                 6.1347                 6.1960
 IR Inten    --     37.8495                88.3272                21.5390

                    127                    128                    129
                      A                      A                      A
 Frequencies --   3094.3196              3098.9706              3122.7371
 Red. masses --      1.0942                 1.1009                 1.0953
 Frc consts  --      6.1727                 6.2295                 6.2930
 IR Inten    --     65.1994                39.6359                32.7494

 - Thermochemistry -
 -------------------
 Temperature   298.150 Kelvin.  Pressure   1.00000 Atm.
 Atom     1 has atomic number  6 and mass  12.00000

 Molecular mass:   210.23475 amu.
 Principal axes and moments of inertia in atomic units:
                           1         2         3
     Eigenvalues --  1912.803957140.497937650.71882
           X            0.99999  -0.00188   0.00401
           Y            0.00186   0.99997   0.00686
           Z           -0.00402  -0.00685   0.99997
 This molecule is an asymmetric top.
 Rotational symmetry number  1.
 Warning -- assumption of classical behavior for rotation
           may cause significant error
 Rotational temperatures (Kelvin)      0.04528     0.01213     0.01132
 Rotational constants (GHZ):           0.94351     0.25275     0.23589
 Zero-point vibrational energy    1117746.0 (Joules/Mol)
                                  267.14771 (Kcal/Mol)
 Warning -- explicit consideration of  26 degrees of freedom as
           vibrations may cause significant error
 Vibrational temperatures:     50.18    71.32    82.15   150.20   156.79
          (Kelvin)            176.63   197.60   212.62   236.75   303.80
                              319.74   338.23   356.33   377.53   395.96
                              402.97   468.96   479.56   487.66   512.03
                              585.47   611.69   676.33   752.40   787.94
                              881.50   981.15  1046.13  1055.06  1084.52
                             1094.88  1101.63  1110.12  1209.68  1250.83
                             1277.55  1294.59  1304.40  1366.94  1391.20
                             1406.81  1419.02  1458.67  1467.41  1472.02
                             1505.97  1517.21  1534.01  1540.08  1557.95
                             1588.15  1615.89  1619.55  1625.39  1666.76
                             1693.40  1723.27  1766.60  1781.44  1802.59
                             1807.93  1819.88  1861.47  1875.31  1880.13
                             1906.81  1912.30  1914.05  1920.15  1933.89
                             1943.43  1956.36  1971.46  1983.38  1988.89
                             1994.91  2004.01  2010.51  2013.37  2026.41
                             2031.85  2033.32  2039.00  2044.45  2120.09
                             2131.05  2132.92  2134.32  2136.48  2140.06
                             2141.70  2146.47  2153.99  2158.00  2162.84
                             2165.16  2171.19  2178.44  2183.00  4291.58
                             4302.67  4314.76  4323.13  4326.93  4328.42
                             4335.40  4337.24  4340.43  4349.41  4351.73
                             4355.49  4356.06  4361.89  4366.79  4371.16
                             4372.28  4376.00  4376.47  4382.20  4396.82
                             4416.91  4422.29  4429.96  4444.50  4450.34
                             4451.19  4452.04  4458.73  4492.92

 Zero-point correction=                           0.425727 (Hartree/Particle)
 Thermal correction to Energy=                    0.443336
 Thermal correction to Enthalpy=                  0.444280
 Thermal correction to Gibbs Free Energy=         0.380734
 Sum of electronic and zero-point Energies=           -589.280541
 Sum of electronic and thermal Energies=              -589.262932
 Sum of electronic and thermal Enthalpies=            -589.261988
 Sum of electronic and thermal Free Energies=         -589.325533

                     E (Thermal)             CV                S
                      KCal/Mol        Cal/Mol-Kelvin    Cal/Mol-Kelvin
 Total                  278.197             68.259            133.743
 Electronic               0.000              0.000              0.000
 Translational            0.889              2.981             41.933
 Rotational               0.889              2.981             33.013
 Vibrational            276.420             62.298             58.798
 Vibration     1          0.594              1.983              5.531
 Vibration     2          0.595              1.978              4.835
 Vibration     3          0.596              1.975              4.555
 Vibration     4          0.605              1.946              3.371
 Vibration     5          0.606              1.942              3.287
 Vibration     6          0.610              1.930              3.056
 Vibration     7          0.614              1.916              2.841
 Vibration     8          0.617              1.905              2.701
 Vibration     9          0.623              1.886              2.497
 Vibration    10          0.643              1.824              2.034
 Vibration    11          0.648              1.807              1.941
 Vibration    12          0.655              1.787              1.840
 Vibration    13          0.661              1.767              1.747
 Vibration    14          0.670              1.742              1.646
 Vibration    15          0.677              1.719              1.563
 Vibration    16          0.680              1.710              1.533
 Vibration    17          0.710              1.624              1.280
 Vibration    18          0.715              1.609              1.244
 Vibration    19          0.719              1.598              1.217
 Vibration    20          0.731              1.563              1.140
 Vibration    21          0.772              1.455              0.938
 Vibration    22          0.787              1.416              0.875
 Vibration    23          0.827              1.316              0.737
 Vibration    24          0.878              1.199              0.603
 Vibration    25          0.903              1.145              0.549
 Vibration    26          0.972              1.005              0.428

                           ! Non-Optimized Parameters !
 Normal termination of Gaussian 16 at Mon May 22 08:47:33 2023.
