 Gaussian 16, Revision A.03,
 Gaussian 16:  ES64L-G16RevA.03 25-Dec-2016

 -----------------------------
 # opt freq b3lyp/6-31g(2df,p)
 -----------------------------

 -------------------
 Title Card Required
 -------------------
 Symbolic Z-matrix:
 Charge =  0 Multiplicity = 1

 SCF Done:  E(RB3LYP) =  -587.506747596     A.U. after   12 cycles
 SCF Done:  E(RB3LYP) =  -587.521437315     A.U. after   11 cycles
 SCF Done:  E(RB3LYP) =  -587.526740725     A.U. after   10 cycles
 SCF Done:  E(RB3LYP) =  -587.528867403     A.U. after   10 cycles
 SCF Done:  E(RB3LYP) =  -587.529290085     A.U. after   10 cycles
 SCF Done:  E(RB3LYP) =  -587.529446992     A.U. after    9 cycles
 SCF Done:  E(RB3LYP) =  -587.529506558     A.U. after    9 cycles
 SCF Done:  E(RB3LYP) =  -587.529558275     A.U. after   10 cycles
 SCF Done:  E(RB3LYP) =  -587.529692321     A.U. after    9 cycles
 SCF Done:  E(RB3LYP) =  -587.529637881     A.U. after    9 cycles
 SCF Done:  E(RB3LYP) =  -587.530488051     A.U. after    9 cycles
 SCF Done:  E(RB3LYP) =  -587.530498227     A.U. after    8 cycles
 SCF Done:  E(RB3LYP) =  -587.529724876     A.U. after   10 cycles
 SCF Done:  E(RB3LYP) =  -587.530506736     A.U. after   10 cycles
 SCF Done:  E(RB3LYP) =  -587.530516659     A.U. after    8 cycles
 SCF Done:  E(RB3LYP) =  -587.530517486     A.U. after    7 cycles
 SCF Done:  E(RB3LYP) =  -587.530517558     A.U. after    6 cycles
 SCF Done:  E(RB3LYP) =  -587.530517576     A.U. after    6 cycles
 SCF Done:  E(RB3LYP) =  -587.530517703     A.U. after    6 cycles
 Optimization completed.
    -- Stationary point found.
 Normal termination of Gaussian 16 at Mon May 22 13:01:34 2023.

 ----------------------------------------------------------------------
 #N Geom=AllCheck Guess=TCheck SCRF=Check GenChk RB3LYP/6-31G(2df,p) Fr
 eq
 ----------------------------------------------------------------------

 Structure from the checkpoint file:  "CCCCqCCCrOCCCqCrCC.chk"
 -------------------
 Title Card Required
 -------------------
 Charge =  0 Multiplicity = 1

                         Standard orientation:
 ---------------------------------------------------------------------
 Center     Atomic      Atomic             Coordinates (Angstroms)
 Number     Number       Type             X           Y           Z
 ---------------------------------------------------------------------
      1          6           0        4.695486   -2.578521    0.087064
      2          6           0        3.872747   -1.311461    0.341967
      3          6           0        2.435224   -1.437361   -0.172093
      4          6           0        1.512340   -0.250826    0.126161
      5          6           0        1.980453    1.086578   -0.493665
      6          6           0        2.749457    2.008452    0.462397
      7          6           0        3.197079    3.313322   -0.202091
      8          8           0        0.235049   -0.636410   -0.378589
      9          6           0       -0.865838    0.003917    0.232449
     10          6           0       -2.138745   -0.516935   -0.427089
     11          6           0       -3.448443   -0.052482    0.235043
     12          6           0       -3.629096    1.471267    0.149939
     13          6           0       -4.641245   -0.807446   -0.384444
     14          6           0       -5.981241   -0.599832    0.328726
     15          1           0        5.719919   -2.471049    0.457083
     16          1           0        4.749349   -2.805465   -0.983481
     17          1           0        4.249231   -3.446329    0.585094
     18          1           0        4.370512   -0.459373   -0.136107
     19          1           0        3.861825   -1.095215    1.418682
     20          1           0        1.969382   -2.330659    0.260994
     21          1           0        2.441789   -1.592484   -1.259218
     22          1           0        1.435023   -0.126477    1.220910
     23          1           0        1.095569    1.621989   -0.857124
     24          1           0        2.588834    0.880133   -1.384249
     25          1           0        3.624944    1.487714    0.867398
     26          1           0        2.111148    2.237477    1.326254
     27          1           0        3.868925    3.118101   -1.045410
     28          1           0        3.728038    3.960334    0.503277
     29          1           0        2.339272    3.874780   -0.589165
     30          1           0       -0.790268    1.097573    0.130033
     31          1           0       -0.878967   -0.216367    1.315080
     32          1           0       -2.090140   -1.612200   -0.408887
     33          1           0       -2.132611   -0.224974   -1.485493
     34          1           0       -3.402100   -0.328945    1.299929
     35          1           0       -3.661869    1.799705   -0.896297
     36          1           0       -2.810652    2.006670    0.639892
     37          1           0       -4.557120    1.795170    0.629347
     38          1           0       -4.406849   -1.879460   -0.388418
     39          1           0       -4.737708   -0.516252   -1.439780
     40          1           0       -5.910893   -0.870709    1.388506
     41          1           0       -6.761374   -1.222714   -0.120287
     42          1           0       -6.322665    0.438265    0.273967
 ---------------------------------------------------------------------

 SCF Done:  E(RB3LYP) =  -587.530517703     A.U. after    1 cycles

 The electronic state is 1-A.
 Alpha  occ. eigenvalues --  -19.12605 -10.22219 -10.21766 -10.18302 -10.17800
 Alpha  occ. eigenvalues --  -10.17798 -10.17443 -10.17160 -10.17138 -10.17053
 Alpha  occ. eigenvalues --  -10.17051 -10.17011 -10.16971 -10.16921  -1.01979
 Alpha  occ. eigenvalues --   -0.81299  -0.79948  -0.77390  -0.74737  -0.72174
 Alpha  occ. eigenvalues --   -0.69474  -0.67248  -0.64625  -0.60955  -0.58824
 Alpha  occ. eigenvalues --   -0.57976  -0.56507  -0.55063  -0.48706  -0.47500
 Alpha  occ. eigenvalues --   -0.46885  -0.45497  -0.44646  -0.43654  -0.42873
 Alpha  occ. eigenvalues --   -0.42276  -0.41288  -0.39845  -0.39297  -0.38690
 Alpha  occ. eigenvalues --   -0.37742  -0.37556  -0.36724  -0.36193  -0.35629
 Alpha  occ. eigenvalues --   -0.34725  -0.33906  -0.33589  -0.33293  -0.32841
 Alpha  occ. eigenvalues --   -0.32097  -0.31567  -0.31374  -0.31267  -0.30199
 Alpha  occ. eigenvalues --   -0.29371  -0.24187
 Alpha virt. eigenvalues --    0.07962   0.08711   0.10143   0.10377   0.11577
 Alpha virt. eigenvalues --    0.11884   0.12356   0.12890   0.13422   0.13578
 Alpha virt. eigenvalues --    0.14600   0.15210   0.15667   0.16067   0.16756

 Mulliken charges:
               1
     1  C   -0.380533
     2  C   -0.174102
     3  C   -0.179798
     4  C    0.116620
     5  C   -0.187966
     6  C   -0.169801
     7  C   -0.378992
     8  O   -0.263580
     9  C   -0.080864
    10  C   -0.193878
    11  C    0.040771
    12  C   -0.390720
    13  C   -0.165029
    14  C   -0.392425
    15  H    0.109423
    16  H    0.114939
    17  H    0.114694
    18  H    0.100839
    19  H    0.093614
    20  H    0.095494
    21  H    0.099975
    22  H    0.055439
    23  H    0.100055
    24  H    0.091943
    25  H    0.101409
    26  H    0.093839
    27  H    0.114144
    28  H    0.110239
    29  H    0.113483
    30  H    0.084496
    31  H    0.079247
    32  H    0.100042
    33  H    0.097585
    34  H    0.066448
    35  H    0.111118
    36  H    0.113862
    37  H    0.113486
    38  H    0.091951
    39  H    0.091723
    40  H    0.111911
    41  H    0.111620
    42  H    0.117278
 Sum of Mulliken charges =  -0.00000

 Dipole moment (field-independent basis, Debye):
    X=              0.1037    Y=              0.5813    Z=              0.6621  Tot=              0.8872
 Quadrupole moment (field-independent basis, Debye-Ang):
   XX=            -89.9375   YY=            -93.4837   ZZ=            -92.4482
   XY=              0.1195   XZ=              0.2181   YZ=             -0.8089

  Exact polarizability: 179.792  -0.411 147.354  -0.293   0.723 123.831
 Approx polarizability: 205.021  -0.222 198.203  -0.562   0.898 198.074

                      1                      2                      3
                      A                      A                      A
 Frequencies --     20.2332                26.8936                42.1161
 Red. masses --      2.4495                 3.6585                 3.0067
 Frc consts  --      0.0006                 0.0016                 0.0031
 IR Inten    --      0.0008                 0.0669                 0.0148

                      4                      5                      6
                      A                      A                      A
 Frequencies --     63.8107                75.6552                79.2248
 Red. masses --      2.0142                 2.6598                 2.1669
 Frc consts  --      0.0048                 0.0090                 0.0080
 IR Inten    --      0.0383                 0.2102                 0.0245

                      7                      8                      9
                      A                      A                      A
 Frequencies --     97.3328               101.7405               111.8717
 Red. masses --      1.7574                 1.6149                 2.3008
 Frc consts  --      0.0098                 0.0098                 0.0170
 IR Inten    --      0.0722                 0.0702                 0.0703

                     10                     11                     12
                      A                      A                      A
 Frequencies --    134.8774               162.3281               206.8269
 Red. masses --      2.8121                 2.6213                 1.4979
 Frc consts  --      0.0301                 0.0407                 0.0378
 IR Inten    --      0.1959                 1.4564                 0.0194

                     13                     14                     15
                      A                      A                      A
 Frequencies --    209.8298               220.2181               241.4707
 Red. masses --      2.5278                 1.7983                 1.9403
 Frc consts  --      0.0656                 0.0514                 0.0667
 IR Inten    --      0.6366                 0.1188                 0.2601

                     16                     17                     18
                      A                      A                      A
 Frequencies --    248.5778               251.8733               259.6190
 Red. masses --      1.2639                 1.2429                 1.3521
 Frc consts  --      0.0460                 0.0465                 0.0537
 IR Inten    --      0.0209                 0.0499                 0.2075

                     19                     20                     21
                      A                      A                      A
 Frequencies --    303.3407               310.6225               348.3553
 Red. masses --      2.6505                 2.5287                 3.3563
 Frc consts  --      0.1437                 0.1438                 0.2400
 IR Inten    --      0.0945                 0.6373                 1.5415

                     22                     23                     24
                      A                      A                      A
 Frequencies --    404.1660               437.8900               443.2519
 Red. masses --      2.2788                 2.4708                 2.7366
 Frc consts  --      0.2193                 0.2791                 0.3168
 IR Inten    --      0.0980                 1.2633                 0.3187

                     25                     26                     27
                      A                      A                      A
 Frequencies --    473.8137               538.3850               567.7687
 Red. masses --      2.7781                 2.5840                 3.2510
 Frc consts  --      0.3675                 0.4413                 0.6175
 IR Inten    --      5.0574                 0.9433                 2.9036

                     28                     29                     30
                      A                      A                      A
 Frequencies --    734.1997               752.5047               771.8690
 Red. masses --      1.1194                 1.1072                 1.2425
 Frc consts  --      0.3555                 0.3694                 0.4362
 IR Inten    --      2.9220                 2.2599                 1.8289

                     31                     32                     33
                      A                      A                      A
 Frequencies --    791.5714               833.6477               853.8005
 Red. masses --      1.3844                 1.6387                 1.2425
 Frc consts  --      0.5111                 0.6710                 0.5337
 IR Inten    --      0.3345                 0.5786                 1.0263

                     34                     35                     36
                      A                      A                      A
 Frequencies --    861.8008               908.0273               910.7676
 Red. masses --      1.5986                 1.7890                 1.8147
 Frc consts  --      0.6995                 0.8691                 0.8869
 IR Inten    --      3.6645                 2.6026                 4.5318

                     37                     38                     39
                      A                      A                      A
 Frequencies --    916.9650               958.6910               960.9227
 Red. masses --      1.9403                 2.0987                 1.2336
 Frc consts  --      0.9612                 1.1365                 0.6711
 IR Inten    --      1.0041                 0.8182                 0.0968

                     40                     41                     42
                      A                      A                      A
 Frequencies --    982.2906               997.3669              1031.2502
 Red. masses --      1.4897                 2.0351                 1.9680
 Frc consts  --      0.8469                 1.1928                 1.2331
 IR Inten    --      3.1195                16.2527                 0.8326

                     43                     44                     45
                      A                      A                      A
 Frequencies --   1034.3376              1040.6646              1054.2714
 Red. masses --      2.1720                 2.4696                 1.9854
 Frc consts  --      1.3691                 1.5758                 1.3002
 IR Inten    --      3.3051                 2.3380                 0.9816

                     46                     47                     48
                      A                      A                      A
 Frequencies --   1061.0216              1073.3686              1084.1518
 Red. masses --      1.5966                 2.9719                 2.1052
 Frc consts  --      1.0590                 2.0174                 1.4579
 IR Inten    --      3.9446                 1.0411                12.4208

                     49                     50                     51
                      A                      A                      A
 Frequencies --   1124.3664              1137.5118              1144.1287
 Red. masses --      3.6840                 2.6446                 2.5001
 Frc consts  --      2.7440                 2.0161                 1.9282
 IR Inten    --    148.8491                96.3994                21.6894

                     52                     53                     54
                      A                      A                      A
 Frequencies --   1163.9177              1174.6236              1191.9781
 Red. masses --      2.5831                 1.8509                 1.9274
 Frc consts  --      2.0618                 1.5046                 1.6135
 IR Inten    --      3.6343                 2.8991                 4.0029

                     55                     56                     57
                      A                      A                      A
 Frequencies --   1197.9611              1243.5544              1247.8782
 Red. masses --      2.1255                 1.2993                 1.4174
 Frc consts  --      1.7972                 1.1838                 1.3005
 IR Inten    --     11.7078                 2.4033                 1.9903

                     58                     59                     60
                      A                      A                      A
 Frequencies --   1275.8814              1283.8171              1293.6869
 Red. masses --      1.2862                 1.2577                 1.3011
 Frc consts  --      1.2336                 1.2213                 1.2830
 IR Inten    --      8.3628                 2.5071                 4.3097

                     61                     62                     63
                      A                      A                      A
 Frequencies --   1301.6236              1307.3408              1316.3536
 Red. masses --      1.1594                 1.2360                 1.1539
 Frc consts  --      1.1573                 1.2446                 1.1780
 IR Inten    --      1.1384                 1.4566                 0.2886

                     64                     65                     66
                      A                      A                      A
 Frequencies --   1323.1700              1331.2897              1349.5958
 Red. masses --      1.1050                 1.0988                 1.2998
 Frc consts  --      1.1398                 1.1474                 1.3949
 IR Inten    --      0.6532                 0.5688                 1.7109

                     67                     68                     69
                      A                      A                      A
 Frequencies --   1371.5773              1376.0471              1378.3014
 Red. masses --      1.3306                 1.3602                 1.3294
 Frc consts  --      1.4748                 1.5174                 1.4880
 IR Inten    --     18.9596                 1.0084                 1.8670

                     70                     71                     72
                      A                      A                      A
 Frequencies --   1384.8889              1390.3857              1400.7610
 Red. masses --      1.5037                 1.5534                 1.4914
 Frc consts  --      1.6992                 1.7693                 1.7242
 IR Inten    --      0.0586                 8.1391                24.7317

                     73                     74                     75
                      A                      A                      A
 Frequencies --   1410.8368              1411.9654              1413.1047
 Red. masses --      1.2811                 1.2311                 1.2391
 Frc consts  --      1.5023                 1.4461                 1.4578
 IR Inten    --      3.5312                 0.5820                 3.3607

                     76                     77                     78
                      A                      A                      A
 Frequencies --   1415.0986              1441.5514              1479.4077
 Red. masses --      1.2247                 1.4513                 1.0750
 Frc consts  --      1.4449                 1.7769                 1.3863
 IR Inten    --      2.9070                 3.3773                 0.2123

                     79                     80                     81
                      A                      A                      A
 Frequencies --   1480.1785              1487.1285              1491.0242
 Red. masses --      1.0772                 1.0648                 1.0726
 Frc consts  --      1.3905                 1.3874                 1.4050
 IR Inten    --      2.7447                 2.7857                 0.2365

                     82                     83                     84
                      A                      A                      A
 Frequencies --   1494.3386              1495.5250              1496.7193
 Red. masses --      1.0540                 1.0678                 1.0425
 Frc consts  --      1.3867                 1.4071                 1.3760
 IR Inten    --      1.3103                 2.6260                 4.5538

                     85                     86                     87
                      A                      A                      A
 Frequencies --   1499.4132              1499.5252              1499.8957
 Red. masses --      1.0407                 1.0405                 1.0643
 Frc consts  --      1.3786                 1.3785                 1.4107
 IR Inten    --      3.3782                 7.3823                 2.1795

                     88                     89                     90
                      A                      A                      A
 Frequencies --   1508.0461              1510.3715              1512.4385
 Red. masses --      1.0667                 1.0831                 1.0871
 Frc consts  --      1.4292                 1.4558                 1.4651
 IR Inten    --      5.4081                 4.5813                 1.0317

                     91                     92                     93
                      A                      A                      A
 Frequencies --   1514.1901              1528.6596              2936.9521
 Red. masses --      1.0444                 1.0871                 1.0742
 Frc consts  --      1.4108                 1.4967                 5.4593
 IR Inten    --      4.7335                 3.3764                 5.8137

                     94                     95                     96
                      A                      A                      A
 Frequencies --   2945.3387              2981.8074              2987.9326
 Red. masses --      1.0722                 1.0807                 1.0918
 Frc consts  --      5.4805                 5.6614                 5.7429
 IR Inten    --     61.4466                13.8674                31.0710

                     97                     98                     99
                      A                      A                      A
 Frequencies --   3009.3323              3012.7940              3015.3980
 Red. masses --      1.0606                 1.0612                 1.0641
 Frc consts  --      5.6589                 5.6750                 5.7005
 IR Inten    --     17.7113                 5.2453                 2.4608

                    100                    101                    102
                      A                      A                      A
 Frequencies --   3022.0238              3023.2035              3024.6778
 Red. masses --      1.0598                 1.0572                 1.0556
 Frc consts  --      5.7023                 5.6930                 5.6897
 IR Inten    --     14.1931                22.9069                57.3853

                    103                    104                    105
                      A                      A                      A
 Frequencies --   3028.5746              3029.8972              3030.0670
 Red. masses --      1.0395                 1.0400                 1.0407
 Frc consts  --      5.6176                 5.6252                 5.6297
 IR Inten    --     47.9643                24.1132                59.6827

                    106                    107                    108
                      A                      A                      A
 Frequencies --   3031.9870              3044.4420              3044.7256
 Red. masses --      1.0392                 1.0994                 1.0974
 Frc consts  --      5.6289                 6.0039                 5.9939
 IR Inten    --     21.7629                11.7961                 0.8310

                    109                    110                    111
                      A                      A                      A
 Frequencies --   3049.3662              3066.4479              3067.6945
 Red. masses --      1.0934                 1.1016                 1.1022
 Frc consts  --      5.9903                 6.1033                 6.1114
 IR Inten    --      3.3618                 9.1422                70.4109

                    112                    113                    114
                      A                      A                      A
 Frequencies --   3070.6906              3095.6218              3095.8270
 Red. masses --      1.1016                 1.1021                 1.1000
 Frc consts  --      6.1200                 6.2224                 6.2117
 IR Inten    --     25.6166                50.1217                23.7875

                    115                    116                    117
                      A                      A                      A
 Frequencies --   3096.3701              3097.6206              3099.9782
 Red. masses --      1.0975                 1.1022                 1.1009
 Frc consts  --      6.1998                 6.2313                 6.2333
 IR Inten    --     45.5141                64.0989                33.4318

                    118                    119                    120
                      A                      A                      A
 Frequencies --   3101.3819              3103.5379              3111.5616
 Red. masses --      1.1011                 1.1009                 1.0997
 Frc consts  --      6.2401                 6.2477                 6.2732
 IR Inten    --     49.2593                51.2913                34.3044

 - Thermochemistry -
 -------------------
 Temperature   298.150 Kelvin.  Pressure   1.00000 Atm.
 Atom     1 has atomic number  6 and mass  12.00000

 Molecular mass:   200.21402 amu.
 Principal axes and moments of inertia in atomic units:
                           1         2         3
     Eigenvalues --  1851.574528242.653589790.32945
           X            1.00000  -0.00094  -0.00056
           Y            0.00094   1.00000  -0.00173
           Z            0.00056   0.00173   1.00000
 This molecule is an asymmetric top.
 Rotational symmetry number  1.
 Warning -- assumption of classical behavior for rotation
           may cause significant error
 Rotational temperatures (Kelvin)      0.04678     0.01051     0.00885
 Rotational constants (GHZ):           0.97471     0.21895     0.18434
 Zero-point vibrational energy    1025922.8 (Joules/Mol)
                                  245.20143 (Kcal/Mol)
 Warning -- explicit consideration of  27 degrees of freedom as
           vibrations may cause significant error
 Vibrational temperatures:     29.11    38.69    60.60    91.81   108.85
          (Kelvin)            113.99   140.04   146.38   160.96   194.06
                              233.55   297.58   301.90   316.84   347.42
                              357.65   362.39   373.53   436.44   446.92
                              501.21   581.50   630.03   637.74   681.71
                              774.62   816.89  1056.35  1082.69  1110.55
                             1138.89  1199.43  1228.43  1239.94  1306.45
                             1310.39  1319.31  1379.34  1382.55  1413.30
                             1434.99  1483.74  1488.18  1497.28  1516.86
                             1526.57  1544.34  1559.85  1617.71  1636.63
                             1646.15  1674.62  1690.02  1714.99  1723.60
                             1789.20  1795.42  1835.71  1847.13  1861.33
                             1872.75  1880.97  1893.94  1903.75  1915.43
                             1941.77  1973.39  1979.82  1983.07  1992.55
                             2000.45  2015.38  2029.88  2031.50  2033.14
                             2036.01  2074.07  2128.54  2129.65  2139.65
                             2145.25  2150.02  2151.73  2153.45  2157.32
                             2157.48  2158.02  2169.74  2173.09  2176.06
                             2178.58  2199.40  4225.62  4237.69  4290.16
                             4298.97  4329.76  4334.74  4338.49  4348.02
                             4349.72  4351.84  4357.44  4359.35  4359.59
                             4362.35  4380.27  4380.68  4387.36  4411.93
                             4413.73  4418.04  4453.91  4454.20  4454.99
                             4456.79  4460.18  4462.20  4465.30  4476.84

 Zero-point correction=                           0.390753 (Hartree/Particle)
 Thermal correction to Energy=                    0.409786
 Thermal correction to Enthalpy=                  0.410731
 Thermal correction to Gibbs Free Energy=         0.341391
 Sum of electronic and zero-point Energies=           -587.139764
 Sum of electronic and thermal Energies=              -587.120731
 Sum of electronic and thermal Enthalpies=            -587.119787
 Sum of electronic and thermal Free Energies=         -587.189127

                     E (Thermal)             CV                S
                      KCal/Mol        Cal/Mol-Kelvin    Cal/Mol-Kelvin
 Total                  257.145             68.147            145.938
 Electronic               0.000              0.000              0.000
 Translational            0.889              2.981             41.787
 Rotational               0.889              2.981             33.368
 Vibrational            255.367             62.186             70.783
 Vibration     1          0.593              1.986              6.611
 Vibration     2          0.593              1.984              6.046
 Vibration     3          0.595              1.980              5.157
 Vibration     4          0.597              1.972              4.336
 Vibration     5          0.599              1.965              4.001
 Vibration     6          0.600              1.963              3.910
 Vibration     7          0.603              1.951              3.507
 Vibration     8          0.604              1.948              3.421
 Vibration     9          0.607              1.940              3.236
 Vibration    10          0.613              1.919              2.875
 Vibration    11          0.622              1.889              2.522
 Vibration    12          0.641              1.830              2.072
 Vibration    13          0.642              1.826              2.045
 Vibration    14          0.647              1.810              1.957
 Vibration    15          0.658              1.777              1.792
 Vibration    16          0.662              1.765              1.741
 Vibration    17          0.664              1.760              1.717
 Vibration    18          0.668              1.746              1.664
 Vibration    19          0.695              1.667              1.398
 Vibration    20          0.699              1.653              1.359
 Vibration    21          0.726              1.579              1.174
 Vibration    22          0.769              1.461              0.947
 Vibration    23          0.798              1.388              0.833
 Vibration    24          0.803              1.376              0.816
 Vibration    25          0.831              1.308              0.727
 Vibration    26          0.893              1.165              0.569
 Vibration    27          0.924              1.101              0.509

 Optimization completed.
    -- Stationary point found.
 Normal termination of Gaussian 16 at Mon May 22 16:22:19 2023.
