 Gaussian 16, Revision A.03,
 Gaussian 16:  ES64L-G16RevA.03 25-Dec-2016

 -----------------------------
 # opt freq b3lyp/6-31g(2df,p)
 -----------------------------

 -------------------
 Title Card Required
 -------------------
 Symbolic Z-matrix:
 Charge =  0 Multiplicity = 1

 SCF Done:  E(RB3LYP) =  -1343.34211430     A.U. after   12 cycles
 SCF Done:  E(RB3LYP) =  -1343.36484747     A.U. after   11 cycles
 SCF Done:  E(RB3LYP) =  -1343.37255152     A.U. after   11 cycles
 SCF Done:  E(RB3LYP) =  -1343.37578671     A.U. after   11 cycles
 SCF Done:  E(RB3LYP) =  -1343.37626793     A.U. after   10 cycles
 SCF Done:  E(RB3LYP) =  -1343.37763223     A.U. after   10 cycles
 SCF Done:  E(RB3LYP) =  -1343.37897293     A.U. after   11 cycles
 SCF Done:  E(RB3LYP) =  -1343.37989328     A.U. after   13 cycles
 SCF Done:  E(RB3LYP) =  -1343.38273347     A.U. after   11 cycles
 SCF Done:  E(RB3LYP) =  -1343.38456049     A.U. after   11 cycles
 SCF Done:  E(RB3LYP) =  -1343.38530606     A.U. after   11 cycles
 SCF Done:  E(RB3LYP) =  -1343.38548271     A.U. after   10 cycles
 SCF Done:  E(RB3LYP) =  -1343.38555274     A.U. after   10 cycles
 SCF Done:  E(RB3LYP) =  -1343.38564421     A.U. after   10 cycles
 SCF Done:  E(RB3LYP) =  -1343.38566468     A.U. after    9 cycles
 SCF Done:  E(RB3LYP) =  -1343.38566811     A.U. after    8 cycles
 SCF Done:  E(RB3LYP) =  -1343.38566871     A.U. after    7 cycles
 SCF Done:  E(RB3LYP) =  -1343.38566885     A.U. after    6 cycles
 Optimization completed.
    -- Stationary point found.
 Normal termination of Gaussian 16 at Sun May 28 10:36:36 2023.

 ----------------------------------------------------------------------
 #N Geom=AllCheck Guess=TCheck SCRF=Check GenChk RB3LYP/6-31G(2df,p) Fr
 eq
 ----------------------------------------------------------------------

 Structure from the checkpoint file:  "CCCCqCrqCCrOC1CCqSCrCS1.chk"
 -------------------
 Title Card Required
 -------------------
 Charge =  0 Multiplicity = 1

                         Standard orientation:
 ---------------------------------------------------------------------
 Center     Atomic      Atomic             Coordinates (Angstroms)
 Number     Number       Type             X           Y           Z
 ---------------------------------------------------------------------
      1          6           0        5.375658    1.066662    1.225892
      2          6           0        4.313780    0.928184    0.129524
      3          6           0        2.989685    0.389032    0.689753
      4          6           0        1.824172    0.130380   -0.297356
      5          6           0        1.739874    1.211924   -1.382519
      6          6           0        1.848422   -1.295233   -0.891458
      7          6           0        3.085359   -1.696593   -1.704028
      8          8           0        0.670370    0.254420    0.584027
      9          6           0       -0.608898   -0.038315    0.115399
     10          6           0       -1.610202    0.868949    0.841828
     11          6           0       -2.979084    0.191524    0.890373
     12         16           0       -3.861310    0.204921   -0.729045
     13          6           0       -4.461982    1.922743   -0.738235
     14          6           0       -2.716448   -1.255152    1.334008
     15         16           0       -1.182237   -1.796640    0.484107
     16          1           0        6.309398    1.474500    0.826410
     17          1           0        5.603126    0.097106    1.682716
     18          1           0        5.034231    1.733977    2.025086
     19          1           0        4.699292    0.280264   -0.664208
     20          1           0        4.148231    1.908281   -0.332392
     21          1           0        2.609963    1.108301    1.423989
     22          1           0        3.176096   -0.537338    1.247675
     23          1           0        2.618460    1.194111   -2.031903
     24          1           0        1.673310    2.203805   -0.925715
     25          1           0        0.862838    1.069290   -2.020777
     26          1           0        0.965931   -1.420277   -1.530282
     27          1           0        1.726558   -1.994206   -0.056517
     28          1           0        3.279725   -1.009417   -2.533523
     29          1           0        2.935932   -2.691731   -2.134176
     30          1           0        3.985604   -1.743371   -1.085483
     31          1           0       -0.683709    0.078409   -0.967312
     32          1           0       -1.640663    1.854563    0.368139
     33          1           0       -1.235501    1.007163    1.863287
     34          1           0       -3.639584    0.687736    1.608999
     35          1           0       -5.036219    2.046340   -1.658734
     36          1           0       -3.638901    2.641462   -0.742548
     37          1           0       -5.117496    2.116073    0.115132
     38          1           0       -3.532764   -1.929756    1.072018
     39          1           0       -2.572072   -1.287786    2.417819
 ---------------------------------------------------------------------

 SCF Done:  E(RB3LYP) =  -1343.38566885     A.U. after    1 cycles

 The electronic state is 1-A.
 Alpha  occ. eigenvalues --  -88.86501 -88.85020 -19.14024 -10.25513 -10.23942
 Alpha  occ. eigenvalues --  -10.22517 -10.21179 -10.21068 -10.19202 -10.17871
 Alpha  occ. eigenvalues --  -10.17709 -10.17548 -10.17414 -10.17308 -10.17197
 Alpha  occ. eigenvalues --   -7.92820  -7.91428  -5.89307  -5.88968  -5.88328
 Alpha  occ. eigenvalues --   -5.87889  -5.87566  -5.86958  -1.03320  -0.84910
 Alpha  occ. eigenvalues --   -0.81081  -0.77141  -0.76575  -0.73431  -0.71937
 Alpha  occ. eigenvalues --   -0.70430  -0.67935  -0.63964  -0.63449  -0.59920
 Alpha  occ. eigenvalues --   -0.57039  -0.55615  -0.53876  -0.49895  -0.48064
 Alpha  occ. eigenvalues --   -0.46766  -0.46071  -0.45535  -0.43432  -0.42924
 Alpha  occ. eigenvalues --   -0.42564  -0.42237  -0.41048  -0.40401  -0.39554
 Alpha  occ. eigenvalues --   -0.38572  -0.37886  -0.37379  -0.37040  -0.36580
 Alpha  occ. eigenvalues --   -0.36050  -0.35438  -0.34680  -0.33617  -0.32891
 Alpha  occ. eigenvalues --   -0.32614  -0.31969  -0.30425  -0.30043  -0.29310
 Alpha  occ. eigenvalues --   -0.25031  -0.22377  -0.20945
 Alpha virt. eigenvalues --    0.03281   0.03980   0.06846   0.07274   0.07825
 Alpha virt. eigenvalues --    0.08624   0.09439   0.11438   0.11727   0.12268
 Alpha virt. eigenvalues --    0.12688   0.13091   0.13215   0.14274   0.14929

 Mulliken charges:
               1
     1  C   -0.379940
     2  C   -0.185634
     3  C   -0.200787
     4  C    0.346536
     5  C   -0.431954
     6  C   -0.206870
     7  C   -0.408614
     8  O   -0.298584
     9  C    0.124168
    10  C   -0.252413
    11  C   -0.012076
    12  S   -0.132373
    13  C   -0.385933
    14  C   -0.230673
    15  S   -0.195153
    16  H    0.109665
    17  H    0.115087
    18  H    0.114991
    19  H    0.100488
    20  H    0.098194
    21  H    0.105152
    22  H    0.096722
    23  H    0.124143
    24  H    0.118098
    25  H    0.115023
    26  H    0.107968
    27  H    0.127128
    28  H    0.116443
    29  H    0.118967
    30  H    0.124396
    31  H    0.121179
    32  H    0.109659
    33  H    0.121771
    34  H    0.103270
    35  H    0.150407
    36  H    0.139804
    37  H    0.139061
    38  H    0.143350
    39  H    0.129333
 Sum of Mulliken charges =  -0.00000

 Dipole moment (field-independent basis, Debye):
    X=              0.1088    Y=              2.6222    Z=              0.2612  Tot=              2.6374
 Quadrupole moment (field-independent basis, Debye-Ang):
   XX=           -103.6528   YY=           -109.1562   ZZ=           -108.3827
   XY=             -7.1059   XZ=             -6.2755   YZ=             -1.0203

  Exact polarizability: 207.596  -3.240 160.734   1.006  -2.762 146.492
 Approx polarizability: 254.717  -1.743 251.997   0.055  -3.615 236.060

                      1                      2                      3
                      A                      A                      A
 Frequencies --     29.7012                31.4992                56.3602
 Red. masses --      3.8725                 4.0489                 3.4680
 Frc consts  --      0.0020                 0.0024                 0.0065
 IR Inten    --      0.5356                 0.3083                 2.1294

                      4                      5                      6
                      A                      A                      A
 Frequencies --     65.2262                71.5823                94.5855
 Red. masses --      3.6856                 2.0942                 6.1234
 Frc consts  --      0.0092                 0.0063                 0.0323
 IR Inten    --      0.3949                 0.4858                 0.5379

                      7                      8                      9
                      A                      A                      A
 Frequencies --    107.0285               111.5626               124.3776
 Red. masses --      2.1572                 2.0735                 2.9423
 Frc consts  --      0.0146                 0.0152                 0.0268
 IR Inten    --      0.3585                 0.3060                 0.0985

                     10                     11                     12
                      A                      A                      A
 Frequencies --    167.7179               185.2499               215.5430
 Red. masses --      1.1522                 2.6916                 2.6350
 Frc consts  --      0.0191                 0.0544                 0.0721
 IR Inten    --      0.5123                 0.7927                 0.9103

                     13                     14                     15
                      A                      A                      A
 Frequencies --    224.2169               245.3894               248.9705
 Red. masses --      3.5092                 1.3632                 1.8647
 Frc consts  --      0.1039                 0.0484                 0.0681
 IR Inten    --      0.1789                 0.2202                 0.2450

                     16                     17                     18
                      A                      A                      A
 Frequencies --    259.0562               275.7376               287.0373
 Red. masses --      1.2717                 1.2838                 3.7756
 Frc consts  --      0.0503                 0.0575                 0.1833
 IR Inten    --      0.5561                 0.0172                 0.8766

                     19                     20                     21
                      A                      A                      A
 Frequencies --    318.2901               323.3411               346.8207
 Red. masses --      2.6807                 2.5468                 2.3682
 Frc consts  --      0.1600                 0.1569                 0.1678
 IR Inten    --      0.8567                 0.3258                 0.4931

                     22                     23                     24
                      A                      A                      A
 Frequencies --    375.8052               402.1513               452.3129
 Red. masses --      2.5183                 3.0067                 3.8115
 Frc consts  --      0.2095                 0.2865                 0.4594
 IR Inten    --      0.4527                 1.2502                 3.5565

                     25                     26                     27
                      A                      A                      A
 Frequencies --    476.0355               516.4101               574.1699
 Red. masses --      2.7543                 4.9993                 4.1188
 Frc consts  --      0.3677                 0.7855                 0.8000
 IR Inten    --      2.6892                 1.7196                12.5205

                     28                     29                     30
                      A                      A                      A
 Frequencies --    623.0659               640.6356               682.8386
 Red. masses --      3.6585                 4.5240                 4.3254
 Frc consts  --      0.8368                 1.0939                 1.1883
 IR Inten    --      2.1244                18.1904                13.4967

                     31                     32                     33
                      A                      A                      A
 Frequencies --    717.8069               725.8876               747.6945
 Red. masses --      6.0766                 2.0928                 1.4174
 Frc consts  --      1.8447                 0.6497                 0.4669
 IR Inten    --      0.7401                 0.4647                 1.0774

                     34                     35                     36
                      A                      A                      A
 Frequencies --    768.1776               797.7117               853.1871
 Red. masses --      3.3413                 1.1875                 1.8039
 Frc consts  --      1.1617                 0.4452                 0.7737
 IR Inten    --      6.6367                 1.9730                 7.3208

                     37                     38                     39
                      A                      A                      A
 Frequencies --    886.0628               897.3971               911.2531
 Red. masses --      1.5810                 1.8172                 2.0959
 Frc consts  --      0.7313                 0.8622                 1.0254
 IR Inten    --      1.4803                 7.5135                 8.5154

                     40                     41                     42
                      A                      A                      A
 Frequencies --    916.2269               942.2034               962.3188
 Red. masses --      1.7895                 1.7864                 1.5018
 Frc consts  --      0.8851                 0.9344                 0.8194
 IR Inten    --      4.5693                 2.4105                10.4527

                     43                     44                     45
                      A                      A                      A
 Frequencies --    967.8944               987.5611              1001.9491
 Red. masses --      1.2780                 1.6887                 1.8623
 Frc consts  --      0.7054                 0.9703                 1.1015
 IR Inten    --     14.6916                 8.6969                11.5813

                     46                     47                     48
                      A                      A                      A
 Frequencies --   1012.8221              1026.4995              1053.5018
 Red. masses --      1.7151                 1.8277                 2.3062
 Frc consts  --      1.0366                 1.1347                 1.5081
 IR Inten    --      1.1771                10.5125                 1.1810

                     49                     50                     51
                      A                      A                      A
 Frequencies --   1058.4303              1083.7432              1085.0213
 Red. masses --      2.0626                 2.2482                 1.6681
 Frc consts  --      1.3614                 1.5558                 1.1570
 IR Inten    --      6.6469                54.8965                77.9795

                     52                     53                     54
                      A                      A                      A
 Frequencies --   1096.7992              1114.1760              1129.4104
 Red. masses --      2.1776                 2.6578                 1.1374
 Frc consts  --      1.5434                 1.9439                 0.8548
 IR Inten    --    113.7929               162.5139                 7.5286

                     55                     56                     57
                      A                      A                      A
 Frequencies --   1156.1376              1177.5549              1218.5577
 Red. masses --      2.2821                 1.1544                 1.7974
 Frc consts  --      1.7972                 0.9431                 1.5725
 IR Inten    --     25.4440                 2.4595                13.9255

                     58                     59                     60
                      A                      A                      A
 Frequencies --   1223.8255              1242.5441              1260.6898
 Red. masses --      1.9017                 2.0334                 1.3504
 Frc consts  --      1.6782                 1.8497                 1.2645
 IR Inten    --      2.2606                14.4263                28.2408

                     61                     62                     63
                      A                      A                      A
 Frequencies --   1286.5398              1292.8297              1300.0785
 Red. masses --      1.2930                 1.3797                 1.4117
 Frc consts  --      1.2609                 1.3586                 1.4058
 IR Inten    --     26.8575                 8.9418                 8.3348

                     64                     65                     66
                      A                      A                      A
 Frequencies --   1316.9409              1326.0482              1333.9394
 Red. masses --      1.3863                 1.3475                 1.2395
 Frc consts  --      1.4166                 1.3960                 1.2995
 IR Inten    --      0.4419                 2.8440                 2.5092

                     67                     68                     69
                      A                      A                      A
 Frequencies --   1341.2884              1353.3929              1377.9586
 Red. masses --      1.2332                 1.1680                 1.4247
 Frc consts  --      1.3072                 1.2605                 1.5939
 IR Inten    --      1.7466                 1.9382                 4.6636

                     70                     71                     72
                      A                      A                      A
 Frequencies --   1383.2226              1397.4362              1408.3405
 Red. masses --      1.3346                 1.4296                 1.3046
 Frc consts  --      1.5044                 1.6448                 1.5246
 IR Inten    --     15.1053                 6.4107                10.5233

                     73                     74                     75
                      A                      A                      A
 Frequencies --   1412.6027              1415.9032              1464.9445
 Red. masses --      1.2357                 1.2317                 1.0622
 Frc consts  --      1.4528                 1.4548                 1.3431
 IR Inten    --      0.4459                13.9198                 5.8826

                     76                     77                     78
                      A                      A                      A
 Frequencies --   1474.3088              1479.2595              1481.7141
 Red. masses --      1.0761                 1.0723                 1.0541
 Frc consts  --      1.3781                 1.3825                 1.3635
 IR Inten    --      4.6230                 2.7415                 8.5211

                     79                     80                     81
                      A                      A                      A
 Frequencies --   1484.1760              1489.5922              1489.8764
 Red. masses --      1.0600                 1.0858                 1.0591
 Frc consts  --      1.3757                 1.4196                 1.3851
 IR Inten    --      0.8720                 3.8593                 2.0562

                     82                     83                     84
                      A                      A                      A
 Frequencies --   1498.5965              1499.6937              1503.5972
 Red. masses --      1.0455                 1.0428                 1.0504
 Frc consts  --      1.3834                 1.3819                 1.3991
 IR Inten    --      0.7698                 6.7061                 5.7027

                     85                     86                     87
                      A                      A                      A
 Frequencies --   1504.6617              1510.9171              1517.2195
 Red. masses --      1.0487                 1.0803                 1.0784
 Frc consts  --      1.3989                 1.4531                 1.4626
 IR Inten    --      5.6476                 5.5150                 1.2041

                     88                     89                     90
                      A                      A                      A
 Frequencies --   3024.0289              3028.8185              3029.7418
 Red. masses --      1.0584                 1.0447                 1.0536
 Frc consts  --      5.7027                 5.6466                 5.6980
 IR Inten    --      2.8754                48.9955                12.8967

                     91                     92                     93
                      A                      A                      A
 Frequencies --   3035.9865              3039.2400              3039.5428
 Red. masses --      1.0616                 1.0352                 1.0400
 Frc consts  --      5.7653                 5.6339                 5.6610
 IR Inten    --      9.8786                27.7329                20.9242

                     94                     95                     96
                      A                      A                      A
 Frequencies --   3040.8165              3044.6954              3045.8274
 Red. masses --      1.0533                 1.0431                 1.0716
 Frc consts  --      5.7381                 5.6970                 5.8570
 IR Inten    --     20.2894                23.2236                 9.8435

                     97                     98                     99
                      A                      A                      A
 Frequencies --   3059.1351              3060.3973              3070.0980
 Red. masses --      1.0711                 1.0963                 1.0991
 Frc consts  --      5.9057                 6.0496                 6.1040
 IR Inten    --     46.0925                 2.2163                 4.9101

                    100                    101                    102
                      A                      A                      A
 Frequencies --   3078.5002              3079.2314              3095.5913
 Red. masses --      1.1003                 1.0890                 1.0983
 Frc consts  --      6.1436                 6.0834                 6.2009
 IR Inten    --      7.2661                 2.1394                18.6716

                    103                    104                    105
                      A                      A                      A
 Frequencies --   3100.4902              3101.8598              3103.7773
 Red. masses --      1.1027                 1.1009                 1.1006
 Frc consts  --      6.2457                 6.2406                 6.2467
 IR Inten    --     75.4885                31.0145                18.5481

                    106                    107                    108
                      A                      A                      A
 Frequencies --   3111.2965              3116.9677              3118.6597
 Red. masses --      1.1006                 1.1010                 1.1067
 Frc consts  --      6.2770                 6.3023                 6.3417
 IR Inten    --     36.3830                43.9345                11.8865

                    109                    110                    111
                      A                      A                      A
 Frequencies --   3120.6455              3123.3698              3138.1184
 Red. masses --      1.1024                 1.0998                 1.1023
 Frc consts  --      6.3252                 6.3212                 6.3955
 IR Inten    --      3.5246                22.2620                 5.4568

 - Thermochemistry -
 -------------------
 Temperature   298.150 Kelvin.  Pressure   1.00000 Atm.
 Atom     1 has atomic number  6 and mass  12.00000

 Molecular mass:   248.12686 amu.
 Principal axes and moments of inertia in atomic units:
                           1         2         3
     Eigenvalues --  1997.374498687.980569104.70586
           X            0.99997  -0.00665  -0.00462
           Y            0.00681   0.99937   0.03476
           Z            0.00439  -0.03479   0.99938
 This molecule is an asymmetric top.
 Rotational symmetry number  1.
 Warning -- assumption of classical behavior for rotation
           may cause significant error
 Rotational temperatures (Kelvin)      0.04336     0.00997     0.00951
 Rotational constants (GHZ):           0.90356     0.20773     0.19822
 Zero-point vibrational energy     901432.1 (Joules/Mol)
                                  215.44744 (Kcal/Mol)
 Warning -- explicit consideration of  27 degrees of freedom as
           vibrations may cause significant error
 Vibrational temperatures:     42.73    45.32    81.09    93.85   102.99
          (Kelvin)            136.09   153.99   160.51   178.95   241.31
                              266.53   310.12   322.60   353.06   358.21
                              372.72   396.72   412.98   457.95   465.22
                              499.00   540.70   578.61   650.78   684.91
                              743.00   826.10   896.45   921.73   982.45
                             1032.76  1044.39  1075.77  1105.24  1147.73
                             1227.55  1274.85  1291.15  1311.09  1318.25
                             1355.62  1384.56  1392.58  1420.88  1441.58
                             1457.23  1476.90  1515.75  1522.85  1559.26
                             1561.10  1578.05  1603.05  1624.97  1663.42
                             1694.24  1753.23  1760.81  1787.74  1813.85
                             1851.04  1860.09  1870.52  1894.78  1907.89
                             1919.24  1929.81  1947.23  1982.58  1990.15
                             2010.60  2026.29  2032.42  2037.17  2107.73
                             2121.20  2128.32  2131.86  2135.40  2143.19
                             2143.60  2156.15  2157.72  2163.34  2164.87
                             2173.87  2182.94  4350.90  4357.79  4359.12
                             4368.11  4372.79  4373.22  4375.06  4380.64
                             4382.27  4401.41  4403.23  4417.19  4429.28
                             4430.33  4453.87  4460.91  4462.88  4465.64
                             4476.46  4484.62  4487.06  4489.91  4493.83
                             4515.05

 Zero-point correction=                           0.343337 (Hartree/Particle)
 Thermal correction to Energy=                    0.362396
 Thermal correction to Enthalpy=                  0.363340
 Thermal correction to Gibbs Free Energy=         0.294993
 Sum of electronic and zero-point Energies=          -1343.042331
 Sum of electronic and thermal Energies=             -1343.023273
 Sum of electronic and thermal Enthalpies=           -1343.022329
 Sum of electronic and thermal Free Energies=        -1343.090675

                     E (Thermal)             CV                S
                      KCal/Mol        Cal/Mol-Kelvin    Cal/Mol-Kelvin
 Total                  227.407             70.222            143.848
 Electronic               0.000              0.000              0.000
 Translational            0.889              2.981             42.427
 Rotational               0.889              2.981             33.424
 Vibrational            225.629             64.260             67.997
 Vibration     1          0.593              1.984              5.849
 Vibration     2          0.594              1.983              5.733
 Vibration     3          0.596              1.975              4.581
 Vibration     4          0.597              1.971              4.292
 Vibration     5          0.598              1.968              4.109
 Vibration     6          0.603              1.953              3.563
 Vibration     7          0.606              1.944              3.322
 Vibration     8          0.607              1.940              3.242
 Vibration     9          0.610              1.929              3.031
 Vibration    10          0.624              1.882              2.461
 Vibration    11          0.631              1.860              2.275
 Vibration    12          0.645              1.817              1.996
 Vibration    13          0.649              1.804              1.925
 Vibration    14          0.660              1.770              1.763
 Vibration    15          0.662              1.764              1.738
 Vibration    16          0.668              1.747              1.668
 Vibration    17          0.677              1.718              1.560
 Vibration    18          0.684              1.698              1.491
 Vibration    19          0.705              1.639              1.319
 Vibration    20          0.708              1.629              1.293
 Vibration    21          0.725              1.582              1.181
 Vibration    22          0.747              1.522              1.056
 Vibration    23          0.768              1.465              0.955
 Vibration    24          0.811              1.356              0.789
 Vibration    25          0.833              1.303              0.721
 Vibration    26          0.871              1.214              0.618
 Vibration    27          0.930              1.087              0.496

                           ! Non-Optimized Parameters !
 Normal termination of Gaussian 16 at Sun May 28 13:58:34 2023.
