 Gaussian 16, Revision A.03,
 Gaussian 16:  ES64L-G16RevA.03 25-Dec-2016

 -----------------------------
 # opt freq b3lyp/6-31g(2df,p)
 -----------------------------

 -------------------
 Title Card Required
 -------------------
 Symbolic Z-matrix:
 Charge =  0 Multiplicity = 1

 SCF Done:  E(RB3LYP) =  -662.697654390     A.U. after   12 cycles
 SCF Done:  E(RB3LYP) =  -662.716832976     A.U. after   11 cycles
 SCF Done:  E(RB3LYP) =  -662.721610224     A.U. after   10 cycles
 SCF Done:  E(RB3LYP) =  -662.724743388     A.U. after   11 cycles
 SCF Done:  E(RB3LYP) =  -662.726202289     A.U. after   10 cycles
 SCF Done:  E(RB3LYP) =  -662.727910868     A.U. after   10 cycles
 SCF Done:  E(RB3LYP) =  -662.729053332     A.U. after   10 cycles
 SCF Done:  E(RB3LYP) =  -662.729694204     A.U. after   10 cycles
 SCF Done:  E(RB3LYP) =  -662.729856125     A.U. after   10 cycles
 SCF Done:  E(RB3LYP) =  -662.730038485     A.U. after    9 cycles
 SCF Done:  E(RB3LYP) =  -662.730090203     A.U. after    9 cycles
 SCF Done:  E(RB3LYP) =  -662.730105465     A.U. after   10 cycles
 SCF Done:  E(RB3LYP) =  -662.730134325     A.U. after    9 cycles
 SCF Done:  E(RB3LYP) =  -662.730139091     A.U. after    8 cycles
 SCF Done:  E(RB3LYP) =  -662.730142107     A.U. after    7 cycles
 SCF Done:  E(RB3LYP) =  -662.730143962     A.U. after    7 cycles
 SCF Done:  E(RB3LYP) =  -662.730144946     A.U. after    7 cycles
 SCF Done:  E(RB3LYP) =  -662.730145146     A.U. after    6 cycles
 SCF Done:  E(RB3LYP) =  -662.730145186     A.U. after    6 cycles
 Optimization completed.
    -- Stationary point found.
 Normal termination of Gaussian 16 at Mon May 22 09:59:38 2023.

 ----------------------------------------------------------------------
 #N Geom=AllCheck Guess=TCheck SCRF=Check GenChk RB3LYP/6-31G(2df,p) Fr
 eq
 ----------------------------------------------------------------------

 Structure from the checkpoint file:  "CCCCCCqCCrCqCCrqCOrOC.chk"
 -------------------
 Title Card Required
 -------------------
 Charge =  0 Multiplicity = 1

                         Standard orientation:
 ---------------------------------------------------------------------
 Center     Atomic      Atomic             Coordinates (Angstroms)
 Number     Number       Type             X           Y           Z
 ---------------------------------------------------------------------
      1          6           0       -5.900978   -0.552660    0.290471
      2          6           0       -4.675588    0.204710   -0.228397
      3          6           0       -3.347771   -0.396367    0.245144
      4          6           0       -2.116040    0.357395   -0.269068
      5          6           0       -0.794469   -0.265674    0.200552
      6          6           0        0.460544    0.468912   -0.318178
      7          6           0        0.567807    1.914964    0.248321
      8          6           0        0.306897    2.996515   -0.806790
      9          6           0        1.771699   -0.371334   -0.162553
     10          6           0        2.013368   -0.945972    1.249992
     11          6           0        2.132843    0.047454    2.411375
     12          6           0        1.794966   -1.536047   -1.196613
     13          8           0        0.936036   -2.636294   -0.924853
     14          8           0        2.805600    0.542410   -0.580556
     15          6           0        4.161612    0.203991   -0.387103
     16          1           0       -6.832572   -0.100737   -0.064835
     17          1           0       -5.929668   -0.556133    1.385996
     18          1           0       -5.890224   -1.597093   -0.041057
     19          1           0       -4.731627    1.254339    0.089942
     20          1           0       -4.693193    0.221571   -1.326310
     21          1           0       -3.290570   -1.446577   -0.073606
     22          1           0       -3.330732   -0.414493    1.344288
     23          1           0       -2.179812    1.405191    0.051813
     24          1           0       -2.135643    0.374664   -1.367894
     25          1           0       -0.764929   -1.309712   -0.122758
     26          1           0       -0.781292   -0.277348    1.299670
     27          1           0        0.342095    0.570430   -1.405588
     28          1           0        1.563654    2.080797    0.659118
     29          1           0       -0.139650    2.037928    1.077671
     30          1           0        1.050132    2.932610   -1.608347
     31          1           0        0.367737    3.999831   -0.371492
     32          1           0       -0.683764    2.890171   -1.261910
     33          1           0        2.922795   -1.561644    1.216698
     34          1           0        1.194446   -1.640531    1.463774
     35          1           0        2.905810    0.799047    2.229495
     36          1           0        2.393954   -0.484066    3.332215
     37          1           0        1.195259    0.578115    2.591534
     38          1           0        2.828949   -1.889731   -1.303982
     39          1           0        1.485325   -1.141173   -2.168168
     40          1           0        1.318516   -3.144447   -0.203795
     41          1           0        4.741150    1.018470   -0.830351
     42          1           0        4.456431   -0.729665   -0.885298
     43          1           0        4.435004    0.125932    0.673520
 ---------------------------------------------------------------------

 SCF Done:  E(RB3LYP) =  -662.730145186     A.U. after    1 cycles

 The electronic state is 1-A.
 Alpha  occ. eigenvalues --  -19.14075 -19.13694 -10.23345 -10.22419 -10.22203
 Alpha  occ. eigenvalues --  -10.18412 -10.17551 -10.17443 -10.17118 -10.16809
 Alpha  occ. eigenvalues --  -10.16728 -10.16612 -10.16338 -10.16289 -10.16017
 Alpha  occ. eigenvalues --   -1.02839  -1.01650  -0.81389  -0.78809  -0.76486
 Alpha  occ. eigenvalues --   -0.73543  -0.73046  -0.68518  -0.67920  -0.63762
 Alpha  occ. eigenvalues --   -0.63279  -0.59028  -0.57395  -0.56606  -0.53700
 Alpha  occ. eigenvalues --   -0.50998  -0.48516  -0.47046  -0.46620  -0.45304
 Alpha  occ. eigenvalues --   -0.44542  -0.42875  -0.42494  -0.41756  -0.41377
 Alpha  occ. eigenvalues --   -0.40893  -0.40525  -0.39161  -0.38082  -0.37204
 Alpha  occ. eigenvalues --   -0.36714  -0.36264  -0.35685  -0.35063  -0.34168
 Alpha  occ. eigenvalues --   -0.33062  -0.32864  -0.32372  -0.31957  -0.31335
 Alpha  occ. eigenvalues --   -0.31254  -0.30950  -0.29827  -0.28976  -0.27152
 Alpha  occ. eigenvalues --   -0.23885
 Alpha virt. eigenvalues --    0.06548   0.08170   0.09498   0.10120   0.10696
 Alpha virt. eigenvalues --    0.11574   0.11957   0.12690   0.13232   0.14045
 Alpha virt. eigenvalues --    0.14424   0.14727   0.14887   0.15927   0.16647

 Mulliken charges:
               1
     1  C   -0.378782
     2  C   -0.163519
     3  C   -0.160950
     4  C   -0.188671
     5  C   -0.228836
     6  C    0.010021
     7  C   -0.183042
     8  C   -0.391620
     9  C    0.288550
    10  C   -0.237525
    11  C   -0.397933
    12  C   -0.098983
    13  O   -0.408537
    14  O   -0.279542
    15  C   -0.250162
    16  H    0.108430
    17  H    0.111044
    18  H    0.112356
    19  H    0.091881
    20  H    0.093015
    21  H    0.092880
    22  H    0.086734
    23  H    0.095516
    24  H    0.090259
    25  H    0.121656
    26  H    0.084718
    27  H    0.069931
    28  H    0.106555
    29  H    0.080724
    30  H    0.120720
    31  H    0.102273
    32  H    0.112365
    33  H    0.085015
    34  H    0.106698
    35  H    0.127079
    36  H    0.107732
    37  H    0.130168
    38  H    0.085782
    39  H    0.116299
    40  H    0.286004
    41  H    0.128390
    42  H    0.106386
    43  H    0.108920
 Sum of Mulliken charges =  -0.00000

 Dipole moment (field-independent basis, Debye):
    X=              1.6721    Y=             -0.8787    Z=              1.2115  Tot=              2.2441
 Quadrupole moment (field-independent basis, Debye-Ang):
   XX=            -91.8521   YY=            -98.1567   ZZ=            -98.1206
   XY=             -4.6625   XZ=              1.2380   YZ=             -2.3163

  Exact polarizability: 177.362   0.850 143.593   0.214  -2.129 134.430
 Approx polarizability: 212.409   1.156 207.242   0.015  -1.761 204.361

                      1                      2                      3
                      A                      A                      A
 Frequencies --     27.2287                39.4260                52.8027
 Red. masses --      2.6409                 3.0103                 2.9830
 Frc consts  --      0.0012                 0.0028                 0.0049
 IR Inten    --      0.1693                 0.2078                 0.4168

                      4                      5                      6
                      A                      A                      A
 Frequencies --     64.4450                71.2982                86.2133
 Red. masses --      1.8569                 2.7002                 1.8029
 Frc consts  --      0.0045                 0.0081                 0.0079
 IR Inten    --      0.0685                 0.2267                 0.2497

                      7                      8                      9
                      A                      A                      A
 Frequencies --    113.8785               135.8818               145.0431
 Red. masses --      2.4328                 2.5099                 2.1364
 Frc consts  --      0.0186                 0.0273                 0.0265
 IR Inten    --      1.1183                 0.9278                 0.5773

                     10                     11                     12
                      A                      A                      A
 Frequencies --    152.4043               166.2993               194.3632
 Red. masses --      2.1682                 2.9346                 1.7848
 Frc consts  --      0.0297                 0.0478                 0.0397
 IR Inten    --      1.0804                 1.0289                 2.8849

                     13                     14                     15
                      A                      A                      A
 Frequencies --    206.3028               211.7372               230.4073
 Red. masses --      2.4397                 2.3148                 1.5763
 Frc consts  --      0.0612                 0.0611                 0.0493
 IR Inten    --      0.3366                 0.0757                 2.9736

                     16                     17                     18
                      A                      A                      A
 Frequencies --    243.4424               248.3393               257.9271
 Red. masses --      1.2682                 1.1515                 1.9511
 Frc consts  --      0.0443                 0.0418                 0.0765
 IR Inten    --      1.2054                 0.0490                 3.8181

                     19                     20                     21
                      A                      A                      A
 Frequencies --    281.7170               295.3218               313.6419
 Red. masses --      2.6330                 2.5004                 1.3499
 Frc consts  --      0.1231                 0.1285                 0.0782
 IR Inten    --      1.3830                11.7300                83.7057

                     22                     23                     24
                      A                      A                      A
 Frequencies --    326.1171               362.3576               366.1843
 Red. masses --      2.0905                 2.3405                 2.7319
 Frc consts  --      0.1310                 0.1811                 0.2158
 IR Inten    --     30.6072                 1.4641                 0.5363

                     25                     26                     27
                      A                      A                      A
 Frequencies --    396.9302               435.8804               444.4657
 Red. masses --      2.4310                 4.2040                 3.1592
 Frc consts  --      0.2257                 0.4706                 0.3677
 IR Inten    --      2.8101                 4.1450                 0.5921

                     28                     29                     30
                      A                      A                      A
 Frequencies --    526.0171               559.3557               598.4803
 Red. masses --      2.6873                 2.7721                 3.7791
 Frc consts  --      0.4381                 0.5110                 0.7975
 IR Inten    --      0.2007                 2.2462                10.3039

                     31                     32                     33
                      A                      A                      A
 Frequencies --    717.1979               734.8479               759.8595
 Red. masses --      2.4631                 1.0680                 1.1589
 Frc consts  --      0.7465                 0.3398                 0.3942
 IR Inten    --      1.4659                 3.2405                 0.2882

                     34                     35                     36
                      A                      A                      A
 Frequencies --    772.2139               806.4983               826.5988
 Red. masses --      1.2445                 1.3377                 1.5214
 Frc consts  --      0.4372                 0.5126                 0.6125
 IR Inten    --      2.4641                 6.8337                 0.9246

                     37                     38                     39
                      A                      A                      A
 Frequencies --    873.8372               900.5472               914.5965
 Red. masses --      1.5221                 1.9174                 1.9175
 Frc consts  --      0.6848                 0.9162                 0.9450
 IR Inten    --      2.2081                 2.6094                 0.8865

                     40                     41                     42
                      A                      A                      A
 Frequencies --    941.9757               976.7226              1003.3070
 Red. masses --      2.2529                 1.3140                 1.6823
 Frc consts  --      1.1778                 0.7386                 0.9977
 IR Inten    --     31.2495                 1.5168                16.6653

                     43                     44                     45
                      A                      A                      A
 Frequencies --   1006.9979              1015.0978              1031.4642
 Red. masses --      2.3920                 3.3045                 2.7038
 Frc consts  --      1.4291                 2.0062                 1.6949
 IR Inten    --      2.2978                 1.4685                 4.5456

                     46                     47                     48
                      A                      A                      A
 Frequencies --   1049.2183              1062.8678              1064.8961
 Red. masses --      2.3439                 2.5334                 1.3688
 Frc consts  --      1.5202                 1.6862                 0.9146
 IR Inten    --      4.0591                 6.9605                 2.6458

                     49                     50                     51
                      A                      A                      A
 Frequencies --   1070.0574              1073.9974              1098.4368
 Red. masses --      2.6287                 3.4694                 2.5002
 Frc consts  --      1.7734                 2.3578                 1.7774
 IR Inten    --     16.0287                34.7361                53.7415

                     52                     53                     54
                      A                      A                      A
 Frequencies --   1099.5022              1131.3467              1151.0256
 Red. masses --      2.3404                 2.2555                 2.6885
 Frc consts  --      1.6670                 1.7009                 2.0986
 IR Inten    --     28.6935                29.4063                20.0817

                     55                     56                     57
                      A                      A                      A
 Frequencies --   1157.1742              1166.8521              1179.7001
 Red. masses --      1.8933                 2.3790                 1.3251
 Frc consts  --      1.4937                 1.9084                 1.0865
 IR Inten    --     56.6828                 5.6503                 6.8283

                     58                     59                     60
                      A                      A                      A
 Frequencies --   1192.1389              1222.0466              1233.5554
 Red. masses --      1.9809                 1.4152                 1.5483
 Frc consts  --      1.6587                 1.2452                 1.3881
 IR Inten    --      2.5863                 7.6915                 0.5462

                     61                     62                     63
                      A                      A                      A
 Frequencies --   1256.3965              1277.4905              1291.2810
 Red. masses --      1.3919                 1.5457                 1.3019
 Frc consts  --      1.2945                 1.4862                 1.2790
 IR Inten    --      6.7038                 5.0065                 0.8360

                     64                     65                     66
                      A                      A                      A
 Frequencies --   1313.5078              1323.3416              1327.8513
 Red. masses --      1.1632                 1.2507                 1.2411
 Frc consts  --      1.1824                 1.2905                 1.2893
 IR Inten    --      7.6714                 3.9396                 2.9430

                     67                     68                     69
                      A                      A                      A
 Frequencies --   1330.2876              1336.3339              1348.3711
 Red. masses --      1.0655                 1.3049                 1.1915
 Frc consts  --      1.1109                 1.3730                 1.2763
 IR Inten    --      0.8710                 7.3809                 1.4926

                     70                     71                     72
                      A                      A                      A
 Frequencies --   1357.5084              1375.1418              1388.1597
 Red. masses --      1.3516                 1.4366                 1.4315
 Frc consts  --      1.4675                 1.6006                 1.6252
 IR Inten    --      3.0009                 1.5376                 0.4398

                     73                     74                     75
                      A                      A                      A
 Frequencies --   1397.2653              1398.1079              1404.3013
 Red. masses --      1.4564                 1.2940                 1.3128
 Frc consts  --      1.6753                 1.4903                 1.5254
 IR Inten    --      7.5901                18.7821                 6.7238

                     76                     77                     78
                      A                      A                      A
 Frequencies --   1407.7128              1412.6100              1413.6707
 Red. masses --      1.2470                 1.2487                 1.2807
 Frc consts  --      1.4560                 1.4681                 1.5080
 IR Inten    --      6.1275                 1.0014                 1.6717

                     79                     80                     81
                      A                      A                      A
 Frequencies --   1418.2086              1474.0366              1482.3693
 Red. masses --      1.2556                 1.0960                 1.0810
 Frc consts  --      1.4879                 1.4031                 1.3996
 IR Inten    --      8.5762                 0.9888                 0.2769

                     82                     83                     84
                      A                      A                      A
 Frequencies --   1484.3661              1488.0865              1488.9865
 Red. masses --      1.0717                 1.0660                 1.0672
 Frc consts  --      1.3912                 1.3907                 1.3941
 IR Inten    --      0.7228                 1.0931                 1.9049

                     85                     86                     87
                      A                      A                      A
 Frequencies --   1495.9667              1496.4615              1498.5711
 Red. masses --      1.0642                 1.0814                 1.0469
 Frc consts  --      1.4032                 1.4268                 1.3851
 IR Inten    --      2.0017                 3.1037                 2.2153

                     88                     89                     90
                      A                      A                      A
 Frequencies --   1498.9428              1499.7606              1502.4273
 Red. masses --      1.0416                 1.0404                 1.0738
 Frc consts  --      1.3789                 1.3788                 1.4281
 IR Inten    --      2.9815                 4.8056                 4.2615

                     91                     92                     93
                      A                      A                      A
 Frequencies --   1506.1842              1508.8314              1510.0836
 Red. masses --      1.0465                 1.0657                 1.0768
 Frc consts  --      1.3987                 1.4294                 1.4467
 IR Inten    --      0.6852                 3.8621                 3.4333

                     94                     95                     96
                      A                      A                      A
 Frequencies --   1516.4829              1519.5515              2994.2243
 Red. masses --      1.0848                 1.0702                 1.0409
 Frc consts  --      1.4698                 1.4559                 5.4983
 IR Inten    --      3.7321                 6.1940                19.0143

                     97                     98                     99
                      A                      A                      A
 Frequencies --   2996.5683              2999.5744              3003.2014
 Red. masses --      1.0742                 1.0606                 1.0645
 Frc consts  --      5.6828                 5.6223                 5.6567
 IR Inten    --      4.3156                 1.4709                 2.0386

                    100                    101                    102
                      A                      A                      A
 Frequencies --   3009.5466              3011.8432              3017.6841
 Red. masses --      1.0684                 1.0651                 1.0634
 Frc consts  --      5.7013                 5.6925                 5.7054
 IR Inten    --     13.6707                 6.1745                95.6207

                    103                    104                    105
                      A                      A                      A
 Frequencies --   3017.9927              3022.9271              3027.1082
 Red. masses --      1.0627                 1.0960                 1.0416
 Frc consts  --      5.7028                 5.9008                 5.6238
 IR Inten    --     95.7593                 2.9120                21.0596

                    106                    107                    108
                      A                      A                      A
 Frequencies --   3027.4934              3028.4134              3040.7190
 Red. masses --      1.0677                 1.0354                 1.0995
 Frc consts  --      5.7661                 5.5951                 5.9898
 IR Inten    --     52.9426                40.3085                 0.4006

                    109                    110                    111
                      A                      A                      A
 Frequencies --   3044.8087              3047.7001              3057.9352
 Red. masses --      1.0393                 1.0988                 1.1029
 Frc consts  --      5.6771                 6.0131                 6.0764
 IR Inten    --     14.2982                66.6255                62.4745

                    112                    113                    114
                      A                      A                      A
 Frequencies --   3069.5701              3090.8353              3091.3629
 Red. masses --      1.0909                 1.0992                 1.0974
 Frc consts  --      6.0561                 6.1871                 6.1789
 IR Inten    --     15.7977                16.0348                27.7428

                    115                    116                    117
                      A                      A                      A
 Frequencies --   3093.1928              3097.8581              3098.3031
 Red. masses --      1.1019                 1.0945                 1.1007
 Frc consts  --      6.2115                 6.1884                 6.2254
 IR Inten    --     49.2939                21.6489                34.0487

                    118                    119                    120
                      A                      A                      A
 Frequencies --   3099.6116              3104.0695              3108.0801
 Red. masses --      1.0988                 1.0981                 1.0991
 Frc consts  --      6.2201                 6.2337                 6.2557
 IR Inten    --     44.7603                34.6655                26.2987

                    121                    122                    123
                      A                      A                      A
 Frequencies --   3126.0470              3127.9754              3833.0184
 Red. masses --      1.0952                 1.0977                 1.0662
 Frc consts  --      6.3060                 6.3279                 9.2298
 IR Inten    --     56.3606                 6.1495                20.9502

 - Thermochemistry -
 -------------------
 Temperature   298.150 Kelvin.  Pressure   1.00000 Atm.
 Atom     1 has atomic number  6 and mass  12.00000

 Molecular mass:   216.20893 amu.
 Principal axes and moments of inertia in atomic units:
                           1         2         3
     Eigenvalues --  2099.698556793.339317520.01355
           X            0.99999   0.00148   0.00386
           Y           -0.00136   0.99955  -0.02988
           Z           -0.00390   0.02988   0.99955
 This molecule is an asymmetric top.
 Rotational symmetry number  1.
 Warning -- assumption of classical behavior for rotation
           may cause significant error
 Rotational temperatures (Kelvin)      0.04125     0.01275     0.01152
 Rotational constants (GHZ):           0.85952     0.26566     0.23999
 Zero-point vibrational energy    1039703.2 (Joules/Mol)
                                  248.49504 (Kcal/Mol)
 Warning -- explicit consideration of  30 degrees of freedom as
           vibrations may cause significant error
 Vibrational temperatures:     39.18    56.73    75.97    92.72   102.58
          (Kelvin)            124.04   163.85   195.50   208.68   219.28
                              239.27   279.65   296.82   304.64   331.50
                              350.26   357.30   371.10   405.33   424.90
                              451.26   469.21   521.35   526.86   571.09
                              627.13   639.49   756.82   804.79   861.08
                             1031.89  1057.28  1093.27  1111.04  1160.37
                             1189.29  1257.26  1295.69  1315.90  1355.29
                             1405.29  1443.54  1448.85  1460.50  1484.05
                             1509.59  1529.23  1532.15  1539.57  1545.24
                             1580.41  1581.94  1627.76  1656.07  1664.92
                             1678.84  1697.33  1715.22  1758.25  1774.81
                             1807.67  1838.02  1857.87  1889.84  1903.99
                             1910.48  1913.99  1922.69  1940.01  1953.15
                             1978.52  1997.25  2010.35  2011.57  2020.48
                             2025.38  2032.43  2033.96  2040.49  2120.81
                             2132.80  2135.67  2141.02  2142.32  2152.36
                             2153.07  2156.11  2156.64  2157.82  2161.66
                             2167.06  2170.87  2172.67  2181.88  2186.30
                             4308.02  4311.39  4315.72  4320.94  4330.07
                             4333.37  4341.77  4342.22  4349.32  4355.33
                             4355.89  4357.21  4374.92  4380.80  4384.96
                             4399.69  4416.43  4447.02  4447.78  4450.41
                             4457.13  4457.77  4459.65  4466.06  4471.83
                             4497.68  4500.46  5514.86

 Zero-point correction=                           0.396002 (Hartree/Particle)
 Thermal correction to Energy=                    0.415956
 Thermal correction to Enthalpy=                  0.416900
 Thermal correction to Gibbs Free Energy=         0.347339
 Sum of electronic and zero-point Energies=           -662.334143
 Sum of electronic and thermal Energies=              -662.314189
 Sum of electronic and thermal Enthalpies=            -662.313245
 Sum of electronic and thermal Free Energies=         -662.382806

                     E (Thermal)             CV                S
                      KCal/Mol        Cal/Mol-Kelvin    Cal/Mol-Kelvin
 Total                  261.016             72.763            146.403
 Electronic               0.000              0.000              0.000
 Translational            0.889              2.981             42.016
 Rotational               0.889              2.981             33.039
 Vibrational            259.239             66.802             71.348
 Vibration     1          0.593              1.984              6.022
 Vibration     2          0.594              1.981              5.288
 Vibration     3          0.596              1.976              4.710
 Vibration     4          0.597              1.971              4.316
 Vibration     5          0.598              1.968              4.117
 Vibration     6          0.601              1.959              3.744
 Vibration     7          0.607              1.938              3.202
 Vibration     8          0.614              1.918              2.861
 Vibration     9          0.616              1.908              2.736
 Vibration    10          0.619              1.900              2.642
 Vibration    11          0.624              1.884              2.477
 Vibration    12          0.635              1.848              2.186
 Vibration    13          0.641              1.831              2.076
 Vibration    14          0.643              1.823              2.029
 Vibration    15          0.652              1.795              1.876
 Vibration    16          0.659              1.774              1.778
 Vibration    17          0.662              1.766              1.742
 Vibration    18          0.667              1.749              1.676
 Vibration    19          0.681              1.707              1.523
 Vibration    20          0.690              1.682              1.443
 Vibration    21          0.701              1.648              1.343
 Vibration    22          0.710              1.623              1.279
 Vibration    23          0.736              1.550              1.112
 Vibration    24          0.739              1.542              1.096
 Vibration    25          0.763              1.477              0.974
 Vibration    26          0.796              1.392              0.840
 Vibration    27          0.804              1.373              0.813
 Vibration    28          0.881              1.192              0.596
 Vibration    29          0.915              1.119              0.525
 Vibration    30          0.956              1.035              0.452

                           ! Non-Optimized Parameters !
 Normal termination of Gaussian 16 at Mon May 22 13:52:13 2023.
