 Gaussian 16, Revision A.03,
 Gaussian 16:  ES64L-G16RevA.03 25-Dec-2016

 -----------------------------
 # opt freq b3lyp/6-31g(2df,p)
 -----------------------------

 -------------------
 Title Card Required
 -------------------
 Symbolic Z-matrix:
 Charge =  0 Multiplicity = 1

 SCF Done:  E(RB3LYP) =  -584.114871575     A.U. after   12 cycles
 SCF Done:  E(RB3LYP) =  -584.121363679     A.U. after   10 cycles
 SCF Done:  E(RB3LYP) =  -584.122238270     A.U. after   10 cycles
 SCF Done:  E(RB3LYP) =  -584.122367035     A.U. after    9 cycles
 SCF Done:  E(RB3LYP) =  -584.122389750     A.U. after    9 cycles
 SCF Done:  E(RB3LYP) =  -584.122394074     A.U. after    8 cycles
 SCF Done:  E(RB3LYP) =  -584.122396416     A.U. after    8 cycles
 SCF Done:  E(RB3LYP) =  -584.122396694     A.U. after    6 cycles
 SCF Done:  E(RB3LYP) =  -584.122396980     A.U. after    6 cycles
 SCF Done:  E(RB3LYP) =  -584.122397041     A.U. after    6 cycles
 Optimization completed.
    -- Stationary point found.
 Normal termination of Gaussian 16 at Mon May 22 18:40:52 2023.

 ----------------------------------------------------------------------
 #N Geom=AllCheck Guess=TCheck SCRF=Check GenChk RB3LYP/6-31G(2df,p) Fr
 eq
 ----------------------------------------------------------------------

 Structure from the checkpoint file:  "CCCCqOrCCCqCrCCCO.chk"
 -------------------
 Title Card Required
 -------------------
 Charge =  0 Multiplicity = 1

                         Standard orientation:
 ---------------------------------------------------------------------
 Center     Atomic      Atomic             Coordinates (Angstroms)
 Number     Number       Type             X           Y           Z
 ---------------------------------------------------------------------
      1          6           0       -6.287964    0.225666   -0.307038
      2          6           0       -5.000652   -0.376984    0.260791
      3          6           0       -3.736026    0.340643   -0.222162
      4          6           0       -2.435571   -0.293710    0.286703
      5          8           0       -2.343040   -1.667996   -0.096201
      6          6           0       -1.191396    0.494328   -0.147438
      7          6           0        0.110810   -0.073633    0.428994
      8          6           0        1.404735    0.544941   -0.132947
      9          6           0        1.514371    2.042987    0.187892
     10          6           0        2.625378   -0.244021    0.380461
     11          6           0        3.965512    0.126218   -0.265993
     12          6           0        5.110169   -0.778003    0.194143
     13          8           0        6.368119   -0.402693   -0.345964
     14          1           0       -7.172140   -0.305664    0.058913
     15          1           0       -6.300562    0.175780   -1.401886
     16          1           0       -6.393560    1.279693   -0.025789
     17          1           0       -4.928728   -1.436191   -0.008057
     18          1           0       -5.032634   -0.345182    1.358001
     19          1           0       -3.763103    1.393562    0.088878
     20          1           0       -3.714360    0.352124   -1.323399
     21          1           0       -2.465837   -0.327286    1.384465
     22          1           0       -2.326587   -1.696670   -1.059952
     23          1           0       -1.324046    1.541778    0.147843
     24          1           0       -1.143092    0.490999   -1.247926
     25          1           0        0.118484   -1.153172    0.241642
     26          1           0        0.102226    0.044913    1.522439
     27          1           0        1.376904    0.434258   -1.228353
     28          1           0        1.539906    2.206066    1.272564
     29          1           0        0.665797    2.605138   -0.212434
     30          1           0        2.421389    2.483564   -0.235392
     31          1           0        2.438901   -1.314116    0.216331
     32          1           0        2.700407   -0.116031    1.470083
     33          1           0        4.240869    1.162275   -0.041110
     34          1           0        3.874862    0.056548   -1.360740
     35          1           0        4.873907   -1.829934   -0.037378
     36          1           0        5.226336   -0.710327    1.281791
     37          1           0        6.307845   -0.477206   -1.303653
 ---------------------------------------------------------------------

 SCF Done:  E(RB3LYP) =  -584.122397041     A.U. after    1 cycles

 The electronic state is 1-A.
 Alpha  occ. eigenvalues --  -19.13292 -19.12841 -10.22677 -10.22072 -10.18451
 Alpha  occ. eigenvalues --  -10.17757 -10.17747 -10.17732 -10.17662 -10.17498
 Alpha  occ. eigenvalues --  -10.17194 -10.17109 -10.17010  -1.01373  -1.00918
 Alpha  occ. eigenvalues --   -0.81655  -0.79160  -0.76761  -0.73822  -0.69729
 Alpha  occ. eigenvalues --   -0.67037  -0.64080  -0.60476  -0.58723  -0.57843
 Alpha  occ. eigenvalues --   -0.55475  -0.50006  -0.48040  -0.46764  -0.46610
 Alpha  occ. eigenvalues --   -0.45025  -0.44426  -0.43836  -0.41842  -0.40958
 Alpha  occ. eigenvalues --   -0.40680  -0.39755  -0.39220  -0.37830  -0.36711
 Alpha  occ. eigenvalues --   -0.35531  -0.35272  -0.34912  -0.33840  -0.33166
 Alpha  occ. eigenvalues --   -0.32429  -0.32405  -0.31713  -0.31672  -0.30480
 Alpha  occ. eigenvalues --   -0.30326  -0.26463  -0.25767
 Alpha virt. eigenvalues --    0.06957   0.08020   0.08902   0.10040   0.10771
 Alpha virt. eigenvalues --    0.11546   0.12265   0.12543   0.12935   0.14237
 Alpha virt. eigenvalues --    0.14985   0.15316   0.16110   0.16247   0.17100

 Mulliken charges:
               1
     1  C   -0.381949
     2  C   -0.162715
     3  C   -0.184329
     4  C    0.120127
     5  O   -0.427316
     6  C   -0.221249
     7  C   -0.182795
     8  C    0.021294
     9  C   -0.390317
    10  C   -0.181475
    11  C   -0.213025
    12  C   -0.055424
    13  O   -0.419796
    14  H    0.111764
    15  H    0.110297
    16  H    0.111203
    17  H    0.107580
    18  H    0.093208
    19  H    0.092425
    20  H    0.079288
    21  H    0.084030
    22  H    0.274120
    23  H    0.097205
    24  H    0.078787
    25  H    0.104644
    26  H    0.087799
    27  H    0.062470
    28  H    0.110182
    29  H    0.113302
    30  H    0.114762
    31  H    0.090719
    32  H    0.093532
    33  H    0.109313
    34  H    0.080349
    35  H    0.083512
    36  H    0.110099
    37  H    0.278378
 Sum of Mulliken charges =  -0.00000

 Dipole moment (field-independent basis, Debye):
    X=             -1.4206    Y=              0.6567    Z=             -1.7350  Tot=              2.3366
 Quadrupole moment (field-independent basis, Debye-Ang):
   XX=           -100.2544   YY=            -86.9710   ZZ=            -78.7467
   XY=             -3.4531   XZ=             -3.9096   YZ=              3.4186

  Exact polarizability: 166.430  -1.203 116.023  -0.927   0.134 112.587
 Approx polarizability: 177.964   0.973 173.522  -1.438   2.048 180.167

                      1                      2                      3
                      A                      A                      A
 Frequencies --     26.1124                34.4189                49.0469
 Red. masses --      4.0981                 2.7280                 2.7519
 Frc consts  --      0.0016                 0.0019                 0.0039
 IR Inten    --      0.0416                 0.8855                 1.3223

                      4                      5                      6
                      A                      A                      A
 Frequencies --     64.7568                74.4791                90.1959
 Red. masses --      2.5122                 2.3216                 2.1949
 Frc consts  --      0.0062                 0.0076                 0.0105
 IR Inten    --      0.7043                 1.2284                 1.0999

                      7                      8                      9
                      A                      A                      A
 Frequencies --    106.8003               122.6342               147.7619
 Red. masses --      2.9314                 2.9071                 1.8896
 Frc consts  --      0.0197                 0.0258                 0.0243
 IR Inten    --      0.3317                 0.2952                 1.2706

                     10                     11                     12
                      A                      A                      A
 Frequencies --    150.3118               188.0274               210.9057
 Red. masses --      2.2256                 3.9431                 3.3742
 Frc consts  --      0.0296                 0.0821                 0.0884
 IR Inten    --      0.9001                 2.3368                 2.7297

                     13                     14                     15
                      A                      A                      A
 Frequencies --    241.2908               248.3413               283.7408
 Red. masses --      1.2148                 1.1261                 2.5030
 Frc consts  --      0.0417                 0.0409                 0.1187
 IR Inten    --      0.5646                 0.0013                 7.2130

                     16                     17                     18
                      A                      A                      A
 Frequencies --    299.6469               302.5684               310.7917
 Red. masses --      1.4134                 1.3748                 1.6610
 Frc consts  --      0.0748                 0.0742                 0.0945
 IR Inten    --     34.7993                85.8249                90.5674

                     19                     20                     21
                      A                      A                      A
 Frequencies --    341.1529               402.0731               418.8324
 Red. masses --      2.7649                 2.9780                 2.1083
 Frc consts  --      0.1896                 0.2837                 0.2179
 IR Inten    --     27.6910                 3.0893                 3.5592

                     22                     23                     24
                      A                      A                      A
 Frequencies --    462.0714               484.9719               529.7756
 Red. masses --      2.5226                 2.5120                 2.8282
 Frc consts  --      0.3173                 0.3481                 0.4677
 IR Inten    --      6.5929                 6.1098                 1.4592

                     25                     26                     27
                      A                      A                      A
 Frequencies --    577.3984               745.5043               751.1743
 Red. masses --      2.8898                 1.1255                 1.1154
 Frc consts  --      0.5676                 0.3686                 0.3708
 IR Inten    --     13.5635                 1.6997                 1.1041

                     28                     29                     30
                      A                      A                      A
 Frequencies --    767.1381               830.8891               850.7794
 Red. masses --      1.3183                 1.6704                 1.6031
 Frc consts  --      0.4571                 0.6794                 0.6837
 IR Inten    --      1.8710                 0.9064                 6.5550

                     31                     32                     33
                      A                      A                      A
 Frequencies --    868.4408               896.1513               905.2499
 Red. masses --      1.6670                 1.7806                 1.9803
 Frc consts  --      0.7408                 0.8425                 0.9562
 IR Inten    --      3.2995                 6.6007                 6.8464

                     34                     35                     36
                      A                      A                      A
 Frequencies --    944.4342               960.3510               997.7672
 Red. masses --      2.2089                 1.4229                 1.5608
 Frc consts  --      1.1609                 0.7732                 0.9155
 IR Inten    --      7.0662                 6.5632                15.3481

                     37                     38                     39
                      A                      A                      A
 Frequencies --   1016.9394              1032.6309              1036.3253
 Red. masses --      3.1681                 2.1892                 1.9486
 Frc consts  --      1.9304                 1.3754                 1.2330
 IR Inten    --     15.6631                 3.2056                 3.6959

                     40                     41                     42
                      A                      A                      A
 Frequencies --   1045.7263              1062.8539              1080.6400
 Red. masses --      2.5533                 2.3114                 4.1013
 Frc consts  --      1.6451                 1.5384                 2.8218
 IR Inten    --      3.9989                 2.1552               101.3238

                     43                     44                     45
                      A                      A                      A
 Frequencies --   1083.0049              1098.1274              1112.8550
 Red. masses --      2.7713                 1.9895                 1.3344
 Frc consts  --      1.9151                 1.4135                 0.9736
 IR Inten    --     26.4109                 2.0075                30.8711

                     46                     47                     48
                      A                      A                      A
 Frequencies --   1133.6839              1139.7429              1156.8280
 Red. masses --      1.4014                 1.9413                 2.7316
 Frc consts  --      1.0612                 1.4858                 2.1538
 IR Inten    --      8.1040                21.5051                11.2459

                     49                     50                     51
                      A                      A                      A
 Frequencies --   1180.7176              1223.1645              1242.2474
 Red. masses --      1.6600                 1.6174                 1.4270
 Frc consts  --      1.3635                 1.4257                 1.2975
 IR Inten    --      6.9839                 5.9718                 3.2265

                     52                     53                     54
                      A                      A                      A
 Frequencies --   1259.1464              1272.2350              1290.5169
 Red. masses --      1.2553                 1.2679                 1.3326
 Frc consts  --      1.1726                 1.2091                 1.3076
 IR Inten    --      3.6803                 0.1649                 9.2142

                     55                     56                     57
                      A                      A                      A
 Frequencies --   1297.0091              1313.0460              1317.9946
 Red. masses --      1.2715                 1.3156                 1.0886
 Frc consts  --      1.2602                 1.3364                 1.1141
 IR Inten    --      3.8537                 5.7120                 0.2705

                     58                     59                     60
                      A                      A                      A
 Frequencies --   1323.9607              1340.7035              1363.4251
 Red. masses --      1.0954                 1.2637                 1.2911
 Frc consts  --      1.1313                 1.3383                 1.4141
 IR Inten    --      3.4296                 0.1053                 1.3233

                     61                     62                     63
                      A                      A                      A
 Frequencies --   1369.9643              1379.6953              1386.4117
 Red. masses --      1.3442                 1.3439                 1.3983
 Frc consts  --      1.4864                 1.5073                 1.5836
 IR Inten    --      2.4154                 3.6190                 0.4123

                     64                     65                     66
                      A                      A                      A
 Frequencies --   1394.9941              1397.3827              1401.4502
 Red. masses --      1.5292                 1.5777                 1.3713
 Frc consts  --      1.7533                 1.8151                 1.5869
 IR Inten    --      0.7053                 5.5421                 5.2925

                     67                     68                     69
                      A                      A                      A
 Frequencies --   1413.2993              1414.1273              1419.9986
 Red. masses --      1.2376                 1.2960                 1.2091
 Frc consts  --      1.4565                 1.5270                 1.4365
 IR Inten    --      0.6715                15.7710                31.2575

                     70                     71                     72
                      A                      A                      A
 Frequencies --   1423.5899              1471.2566              1478.1203
 Red. masses --      1.2753                 1.0829                 1.0807
 Frc consts  --      1.5228                 1.3811                 1.3911
 IR Inten    --     56.5486                 0.1273                 0.6618

                     73                     74                     75
                      A                      A                      A
 Frequencies --   1484.0476              1493.5285              1494.4397
 Red. masses --      1.0829                 1.0783                 1.0634
 Frc consts  --      1.4052                 1.4171                 1.3993
 IR Inten    --      1.2238                 1.2342                 0.3771

                     76                     77                     78
                      A                      A                      A
 Frequencies --   1497.7335              1500.0522              1500.6285
 Red. masses --      1.0719                 1.0407                 1.0763
 Frc consts  --      1.4167                 1.3797                 1.4280
 IR Inten    --      0.6807                 4.8747                 0.3392

                     79                     80                     81
                      A                      A                      A
 Frequencies --   1509.3607              1511.6854              1516.7070
 Red. masses --      1.0512                 1.0852                 1.0936
 Frc consts  --      1.4110                 1.4610                 1.4823
 IR Inten    --      7.8317                 3.0397                 1.2286

                     82                     83                     84
                      A                      A                      A
 Frequencies --   2966.1216              2977.8925              2983.9121
 Red. masses --      1.0709                 1.0801                 1.0666
 Frc consts  --      5.5510                 5.6433                 5.5951
 IR Inten    --     51.7582                 6.1077                 1.3595

                     85                     86                     87
                      A                      A                      A
 Frequencies --   2988.6378              2993.9027              3001.5335
 Red. masses --      1.0676                 1.0662                 1.0628
 Frc consts  --      5.6185                 5.6307                 5.6416
 IR Inten    --     20.1639                10.8441                14.9050

                     88                     89                     90
                      A                      A                      A
 Frequencies --   3008.6851              3019.7394              3023.4078
 Red. masses --      1.0669                 1.0736                 1.0698
 Frc consts  --      5.6903                 5.7680                 5.7616
 IR Inten    --     51.6756                 4.8946                44.2609

                     91                     92                     93
                      A                      A                      A
 Frequencies --   3026.7956              3028.9246              3035.2491
 Red. masses --      1.0411                 1.0414                 1.0973
 Frc consts  --      5.6198                 5.6291                 5.9563
 IR Inten    --     55.1891                15.1475                21.0143

                     94                     95                     96
                      A                      A                      A
 Frequencies --   3037.4874              3053.3675              3059.0860
 Red. masses --      1.0900                 1.0907                 1.0872
 Frc consts  --      5.9250                 5.9911                 5.9945
 IR Inten    --     22.1635                10.4952                19.1230

                     97                     98                     99
                      A                      A                      A
 Frequencies --   3069.4164              3073.6045              3079.1778
 Red. masses --      1.0965                 1.0972                 1.0985
 Frc consts  --      6.0866                 6.1069                 6.1365
 IR Inten    --      0.1569                25.6272                98.0081

                    100                    101                    102
                      A                      A                      A
 Frequencies --   3094.8643              3097.0100              3099.8974
 Red. masses --      1.1019                 1.0957                 1.1003
 Frc consts  --      6.2186                 6.1920                 6.2296
 IR Inten    --     65.7650                29.6129                42.8135

                    103                    104                    105
                      A                      A                      A
 Frequencies --   3110.5148              3788.0123              3814.2657
 Red. masses --      1.1002                 1.0657                 1.0661
 Frc consts  --      6.2718                 9.0096                 9.1381
 IR Inten    --     40.8321                 9.9775                14.4148

 - Thermochemistry -
 -------------------
 Temperature   298.150 Kelvin.  Pressure   1.00000 Atm.
 Atom     1 has atomic number  6 and mass  12.00000

 Molecular mass:   188.17763 amu.
 Principal axes and moments of inertia in atomic units:
                           1         2         3
     Eigenvalues --   678.77913********************
           X            1.00000  -0.00200   0.00135
           Y            0.00200   1.00000  -0.00022
           Z           -0.00135   0.00022   1.00000
 This molecule is an asymmetric top.
 Rotational symmetry number  1.
 Warning -- assumption of classical behavior for rotation
           may cause significant error
 Rotational temperatures (Kelvin)      0.12760     0.00862     0.00827
 Rotational constants (GHZ):           2.65880     0.17970     0.17236
 Zero-point vibrational energy     891214.9 (Joules/Mol)
                                  213.00547 (Kcal/Mol)
 Warning -- explicit consideration of  25 degrees of freedom as
           vibrations may cause significant error
 Vibrational temperatures:     37.57    49.52    70.57    93.17   107.16
          (Kelvin)            129.77   153.66   176.44   212.60   216.27
                              270.53   303.45   347.16   357.31   408.24
                              431.12   435.33   447.16   490.84   578.49
                              602.61   664.82   697.77   762.23   830.75
                             1072.61  1080.77  1103.74  1195.46  1224.08
                             1249.49  1289.36  1302.45  1358.83  1381.73
                             1435.56  1463.15  1485.73  1491.04  1504.57
                             1529.21  1554.80  1558.20  1579.96  1601.15
                             1631.12  1639.84  1664.42  1698.79  1759.86
                             1787.32  1811.63  1830.46  1856.77  1866.11
                             1889.18  1896.30  1904.88  1928.97  1961.66
                             1971.07  1985.07  1994.74  2007.09  2010.52
                             2016.37  2033.42  2034.61  2043.06  2048.23
                             2116.81  2126.69  2135.21  2148.85  2150.17
                             2154.90  2158.24  2159.07  2171.63  2174.98
                             2182.20  4267.59  4284.52  4293.18  4299.98
                             4307.56  4318.54  4328.83  4344.73  4350.01
                             4354.88  4357.95  4367.05  4370.27  4393.11
                             4401.34  4416.21  4422.23  4430.25  4452.82
                             4455.91  4460.06  4475.34  5450.10  5487.88

 Zero-point correction=                           0.339446 (Hartree/Particle)
 Thermal correction to Energy=                    0.356853
 Thermal correction to Enthalpy=                  0.357797
 Thermal correction to Gibbs Free Energy=         0.292733
 Sum of electronic and zero-point Energies=           -583.782951
 Sum of electronic and thermal Energies=              -583.765544
 Sum of electronic and thermal Enthalpies=            -583.764600
 Sum of electronic and thermal Free Energies=         -583.829664

                     E (Thermal)             CV                S
                      KCal/Mol        Cal/Mol-Kelvin    Cal/Mol-Kelvin
 Total                  223.929             62.268            136.939
 Electronic               0.000              0.000              0.000
 Translational            0.889              2.981             41.603
 Rotational               0.889              2.981             32.634
 Vibrational            222.151             56.307             62.703
 Vibration     1          0.593              1.985              6.105
 Vibration     2          0.594              1.983              5.557
 Vibration     3          0.595              1.978              4.855
 Vibration     4          0.597              1.971              4.307
 Vibration     5          0.599              1.966              4.031
 Vibration     6          0.602              1.956              3.656
 Vibration     7          0.606              1.944              3.326
 Vibration     8          0.610              1.930              3.058
 Vibration     9          0.617              1.905              2.701
 Vibration    10          0.618              1.902              2.668
 Vibration    11          0.633              1.856              2.247
 Vibration    12          0.643              1.824              2.036
 Vibration    13          0.658              1.777              1.793
 Vibration    14          0.662              1.766              1.742
 Vibration    15          0.682              1.704              1.511
 Vibration    16          0.692              1.674              1.419
 Vibration    17          0.694              1.669              1.403
 Vibration    18          0.700              1.653              1.358
 Vibration    19          0.721              1.593              1.207
 Vibration    20          0.768              1.466              0.955
 Vibration    21          0.782              1.429              0.896
 Vibration    22          0.820              1.334              0.760
 Vibration    23          0.841              1.283              0.697
 Vibration    24          0.885              1.184              0.588
 Vibration    25          0.934              1.080              0.490

                           ! Non-Optimized Parameters !
 Normal termination of Gaussian 16 at Mon May 22 20:32:57 2023.
