 Gaussian 16, Revision A.03,
 Gaussian 16:  ES64L-G16RevA.03 25-Dec-2016

 -----------------------------
 # opt freq b3lyp/6-31g(2df,p)
 -----------------------------

 -------------------
 Title Card Required
 -------------------
 Symbolic Z-matrix:
 Charge =  0 Multiplicity = 1

 SCF Done:  E(RB3LYP) =  -718.013894977     A.U. after   13 cycles
 SCF Done:  E(RB3LYP) =  -718.027869579     A.U. after   12 cycles
 SCF Done:  E(RB3LYP) =  -718.027378373     A.U. after   11 cycles
 SCF Done:  E(RB3LYP) =  -718.035091641     A.U. after   11 cycles
 SCF Done:  E(RB3LYP) =  -718.040340615     A.U. after   11 cycles
 SCF Done:  E(RB3LYP) =  -718.042248726     A.U. after   11 cycles
 SCF Done:  E(RB3LYP) =  -718.042385888     A.U. after   11 cycles
 SCF Done:  E(RB3LYP) =  -718.044771458     A.U. after   11 cycles
 SCF Done:  E(RB3LYP) =  -718.045808813     A.U. after   10 cycles
 SCF Done:  E(RB3LYP) =  -718.046136919     A.U. after   10 cycles
 SCF Done:  E(RB3LYP) =  -718.046720679     A.U. after    9 cycles
 SCF Done:  E(RB3LYP) =  -718.046747180     A.U. after   11 cycles
 SCF Done:  E(RB3LYP) =  -718.046765842     A.U. after   10 cycles
 SCF Done:  E(RB3LYP) =  -718.046808227     A.U. after    9 cycles
 SCF Done:  E(RB3LYP) =  -718.046805323     A.U. after    8 cycles
 SCF Done:  E(RB3LYP) =  -718.046819370     A.U. after    9 cycles
 SCF Done:  E(RB3LYP) =  -718.046820064     A.U. after    7 cycles
 SCF Done:  E(RB3LYP) =  -718.046820390     A.U. after    8 cycles
 SCF Done:  E(RB3LYP) =  -718.046820436     A.U. after    6 cycles
 Optimization completed.
    -- Stationary point found.
 Normal termination of Gaussian 16 at Tue May 23 16:00:00 2023.

 ----------------------------------------------------------------------
 #N Geom=AllCheck Guess=TCheck SCRF=Check GenChk RB3LYP/6-31G(2df,p) Fr
 eq
 ----------------------------------------------------------------------

 Structure from the checkpoint file:  "CCCCCqCrONqCrCqCCCCrOC.chk"
 -------------------
 Title Card Required
 -------------------
 Charge =  0 Multiplicity = 1

                         Standard orientation:
 ---------------------------------------------------------------------
 Center     Atomic      Atomic             Coordinates (Angstroms)
 Number     Number       Type             X           Y           Z
 ---------------------------------------------------------------------
      1          6           0        5.792435    0.190630   -0.409043
      2          6           0        4.493382    0.153484    0.400091
      3          6           0        3.354917   -0.577073   -0.321766
      4          6           0        2.060052   -0.616563    0.497676
      5          6           0        0.865333   -1.233843   -0.234913
      6          6           0        1.043768   -2.715235   -0.558787
      7          8           0       -0.251132   -0.999015    0.640455
      8          7           0       -1.488519   -1.425008    0.047675
      9          6           0       -2.006060   -2.493703    0.901056
     10          6           0       -2.392935   -0.265541    0.051743
     11          6           0       -1.794612    0.969166   -0.644045
     12          6           0       -1.171860    2.003563    0.300620
     13          6           0       -0.576336    3.207897   -0.435968
     14          6           0        0.021728    4.254087    0.508603
     15          8           0       -3.547978   -0.734966   -0.624258
     16          6           0       -4.739033   -0.079802   -0.252911
     17          1           0        6.584923    0.718626    0.130521
     18          1           0        5.647055    0.699616   -1.368519
     19          1           0        6.153976   -0.821045   -0.624835
     20          1           0        4.175272    1.178461    0.632008
     21          1           0        4.677091   -0.331770    1.367797
     22          1           0        3.682529   -1.596673   -0.560887
     23          1           0        3.164530   -0.084795   -1.285976
     24          1           0        1.786296    0.404862    0.788071
     25          1           0        2.223453   -1.169973    1.431532
     26          1           0        0.694808   -0.688349   -1.174381
     27          1           0        1.249294   -3.291268    0.350149
     28          1           0        1.877897   -2.856967   -1.252242
     29          1           0        0.143231   -3.108377   -1.034968
     30          1           0       -1.334589   -3.352007    0.852344
     31          1           0       -2.986639   -2.783621    0.521759
     32          1           0       -2.096881   -2.174637    1.951367
     33          1           0       -2.672614   -0.001910    1.092799
     34          1           0       -2.607921    1.443754   -1.206041
     35          1           0       -1.069254    0.635559   -1.392823
     36          1           0       -0.401480    1.521816    0.911319
     37          1           0       -1.940168    2.356244    1.003821
     38          1           0       -1.351973    3.675638   -1.057490
     39          1           0        0.197142    2.859237   -1.133346
     40          1           0       -0.737208    4.648904    1.193420
     41          1           0        0.443167    5.099810   -0.043970
     42          1           0        0.822464    3.822889    1.119870
     43          1           0       -5.549448   -0.548706   -0.816135
     44          1           0       -4.722725    0.993201   -0.496246
     45          1           0       -4.944388   -0.184006    0.823632
 ---------------------------------------------------------------------

 SCF Done:  E(RB3LYP) =  -718.046820435     A.U. after    1 cycles

 The electronic state is 1-A.
 Alpha  occ. eigenvalues --  -19.15495 -19.13950 -14.36086 -10.25059 -10.22497
 Alpha  occ. eigenvalues --  -10.22442 -10.19017 -10.17792 -10.17771 -10.17506
 Alpha  occ. eigenvalues --  -10.17456 -10.17177 -10.17110 -10.17045 -10.16915
 Alpha  occ. eigenvalues --  -10.16642  -1.05978  -1.03110  -0.85912  -0.79757
 Alpha  occ. eigenvalues --   -0.79175  -0.75261  -0.74193  -0.70459  -0.69799
 Alpha  occ. eigenvalues --   -0.66199  -0.64351  -0.62519  -0.58617  -0.57473
 Alpha  occ. eigenvalues --   -0.57006  -0.56262  -0.50360  -0.49430  -0.47843
 Alpha  occ. eigenvalues --   -0.46704  -0.45802  -0.45231  -0.44916  -0.43372
 Alpha  occ. eigenvalues --   -0.42026  -0.41643  -0.41410  -0.41212  -0.40300
 Alpha  occ. eigenvalues --   -0.39552  -0.38720  -0.38409  -0.37456  -0.36676
 Alpha  occ. eigenvalues --   -0.36270  -0.35269  -0.34311  -0.34084  -0.33745
 Alpha  occ. eigenvalues --   -0.33537  -0.32936  -0.32395  -0.32104  -0.31665
 Alpha  occ. eigenvalues --   -0.31109  -0.30735  -0.26113  -0.24940  -0.22462
 Alpha virt. eigenvalues --    0.07149   0.08565   0.09173   0.09990   0.10620
 Alpha virt. eigenvalues --    0.11052   0.12154   0.12933   0.13336   0.13889
 Alpha virt. eigenvalues --    0.14248   0.14664   0.15333   0.15672   0.15922

 Mulliken charges:
               1
     1  C   -0.381398
     2  C   -0.162224
     3  C   -0.169715
     4  C   -0.212484
     5  C    0.158162
     6  C   -0.402549
     7  O   -0.286914
     8  N   -0.046177
     9  C   -0.301690
    10  C    0.208585
    11  C   -0.227989
    12  C   -0.172682
    13  C   -0.163855
    14  C   -0.380760
    15  O   -0.251529
    16  C   -0.241405
    17  H    0.111271
    18  H    0.113235
    19  H    0.113246
    20  H    0.095057
    21  H    0.095595
    22  H    0.097560
    23  H    0.092545
    24  H    0.104436
    25  H    0.099021
    26  H    0.071401
    27  H    0.112236
    28  H    0.114120
    29  H    0.134802
    30  H    0.118348
    31  H    0.137640
    32  H    0.101201
    33  H    0.047518
    34  H    0.099058
    35  H    0.108723
    36  H    0.120536
    37  H    0.085133
    38  H    0.091306
    39  H    0.092751
    40  H    0.112303
    41  H    0.109357
    42  H    0.113060
    43  H    0.129022
    44  H    0.106943
    45  H    0.107202
 Sum of Mulliken charges =  -0.00000

 Dipole moment (field-independent basis, Debye):
    X=             -0.1243    Y=              0.5103    Z=              0.3701  Tot=              0.6426
 Quadrupole moment (field-independent basis, Debye-Ang):
   XX=            -95.6071   YY=           -102.4895   ZZ=           -105.2017
   XY=             -3.0755   XZ=             -2.6574   YZ=             -1.9370

  Exact polarizability: 194.499   5.452 163.422  -1.670  -1.387 131.444
 Approx polarizability: 231.261  -0.252 215.585  -0.471  -0.375 210.709

                      1                      2                      3
                      A                      A                      A
 Frequencies --     17.5768                25.3477                44.9983
 Red. masses --      3.0611                 3.5369                 2.3271
 Frc consts  --      0.0006                 0.0013                 0.0028
 IR Inten    --      0.0092                 0.0139                 0.1460

                      4                      5                      6
                      A                      A                      A
 Frequencies --     45.5531                67.1927                81.5216
 Red. masses --      2.5094                 1.5988                 2.3558
 Frc consts  --      0.0031                 0.0043                 0.0092
 IR Inten    --      0.0819                 0.0573                 0.6094

                      7                      8                      9
                      A                      A                      A
 Frequencies --     90.0977                95.6828               108.1989
 Red. masses --      2.5686                 2.9707                 2.6979
 Frc consts  --      0.0123                 0.0160                 0.0186
 IR Inten    --      0.3545                 1.1117                 0.2726

                     10                     11                     12
                      A                      A                      A
 Frequencies --    124.5147               138.9436               156.0377
 Red. masses --      2.9474                 2.0880                 1.9666
 Frc consts  --      0.0269                 0.0237                 0.0282
 IR Inten    --      0.1337                 0.0066                 0.4067

                     13                     14                     15
                      A                      A                      A
 Frequencies --    181.3467               202.7785               224.5701
 Red. masses --      1.4686                 1.9190                 3.0639
 Frc consts  --      0.0285                 0.0465                 0.0910
 IR Inten    --      1.1487                 1.4159                 0.8086

                     16                     17                     18
                      A                      A                      A
 Frequencies --    231.5369               235.6958               245.7336
 Red. masses --      1.3734                 1.7078                 1.1210
 Frc consts  --      0.0434                 0.0559                 0.0399
 IR Inten    --      1.8461                 0.3244                 0.0475

                     19                     20                     21
                      A                      A                      A
 Frequencies --    248.5219               275.6529               300.7928
 Red. masses --      1.3292                 1.5394                 1.8898
 Frc consts  --      0.0484                 0.0689                 0.1007
 IR Inten    --      0.4942                 0.4063                 0.6474

                     22                     23                     24
                      A                      A                      A
 Frequencies --    307.7208               326.7427               342.0579
 Red. masses --      2.4199                 3.6119                 3.0749
 Frc consts  --      0.1350                 0.2272                 0.2120
 IR Inten    --      1.3254                 2.7645                 2.9862

                     25                     26                     27
                      A                      A                      A
 Frequencies --    383.9248               405.9324               440.4091
 Red. masses --      3.1567                 2.6542                 3.2750
 Frc consts  --      0.2741                 0.2577                 0.3743
 IR Inten    --      1.4936                 1.7921                 4.1268

                     28                     29                     30
                      A                      A                      A
 Frequencies --    467.3987               496.5848               540.3351
 Red. masses --      2.7494                 3.1555                 3.3438
 Frc consts  --      0.3539                 0.4585                 0.5752
 IR Inten    --      1.0093                 8.2353                 7.0159

                     31                     32                     33
                      A                      A                      A
 Frequencies --    571.3381               586.1509               728.6854
 Red. masses --      3.1223                 3.5215                 1.1094
 Frc consts  --      0.6005                 0.7128                 0.3471
 IR Inten    --      2.1735                 4.8842                 3.4668

                     34                     35                     36
                      A                      A                      A
 Frequencies --    736.7109               772.8239               789.6155
 Red. masses --      1.0803                 1.2726                 1.2348
 Frc consts  --      0.3455                 0.4478                 0.4536
 IR Inten    --      2.7123                 5.9197                 0.2217

                     37                     38                     39
                      A                      A                      A
 Frequencies --    850.8115               866.3403               896.1208
 Red. masses --      2.4759                 2.3139                 2.0550
 Frc consts  --      1.0560                 1.0232                 0.9723
 IR Inten    --      1.8206                15.4308                 4.5329

                     40                     41                     42
                      A                      A                      A
 Frequencies --    903.5307               911.8385               917.2941
 Red. masses --      1.8295                 1.7634                 1.2517
 Frc consts  --      0.8800                 0.8638                 0.6205
 IR Inten    --      2.8336                 5.8956                 0.7583

                     43                     44                     45
                      A                      A                      A
 Frequencies --    946.9219               987.1522               999.0263
 Red. masses --      2.1568                 1.9449                 2.6697
 Frc consts  --      1.1394                 1.1166                 1.5699
 IR Inten    --     35.9277                17.2015                15.1603

                     46                     47                     48
                      A                      A                      A
 Frequencies --   1016.4751              1022.1517              1031.2055
 Red. masses --      1.3600                 3.2958                 2.7476
 Frc consts  --      0.8279                 2.0288                 1.7214
 IR Inten    --      8.1610                 2.5284                 0.7869

                     49                     50                     51
                      A                      A                      A
 Frequencies --   1055.0861              1068.4055              1069.2774
 Red. masses --      3.7599                 2.2772                 2.3075
 Frc consts  --      2.4661                 1.5315                 1.5544
 IR Inten    --     10.2601                 4.6680                 1.6368

                     52                     53                     54
                      A                      A                      A
 Frequencies --   1078.8248              1117.4315              1124.4109
 Red. masses --      2.5097                 1.6624                 2.1785
 Frc consts  --      1.7209                 1.2230                 1.6228
 IR Inten    --     30.2449                 3.3556                70.0261

                     55                     56                     57
                      A                      A                      A
 Frequencies --   1133.6304              1138.2060              1143.8560
 Red. masses --      2.1649                 2.0644                 3.1664
 Frc consts  --      1.6392                 1.5757                 2.4409
 IR Inten    --     19.9513                33.3392               131.7827

                     58                     59                     60
                      A                      A                      A
 Frequencies --   1158.8553              1183.4307              1188.3381
 Red. masses --      2.6520                 1.3464                 1.8985
 Frc consts  --      2.0984                 1.1110                 1.5796
 IR Inten    --      7.2098                 1.1009                 7.3221

                     61                     62                     63
                      A                      A                      A
 Frequencies --   1199.9198              1215.5491              1235.5225
 Red. masses --      2.0624                 1.7124                 1.6456
 Frc consts  --      1.7496                 1.4907                 1.4800
 IR Inten    --      7.2436                26.1667                17.3055

                     64                     65                     66
                      A                      A                      A
 Frequencies --   1248.1725              1258.4895              1273.3799
 Red. masses --      1.4780                 1.8337                 1.3368
 Frc consts  --      1.3567                 1.7111                 1.2771
 IR Inten    --      5.2297                 3.6199                 3.1265

                     67                     68                     69
                      A                      A                      A
 Frequencies --   1277.2905              1310.2577              1312.2598
 Red. masses --      1.3102                 1.1977                 1.2057
 Frc consts  --      1.2594                 1.2115                 1.2233
 IR Inten    --      1.3284                 0.2966                 2.2401

                     70                     71                     72
                      A                      A                      A
 Frequencies --   1328.5437              1332.1059              1341.5225
 Red. masses --      1.0650                 1.0648                 1.2730
 Frc consts  --      1.1075                 1.1133                 1.3498
 IR Inten    --      0.9306                 0.6336                 1.9200

                     73                     74                     75
                      A                      A                      A
 Frequencies --   1352.1563              1376.9101              1378.0819
 Red. masses --      1.3355                 1.3753                 1.2798
 Frc consts  --      1.4386                 1.5362                 1.4320
 IR Inten    --      1.2621                51.4684                14.7199

                     76                     77                     78
                      A                      A                      A
 Frequencies --   1382.8113              1394.9142              1398.9013
 Red. masses --      1.3446                 1.5384                 1.5746
 Frc consts  --      1.5149                 1.7636                 1.8154
 IR Inten    --      5.7804                 8.9935                 3.1632

                     79                     80                     81
                      A                      A                      A
 Frequencies --   1402.4109              1406.9658              1413.5763
 Red. masses --      1.3720                 1.3374                 1.2681
 Frc consts  --      1.5899                 1.5598                 1.4929
 IR Inten    --     17.8817                13.2855                 3.5569

                     82                     83                     84
                      A                      A                      A
 Frequencies --   1413.6011              1432.4407              1476.5968
 Red. masses --      1.2533                 1.1901                 1.0679
 Frc consts  --      1.4756                 1.4387                 1.3718
 IR Inten    --      2.0170                 8.2989                 1.7548

                     85                     86                     87
                      A                      A                      A
 Frequencies --   1479.2917              1480.4499              1486.3538
 Red. masses --      1.1011                 1.1082                 1.0627
 Frc consts  --      1.4196                 1.4311                 1.3832
 IR Inten    --      1.8024                 2.0987                 2.2019

                     88                     89                     90
                      A                      A                      A
 Frequencies --   1486.4684              1488.5470              1490.3876
 Red. masses --      1.0610                 1.0626                 1.0487
 Frc consts  --      1.3812                 1.3872                 1.3724
 IR Inten    --      2.5454                 2.6536                 3.2610

                     91                     92                     93
                      A                      A                      A
 Frequencies --   1494.1963              1496.9901              1499.5195
 Red. masses --      1.0680                 1.0572                 1.0404
 Frc consts  --      1.4049                 1.3959                 1.3784
 IR Inten    --      8.1179                 4.3324                 5.1307

                     94                     95                     96
                      A                      A                      A
 Frequencies --   1499.7968              1500.0249              1501.5260
 Red. masses --      1.0463                 1.0634                 1.0711
 Frc consts  --      1.3867                 1.4098                 1.4228
 IR Inten    --      3.6918                 1.0892                 0.2762

                     97                     98                     99
                      A                      A                      A
 Frequencies --   1511.0362              1512.0988              1513.4002
 Red. masses --      1.0631                 1.0664                 1.0835
 Frc consts  --      1.4301                 1.4366                 1.4621
 IR Inten    --      4.7969                 2.4969                 1.9492

                    100                    101                    102
                      A                      A                      A
 Frequencies --   1515.4895              2880.0738              2977.0723
 Red. masses --      1.0796                 1.0803                 1.0370
 Frc consts  --      1.4609                 5.2796                 5.4153
 IR Inten    --      8.4975                46.1538                51.8307

                    103                    104                    105
                      A                      A                      A
 Frequencies --   2984.2086              2995.2798              3004.5795
 Red. masses --      1.0541                 1.0814                 1.0662
 Frc consts  --      5.5306                 5.7160                 5.6708
 IR Inten    --     59.6110                16.5648                 6.4587

                    106                    107                    108
                      A                      A                      A
 Frequencies --   3006.2100              3011.7893              3014.6859
 Red. masses --      1.0610                 1.0636                 1.0599
 Frc consts  --      5.6496                 5.6844                 5.6752
 IR Inten    --      3.9164                36.7239                13.6274

                    109                    110                    111
                      A                      A                      A
 Frequencies --   3023.4254              3025.6421              3027.6882
 Red. masses --      1.1024                 1.0587                 1.0360
 Frc consts  --      5.9371                 5.7103                 5.5953
 IR Inten    --     46.9967                37.3364                33.7871

                    112                    113                    114
                      A                      A                      A
 Frequencies --   3028.3825              3033.8258              3037.0712
 Red. masses --      1.0384                 1.0880                 1.0741
 Frc consts  --      5.6111                 5.8999                 5.8374
 IR Inten    --     45.7317                 7.3764                27.5848

                    115                    116                    117
                      A                      A                      A
 Frequencies --   3038.5252              3039.2088              3050.9553
 Red. masses --      1.0441                 1.0874                 1.1022
 Frc consts  --      5.6798                 5.9179                 6.0446
 IR Inten    --     11.4717                19.2574                 2.6570

                    118                    119                    120
                      A                      A                      A
 Frequencies --   3072.6382              3075.0565              3089.2684
 Red. masses --      1.1033                 1.0894                 1.1005
 Frc consts  --      6.1371                 6.0694                 6.1883
 IR Inten    --     66.4535                 9.9515                 3.5490

                    121                    122                    123
                      A                      A                      A
 Frequencies --   3094.7247              3096.0798              3099.2944
 Red. masses --      1.1021                 1.1011                 1.1010
 Frc consts  --      6.2188                 6.2185                 6.2308
 IR Inten    --     81.7467                73.0414                39.1733

                    124                    125                    126
                      A                      A                      A
 Frequencies --   3100.5067              3108.0554              3110.1596
 Red. masses --      1.1009                 1.0905                 1.0867
 Frc consts  --      6.2353                 6.2065                 6.1933
 IR Inten    --     37.1373                32.6278                19.5445

                    127                    128                    129
                      A                      A                      A
 Frequencies --   3114.3805              3131.2463              3154.8079
 Red. masses --      1.0961                 1.0998                 1.1030
 Frc consts  --      6.2642                 6.3533                 6.4682
 IR Inten    --     31.2593                18.8986                12.1883

 - Thermochemistry -
 -------------------
 Temperature   298.150 Kelvin.  Pressure   1.00000 Atm.
 Atom     1 has atomic number  6 and mass  12.00000

 Molecular mass:   231.21983 amu.
 Principal axes and moments of inertia in atomic units:
                           1         2         3
     Eigenvalues --  3143.143876847.117659427.48605
           X            0.99997  -0.00623  -0.00531
           Y            0.00624   0.99998   0.00130
           Z            0.00530  -0.00133   0.99999
 This molecule is an asymmetric top.
 Rotational symmetry number  1.
 Warning -- assumption of classical behavior for rotation
           may cause significant error
 Rotational temperatures (Kelvin)      0.02756     0.01265     0.00919
 Rotational constants (GHZ):           0.57418     0.26358     0.19143
 Zero-point vibrational energy    1078972.7 (Joules/Mol)
                                  257.88066 (Kcal/Mol)
 Warning -- explicit consideration of  32 degrees of freedom as
           vibrations may cause significant error
 Vibrational temperatures:     25.29    36.47    64.74    65.54    96.68
          (Kelvin)            117.29   129.63   137.67   155.67   179.15
                              199.91   224.50   260.92   291.75   323.11
                              333.13   339.11   353.56   357.57   396.60
                              432.77   442.74   470.11   492.14   552.38
                              584.05   633.65   672.48   714.47   777.42
                              822.03   843.34  1048.42  1059.96  1111.92
                             1136.08  1224.13  1246.47  1289.32  1299.98
                             1311.93  1319.78  1362.41  1420.29  1437.38
                             1462.48  1470.65  1483.67  1518.03  1537.20
                             1538.45  1552.19  1607.73  1617.78  1631.04
                             1637.62  1645.75  1667.33  1702.69  1709.75
                             1726.42  1748.90  1777.64  1795.84  1810.69
                             1832.11  1837.74  1885.17  1888.05  1911.48
                             1916.60  1930.15  1945.45  1981.07  1982.75
                             1989.56  2006.97  2012.71  2017.76  2024.31
                             2033.82  2033.86  2060.96  2124.49  2128.37
                             2130.04  2138.53  2138.70  2141.69  2144.34
                             2149.82  2153.83  2157.47  2157.87  2158.20
                             2160.36  2174.04  2175.57  2177.45  2180.45
                             4143.78  4283.34  4293.61  4309.54  4322.92
                             4325.27  4333.29  4337.46  4350.03  4353.22
                             4356.17  4357.17  4365.00  4369.67  4371.76
                             4372.74  4389.64  4420.84  4424.32  4444.77
                             4452.62  4454.57  4459.19  4460.94  4471.80
                             4474.83  4480.90  4505.16  4539.06

 Zero-point correction=                           0.410959 (Hartree/Particle)
 Thermal correction to Energy=                    0.432195
 Thermal correction to Enthalpy=                  0.433139
 Thermal correction to Gibbs Free Energy=         0.359014
 Sum of electronic and zero-point Energies=           -717.635861
 Sum of electronic and thermal Energies=              -717.614626
 Sum of electronic and thermal Enthalpies=            -717.613682
 Sum of electronic and thermal Free Energies=         -717.687806

                     E (Thermal)             CV                S
                      KCal/Mol        Cal/Mol-Kelvin    Cal/Mol-Kelvin
 Total                  271.206             76.360            156.008
 Electronic               0.000              0.000              0.000
 Translational            0.889              2.981             42.217
 Rotational               0.889              2.981             33.672
 Vibrational            269.429             70.398             80.120
 Vibration     1          0.593              1.986              6.891
 Vibration     2          0.593              1.985              6.164
 Vibration     3          0.595              1.979              5.026
 Vibration     4          0.595              1.979              5.002
 Vibration     5          0.598              1.970              4.234
 Vibration     6          0.600              1.962              3.854
 Vibration     7          0.602              1.956              3.658
 Vibration     8          0.603              1.952              3.540
 Vibration     9          0.606              1.943              3.301
 Vibration    10          0.610              1.928              3.029
 Vibration    11          0.615              1.914              2.818
 Vibration    12          0.620              1.896              2.597
 Vibration    13          0.630              1.865              2.315
 Vibration    14          0.639              1.836              2.108
 Vibration    15          0.649              1.804              1.922
 Vibration    16          0.653              1.793              1.867
 Vibration    17          0.655              1.786              1.835
 Vibration    18          0.660              1.770              1.761
 Vibration    19          0.662              1.765              1.741
 Vibration    20          0.677              1.718              1.560
 Vibration    21          0.693              1.672              1.412
 Vibration    22          0.698              1.659              1.375
 Vibration    23          0.710              1.622              1.276
 Vibration    24          0.721              1.591              1.203
 Vibration    25          0.753              1.504              1.024
 Vibration    26          0.771              1.457              0.941
 Vibration    27          0.800              1.382              0.825
 Vibration    28          0.825              1.322              0.745
 Vibration    29          0.852              1.258              0.667
 Vibration    30          0.895              1.161              0.565
 Vibration    31          0.927              1.093              0.502
 Vibration    32          0.943              1.061              0.474

 Optimization completed.
    -- Stationary point found.
 Normal termination of Gaussian 16 at Tue May 23 20:08:04 2023.
