 Gaussian 16, Revision A.03,
 Gaussian 16:  ES64L-G16RevA.03 25-Dec-2016

 -----------------------------
 # opt freq b3lyp/6-31g(2df,p)
 -----------------------------

 -------------------
 Title Card Required
 -------------------
 Symbolic Z-matrix:
 Charge =  0 Multiplicity = 1

 SCF Done:  E(RB3LYP) =  -980.192130182     A.U. after   12 cycles
 SCF Done:  E(RB3LYP) =  -980.210953929     A.U. after   11 cycles
 SCF Done:  E(RB3LYP) =  -980.216855086     A.U. after   11 cycles
 SCF Done:  E(RB3LYP) =  -980.218856271     A.U. after   11 cycles
 SCF Done:  E(RB3LYP) =  -980.219717616     A.U. after   10 cycles
 SCF Done:  E(RB3LYP) =  -980.219997755     A.U. after   10 cycles
 SCF Done:  E(RB3LYP) =  -980.220087863     A.U. after   10 cycles
 SCF Done:  E(RB3LYP) =  -980.220115228     A.U. after    9 cycles
 SCF Done:  E(RB3LYP) =  -980.220144719     A.U. after    9 cycles
 SCF Done:  E(RB3LYP) =  -980.220158482     A.U. after    9 cycles
 SCF Done:  E(RB3LYP) =  -980.220163301     A.U. after    9 cycles
 SCF Done:  E(RB3LYP) =  -980.220164932     A.U. after    8 cycles
 SCF Done:  E(RB3LYP) =  -980.220165614     A.U. after    7 cycles
 SCF Done:  E(RB3LYP) =  -980.220165676     A.U. after    5 cycles
 Optimization completed.
    -- Stationary point found.
 Normal termination of Gaussian 16 at Tue May 23 01:31:53 2023.

 ----------------------------------------------------------------------
 #N Geom=AllCheck Guess=TCheck SCRF=Check GenChk RB3LYP/6-31G(2df,p) Fr
 eq
 ----------------------------------------------------------------------

 Structure from the checkpoint file:  "CCCCC1NCqCCrCCqOCrOP1.chk"
 -------------------
 Title Card Required
 -------------------
 Charge =  0 Multiplicity = 1

                         Standard orientation:
 ---------------------------------------------------------------------
 Center     Atomic      Atomic             Coordinates (Angstroms)
 Number     Number       Type             X           Y           Z
 ---------------------------------------------------------------------
      1          6           0       -5.740949   -0.228148    0.824054
      2          6           0       -4.771419    0.128473   -0.305646
      3          6           0       -3.298144   -0.008522    0.096050
      4          6           0       -2.337447    0.358747   -1.044307
      5          6           0       -0.834216    0.258928   -0.714919
      6          7           0       -0.458222    1.273143    0.261617
      7          6           0        0.960480    1.467383    0.600403
      8          6           0        1.774574    1.900085   -0.631177
      9          6           0        3.113814    2.556081   -0.279345
     10          6           0        1.586441    0.317701    1.436810
     11          6           0        2.100278   -0.944273    0.732427
     12          8           0        3.366446   -0.673562    0.217892
     13          6           0        4.049343   -1.809177   -0.287542
     14          8           0        1.298667   -1.435152   -0.342399
     15         15           0       -0.347713   -1.549037   -0.410619
     16          1           0       -6.782494   -0.120675    0.505562
     17          1           0       -5.591083    0.420305    1.694662
     18          1           0       -5.599772   -1.262963    1.155627
     19          1           0       -4.957724    1.157606   -0.639865
     20          1           0       -4.967957   -0.512467   -1.175114
     21          1           0       -3.114326   -1.039964    0.427799
     22          1           0       -3.112822    0.631938    0.969202
     23          1           0       -2.536290    1.389520   -1.361930
     24          1           0       -2.547252   -0.288427   -1.904934
     25          1           0       -0.292989    0.482634   -1.642905
     26          1           0       -0.976572    1.121044    1.120472
     27          1           0        0.949322    2.329234    1.282470
     28          1           0        1.152477    2.608856   -1.189935
     29          1           0        1.958460    1.042859   -1.284687
     30          1           0        2.974068    3.416594    0.385383
     31          1           0        3.614112    2.916616   -1.183629
     32          1           0        3.786105    1.846404    0.208535
     33          1           0        0.846687    0.011273    2.185128
     34          1           0        2.444176    0.699060    2.001479
     35          1           0        2.176124   -1.763267    1.471041
     36          1           0        5.050671   -1.475215   -0.566711
     37          1           0        3.543479   -2.226981   -1.163615
     38          1           0        4.132879   -2.592341    0.480888
     39          1           0       -0.663468   -1.582061    0.988235
 ---------------------------------------------------------------------

 SCF Done:  E(RB3LYP) =  -980.220165676     A.U. after    1 cycles

 The electronic state is 1-A.
 Alpha  occ. eigenvalues --  -77.09638 -19.14913 -19.14473 -14.31124 -10.28505
 Alpha  occ. eigenvalues --  -10.22368 -10.21094 -10.20755 -10.18258 -10.18124
 Alpha  occ. eigenvalues --  -10.18039 -10.17966 -10.17268 -10.16941 -10.16323
 Alpha  occ. eigenvalues --   -6.56277  -4.72729  -4.72411  -4.72000  -1.06662
 Alpha  occ. eigenvalues --   -0.99927  -0.90290  -0.80455  -0.78260  -0.74840
 Alpha  occ. eigenvalues --   -0.73854  -0.69420  -0.67771  -0.65081  -0.63284
 Alpha  occ. eigenvalues --   -0.60440  -0.58243  -0.55255  -0.54675  -0.50783
 Alpha  occ. eigenvalues --   -0.50300  -0.48914  -0.47216  -0.45942  -0.45020
 Alpha  occ. eigenvalues --   -0.44057  -0.42738  -0.42193  -0.41198  -0.40968
 Alpha  occ. eigenvalues --   -0.39801  -0.39170  -0.38131  -0.37741  -0.37344
 Alpha  occ. eigenvalues --   -0.35628  -0.35092  -0.34198  -0.33493  -0.33107
 Alpha  occ. eigenvalues --   -0.32796  -0.32315  -0.32203  -0.31205  -0.30919
 Alpha  occ. eigenvalues --   -0.28742  -0.26783  -0.25929  -0.19548
 Alpha virt. eigenvalues --    0.02008   0.04789   0.07470   0.09436   0.10073
 Alpha virt. eigenvalues --    0.10676   0.11079   0.11569   0.12406   0.13203
 Alpha virt. eigenvalues --    0.13628   0.14205   0.15007   0.15775   0.15962

 Mulliken charges:
               1
     1  C   -0.383607
     2  C   -0.158758
     3  C   -0.173628
     4  C   -0.225963
     5  C    0.017802
     6  N   -0.319311
     7  C    0.036737
     8  C   -0.168625
     9  C   -0.397905
    10  C   -0.275980
    11  C    0.209870
    12  O   -0.222116
    13  C   -0.241387
    14  O   -0.266055
    15  P    0.019943
    16  H    0.112566
    17  H    0.112606
    18  H    0.114697
    19  H    0.097419
    20  H    0.098189
    21  H    0.104244
    22  H    0.092822
    23  H    0.103007
    24  H    0.107352
    25  H    0.101415
    26  H    0.210747
    27  H    0.075175
    28  H    0.096395
    29  H    0.115351
    30  H    0.104243
    31  H    0.108475
    32  H    0.134500
    33  H    0.094376
    34  H    0.118109
    35  H    0.068032
    36  H    0.127291
    37  H    0.134751
    38  H    0.106196
    39  H    0.011025
 Sum of Mulliken charges =  -0.00000

 Dipole moment (field-independent basis, Debye):
    X=             -0.0451    Y=              0.0856    Z=              1.3957  Tot=              1.3990
 Quadrupole moment (field-independent basis, Debye-Ang):
   XX=            -97.6775   YY=           -105.4715   ZZ=            -99.5110
   XY=             -3.7349   XZ=              0.0416   YZ=             -1.4905

  Exact polarizability: 191.899   0.253 149.270   0.353  -0.470 132.159
 Approx polarizability: 229.512  -1.891 222.592  -1.095   0.614 214.039

                      1                      2                      3
                      A                      A                      A
 Frequencies --     27.9356                42.9039                64.3376
 Red. masses --      4.4479                 3.3919                 1.6418
 Frc consts  --      0.0020                 0.0037                 0.0040
 IR Inten    --      0.6732                 0.1046                 0.0085

                      4                      5                      6
                      A                      A                      A
 Frequencies --     74.6653               102.8307               110.6472
 Red. masses --      3.9269                 2.7590                 2.4623
 Frc consts  --      0.0129                 0.0172                 0.0178
 IR Inten    --      0.1684                 1.4461                 2.2302

                      7                      8                      9
                      A                      A                      A
 Frequencies --    119.7412               129.3091               143.4547
 Red. masses --      2.6072                 2.6030                 2.1861
 Frc consts  --      0.0220                 0.0256                 0.0265
 IR Inten    --      0.3591                 0.5951                 0.0894

                     10                     11                     12
                      A                      A                      A
 Frequencies --    173.9109               179.7791               218.3111
 Red. masses --      2.0050                 2.0520                 3.1124
 Frc consts  --      0.0357                 0.0391                 0.0874
 IR Inten    --      1.3603                 1.6325                 0.7077

                     13                     14                     15
                      A                      A                      A
 Frequencies --    221.0499               235.7615               245.7561
 Red. masses --      1.7201                 2.6656                 1.4167
 Frc consts  --      0.0495                 0.0873                 0.0504
 IR Inten    --      0.4997                 0.6103                 0.4413

                     16                     17                     18
                      A                      A                      A
 Frequencies --    260.0907               283.6033               296.9804
 Red. masses --      2.0234                 2.4515                 2.7991
 Frc consts  --      0.0806                 0.1162                 0.1455
 IR Inten    --      0.5773                 1.9049                 0.9152

                     19                     20                     21
                      A                      A                      A
 Frequencies --    315.7324               387.1848               398.0111
 Red. masses --      2.8299                 3.0077                 2.5047
 Frc consts  --      0.1662                 0.2657                 0.2338
 IR Inten    --      2.9481                 2.2994                 0.8127

                     22                     23                     24
                      A                      A                      A
 Frequencies --    418.0374               447.2659               487.7762
 Red. masses --      2.5155                 3.0286                 4.5580
 Frc consts  --      0.2590                 0.3570                 0.6390
 IR Inten    --      2.0334                 4.4011                21.6769

                     25                     26                     27
                      A                      A                      A
 Frequencies --    514.5133               580.2967               648.9616
 Red. masses --      3.6225                 3.2398                 3.6511
 Frc consts  --      0.5650                 0.6428                 0.9060
 IR Inten    --      3.3897                 2.9699                30.1162

                     28                     29                     30
                      A                      A                      A
 Frequencies --    703.0336               720.7262               742.0508
 Red. masses --      3.7444                 1.4792                 1.3897
 Frc consts  --      1.0904                 0.4527                 0.4509
 IR Inten    --      4.6603                24.1457                36.5320

                     31                     32                     33
                      A                      A                      A
 Frequencies --    749.4014               791.1264               811.6170
 Red. masses --      1.5161                 1.2388                 3.4369
 Frc consts  --      0.5016                 0.4568                 1.3339
 IR Inten    --     21.1457                 6.9664                20.6012

                     34                     35                     36
                      A                      A                      A
 Frequencies --    840.6803               860.4180               878.1423
 Red. masses --      1.5646                 1.4801                 2.4741
 Frc consts  --      0.6515                 0.6456                 1.1241
 IR Inten    --      4.0166                36.0981                56.7178

                     37                     38                     39
                      A                      A                      A
 Frequencies --    896.1615               909.9733               931.5162
 Red. masses --      2.2377                 1.8867                 1.7251
 Frc consts  --      1.0588                 0.9204                 0.8820
 IR Inten    --     52.7289                18.0258                 6.3579

                     40                     41                     42
                      A                      A                      A
 Frequencies --    956.2492               965.8459               980.7292
 Red. masses --      1.6857                 1.3474                 1.9862
 Frc consts  --      0.9082                 0.7405                 1.1256
 IR Inten    --     14.1274               142.2750                93.7071

                     43                     44                     45
                      A                      A                      A
 Frequencies --   1012.1174              1036.1034              1044.4312
 Red. masses --      2.2780                 2.4969                 2.7172
 Frc consts  --      1.3749                 1.5792                 1.7463
 IR Inten    --     15.8068                19.7618                66.2153

                     46                     47                     48
                      A                      A                      A
 Frequencies --   1059.4602              1066.7377              1091.4002
 Red. masses --      2.3828                 2.8424                 2.2901
 Frc consts  --      1.5758                 1.9057                 1.6072
 IR Inten    --      6.5028                12.5453                40.5937

                     49                     50                     51
                      A                      A                      A
 Frequencies --   1108.1884              1117.1529              1136.4068
 Red. masses --      1.7593                 2.1060                 1.7971
 Frc consts  --      1.2730                 1.5486                 1.3674
 IR Inten    --     22.6952                48.3292                 3.5158

                     52                     53                     54
                      A                      A                      A
 Frequencies --   1158.8886              1173.3326              1180.3481
 Red. masses --      2.8084                 2.0825                 1.3522
 Frc consts  --      2.2222                 1.6892                 1.1100
 IR Inten    --     80.6191                51.4576                 7.9368

                     55                     56                     57
                      A                      A                      A
 Frequencies --   1187.8693              1222.4970              1228.3876
 Red. masses --      2.8013                 1.5898                 1.6089
 Frc consts  --      2.3289                 1.3998                 1.4304
 IR Inten    --     55.4027                37.0842                11.0049

                     58                     59                     60
                      A                      A                      A
 Frequencies --   1256.9661              1274.9482              1285.5169
 Red. masses --      1.3841                 1.3254                 1.3406
 Frc consts  --      1.2885                 1.2693                 1.3052
 IR Inten    --      3.5113                 7.3196                24.4381

                     61                     62                     63
                      A                      A                      A
 Frequencies --   1293.9430              1310.9014              1327.7889
 Red. masses --      1.2556                 1.2473                 1.1700
 Frc consts  --      1.2386                 1.2629                 1.2153
 IR Inten    --      9.6997                 3.6165                 1.1456

                     64                     65                     66
                      A                      A                      A
 Frequencies --   1335.4476              1345.4136              1351.4742
 Red. masses --      1.2396                 1.1798                 1.3236
 Frc consts  --      1.3026                 1.2582                 1.4243
 IR Inten    --      8.2445                 5.5056                 0.5835

                     67                     68                     69
                      A                      A                      A
 Frequencies --   1375.4077              1389.6550              1395.1984
 Red. masses --      1.4007                 1.1876                 1.2685
 Frc consts  --      1.5612                 1.3512                 1.4549
 IR Inten    --      1.1875                34.1079                 1.9049

                     70                     71                     72
                      A                      A                      A
 Frequencies --   1401.0881              1407.5906              1409.6643
 Red. masses --      1.5253                 1.3794                 1.2477
 Frc consts  --      1.7641                 1.6102                 1.4608
 IR Inten    --      5.1626                 5.3420                11.8082

                     73                     74                     75
                      A                      A                      A
 Frequencies --   1412.5605              1414.0162              1467.3120
 Red. masses --      1.3227                 1.2530                 1.0876
 Frc consts  --      1.5550                 1.4761                 1.3796
 IR Inten    --      4.0100                 1.4748                15.2740

                     76                     77                     78
                      A                      A                      A
 Frequencies --   1470.9433              1477.8634              1481.8205
 Red. masses --      1.0816                 1.1598                 1.0752
 Frc consts  --      1.3788                 1.4924                 1.3910
 IR Inten    --      5.3375                 2.8964                 0.5493

                     79                     80                     81
                      A                      A                      A
 Frequencies --   1482.9656              1494.1223              1494.6706
 Red. masses --      1.0534                 1.0595                 1.0670
 Frc consts  --      1.3650                 1.3936                 1.4044
 IR Inten    --      4.4016                 1.7500                 0.4486

                     82                     83                     84
                      A                      A                      A
 Frequencies --   1499.9158              1500.1394              1510.0501
 Red. masses --      1.0621                 1.0531                 1.0878
 Frc consts  --      1.4078                 1.3963                 1.4614
 IR Inten    --      6.7938                 1.5253                 0.8372

                     85                     86                     87
                      A                      A                      A
 Frequencies --   1512.6093              1513.0706              1517.5833
 Red. masses --      1.0758                 1.1252                 1.1198
 Frc consts  --      1.4503                 1.5178                 1.5194
 IR Inten    --      2.8990                16.3767                 5.2214

                     88                     89                     90
                      A                      A                      A
 Frequencies --   2285.0636              2928.2330              2994.9701
 Red. masses --      1.0389                 1.0821                 1.0452
 Frc consts  --      3.1961                 5.4666                 5.5236
 IR Inten    --     86.2556                62.8769                71.9679

                     91                     92                     93
                      A                      A                      A
 Frequencies --   2995.9202              3002.1113              3014.7876
 Red. masses --      1.0828                 1.0574                 1.0598
 Frc consts  --      5.7260                 5.6150                 5.6752
 IR Inten    --     25.8441                 7.2024                 7.4363

                     94                     95                     96
                      A                      A                      A
 Frequencies --   3021.4484              3027.8794              3028.4329
 Red. masses --      1.0653                 1.0971                 1.0380
 Frc consts  --      5.7298                 5.9264                 5.6091
 IR Inten    --     38.3822                 1.8367                30.8390

                     97                     98                     99
                      A                      A                      A
 Frequencies --   3031.9050              3032.5063              3039.4786
 Red. masses --      1.0394                 1.0739                 1.0650
 Frc consts  --      5.6294                 5.8184                 5.7970
 IR Inten    --     34.7976                25.5672                46.5055

                    100                    101                    102
                      A                      A                      A
 Frequencies --   3042.1347              3050.4046              3070.7642
 Red. masses --      1.0630                 1.1034                 1.1047
 Frc consts  --      5.7962                 6.0492                 6.1375
 IR Inten    --      8.5686                 7.0130                39.1102

                    103                    104                    105
                      A                      A                      A
 Frequencies --   3078.7078              3080.0628              3086.5681
 Red. masses --      1.0982                 1.0912                 1.0969
 Frc consts  --      6.1327                 6.0990                 6.1572
 IR Inten    --     28.9770                24.6965                13.1033

                    106                    107                    108
                      A                      A                      A
 Frequencies --   3094.6377              3101.1099              3101.9177
 Red. masses --      1.1022                 1.1008                 1.0987
 Frc consts  --      6.2189                 6.2374                 6.2287
 IR Inten    --     55.8310                39.5011                34.9802

                    109                    110                    111
                      A                      A                      A
 Frequencies --   3126.4033              3130.0032              3517.4957
 Red. masses --      1.1000                 1.1029                 1.0731
 Frc consts  --      6.3346                 6.3663                 7.8227
 IR Inten    --     22.8351                23.0996                 0.2486

 - Thermochemistry -
 -------------------
 Temperature   298.150 Kelvin.  Pressure   1.00000 Atm.
 Atom     1 has atomic number  6 and mass  12.00000

 Molecular mass:   233.15447 amu.
 Principal axes and moments of inertia in atomic units:
                           1         2         3
     Eigenvalues --  1861.818836972.758868001.11814
           X            0.99998   0.00444  -0.00469
           Y           -0.00454   0.99978  -0.02052
           Z            0.00460   0.02054   0.99978
 This molecule is an asymmetric top.
 Rotational symmetry number  1.
 Warning -- assumption of classical behavior for rotation
           may cause significant error
 Rotational temperatures (Kelvin)      0.04652     0.01242     0.01083
 Rotational constants (GHZ):           0.96934     0.25883     0.22556
 Zero-point vibrational energy     909062.8 (Joules/Mol)
                                  217.27123 (Kcal/Mol)
 Warning -- explicit consideration of  26 degrees of freedom as
           vibrations may cause significant error
 Vibrational temperatures:     40.19    61.73    92.57   107.43   147.95
          (Kelvin)            159.20   172.28   186.05   206.40   250.22
                              258.66   314.10   318.04   339.21   353.59
                              374.21   408.04   427.29   454.27   557.07
                              572.65   601.46   643.52   701.80   740.27
                              834.92   933.71  1011.51  1036.96  1067.65
                             1078.22  1138.25  1167.74  1209.55  1237.95
                             1263.45  1289.38  1309.25  1340.24  1375.83
                             1389.64  1411.05  1456.21  1490.72  1502.70
                             1524.33  1534.80  1570.28  1594.44  1607.33
                             1635.04  1667.38  1688.16  1698.26  1709.08
                             1758.90  1767.38  1808.49  1834.37  1849.57
                             1861.70  1886.09  1910.39  1921.41  1935.75
                             1944.47  1978.90  1999.40  2007.38  2015.85
                             2025.21  2028.19  2032.36  2034.45  2111.13
                             2116.36  2126.32  2132.01  2133.66  2149.71
                             2150.50  2158.04  2158.37  2172.63  2176.31
                             2176.97  2183.46  3287.70  4213.07  4309.09
                             4310.46  4319.37  4337.61  4347.19  4356.44
                             4357.24  4362.24  4363.10  4373.13  4376.95
                             4388.85  4418.14  4429.57  4431.52  4440.88
                             4452.49  4461.81  4462.97  4498.20  4503.38
                             5060.89

 Zero-point correction=                           0.346244 (Hartree/Particle)
 Thermal correction to Energy=                    0.364423
 Thermal correction to Enthalpy=                  0.365367
 Thermal correction to Gibbs Free Energy=         0.299635
 Sum of electronic and zero-point Energies=           -979.873922
 Sum of electronic and thermal Energies=              -979.855743
 Sum of electronic and thermal Enthalpies=            -979.854799
 Sum of electronic and thermal Free Energies=         -979.920531

                     E (Thermal)             CV                S
                      KCal/Mol        Cal/Mol-Kelvin    Cal/Mol-Kelvin
 Total                  228.679             67.393            138.345
 Electronic               0.000              0.000              0.000
 Translational            0.889              2.981             42.241
 Rotational               0.889              2.981             33.007
 Vibrational            226.901             61.432             63.097
 Vibration     1          0.593              1.984              5.971
 Vibration     2          0.595              1.980              5.120
 Vibration     3          0.597              1.971              4.320
 Vibration     4          0.599              1.966              4.026
 Vibration     5          0.605              1.947              3.400
 Vibration     6          0.606              1.941              3.258
 Vibration     7          0.609              1.933              3.105
 Vibration     8          0.612              1.924              2.956
 Vibration     9          0.616              1.910              2.757
 Vibration    10          0.627              1.875              2.393
 Vibration    11          0.629              1.867              2.331
 Vibration    12          0.646              1.813              1.973
 Vibration    13          0.648              1.809              1.950
 Vibration    14          0.655              1.786              1.835
 Vibration    15          0.660              1.770              1.761
 Vibration    16          0.668              1.746              1.661
 Vibration    17          0.682              1.704              1.512
 Vibration    18          0.691              1.679              1.434
 Vibration    19          0.703              1.644              1.332
 Vibration    20          0.756              1.498              1.011
 Vibration    21          0.764              1.474              0.970
 Vibration    22          0.781              1.431              0.899
 Vibration    23          0.806              1.367              0.804
 Vibration    24          0.844              1.277              0.689
 Vibration    25          0.870              1.218              0.623
 Vibration    26          0.937              1.074              0.485

 Optimization completed.
    -- Stationary point found.
 Normal termination of Gaussian 16 at Tue May 23 04:57:48 2023.
