 Gaussian 16, Revision A.03,
 Gaussian 16:  ES64L-G16RevA.03 25-Dec-2016

 -----------------------------
 # opt freq b3lyp/6-31g(2df,p)
 -----------------------------

 -------------------
 Title Card Required
 -------------------
 Symbolic Z-matrix:
 Charge =  0 Multiplicity = 1

 SCF Done:  E(RB3LYP) =  -315.734916235     A.U. after   12 cycles
 SCF Done:  E(RB3LYP) =  -315.737357600     A.U. after   10 cycles
 SCF Done:  E(RB3LYP) =  -315.737729568     A.U. after    8 cycles
 SCF Done:  E(RB3LYP) =  -315.737763989     A.U. after    8 cycles
 SCF Done:  E(RB3LYP) =  -315.737766232     A.U. after    7 cycles
 SCF Done:  E(RB3LYP) =  -315.737766838     A.U. after    6 cycles
 Optimization completed.
    -- Stationary point found.
 Normal termination of Gaussian 16 at Sun May 28 03:59:45 2023.

 ----------------------------------------------------------------------
 #N Geom=AllCheck Guess=TCheck SCRF=Check GenChk RB3LYP/6-31G(2df,p) Fr
 eq
 ----------------------------------------------------------------------

 Structure from the checkpoint file:  "CCCCqCrCCC.chk"
 -------------------
 Title Card Required
 -------------------
 Charge =  0 Multiplicity = 1

                         Standard orientation:
 ---------------------------------------------------------------------
 Center     Atomic      Atomic             Coordinates (Angstroms)
 Number     Number       Type             X           Y           Z
 ---------------------------------------------------------------------
      1          6           0       -3.786525   -0.753492    0.062842
      2          6           0       -2.587536    0.108460   -0.344571
      3          6           0       -1.262285   -0.414434    0.223217
      4          6           0        0.000000    0.345451   -0.228965
      5          6           0        0.000000    1.800230    0.264625
      6          6           0        1.262284   -0.414435    0.223217
      7          6           0        2.587536    0.108459   -0.344572
      8          6           0        3.786525   -0.753492    0.062843
      9          1           0       -4.720573   -0.363506   -0.353878
     10          1           0       -3.897173   -0.787348    1.152576
     11          1           0       -3.670322   -1.785300   -0.287496
     12          1           0       -2.759688    1.139589   -0.014407
     13          1           0       -2.520519    0.146869   -1.440339
     14          1           0       -1.155164   -1.469446   -0.064487
     15          1           0       -1.310849   -0.407430    1.322305
     16          1           0       -0.000000    0.361095   -1.330068
     17          1           0       -0.000000    1.837302    1.361275
     18          1           0       -0.879795    2.347134   -0.085788
     19          1           0        0.879796    2.347134   -0.085787
     20          1           0        1.155164   -1.469446   -0.064487
     21          1           0        1.310849   -0.407430    1.322305
     22          1           0        2.759687    1.139589   -0.014409
     23          1           0        2.520519    0.146867   -1.440340
     24          1           0        3.897173   -0.787346    1.152577
     25          1           0        4.720573   -0.363506   -0.353878
     26          1           0        3.670323   -1.785301   -0.287494
 ---------------------------------------------------------------------

 SCF Done:  E(RB3LYP) =  -315.737766838     A.U. after    1 cycles

 The electronic state is 1-A.
 Alpha  occ. eigenvalues --  -10.17910 -10.17397 -10.17397 -10.17025 -10.17024
 Alpha  occ. eigenvalues --  -10.16875 -10.16875 -10.16617  -0.81220  -0.77300
 Alpha  occ. eigenvalues --   -0.74064  -0.67362  -0.66639  -0.60163  -0.56916
 Alpha  occ. eigenvalues --   -0.55093  -0.46873  -0.45299  -0.43374  -0.43232
 Alpha  occ. eigenvalues --   -0.41300  -0.39886  -0.38025  -0.37224  -0.36624
 Alpha  occ. eigenvalues --   -0.35673  -0.34806  -0.33361  -0.32950  -0.31821
 Alpha  occ. eigenvalues --   -0.31214  -0.30659  -0.29343
 Alpha virt. eigenvalues --    0.08615   0.10396   0.11514   0.11780   0.12114
 Alpha virt. eigenvalues --    0.14039   0.15254   0.16057   0.16828   0.17107
 Alpha virt. eigenvalues --    0.17572   0.17884   0.19177   0.19455   0.19579

 Mulliken charges:
               1
     1  C   -0.377841
     2  C   -0.176319
     3  C   -0.159396
     4  C    0.027418
     5  C   -0.389631
     6  C   -0.159396
     7  C   -0.176319
     8  C   -0.377841
     9  H    0.108934
    10  H    0.112627
    11  H    0.112088
    12  H    0.097676
    13  H    0.091789
    14  H    0.085422
    15  H    0.086730
    16  H    0.064642
    17  H    0.108172
    18  H    0.112989
    19  H    0.112990
    20  H    0.085422
    21  H    0.086730
    22  H    0.097676
    23  H    0.091789
    24  H    0.112627
    25  H    0.108934
    26  H    0.112088
 Sum of Mulliken charges =  -0.00000

 Dipole moment (field-independent basis, Debye):
    X=             -0.0000    Y=              0.0462    Z=             -0.0768  Tot=              0.0896
 Quadrupole moment (field-independent basis, Debye-Ang):
   XX=            -55.6459   YY=            -54.9930   ZZ=            -54.1615
   XY=              0.0000   XZ=             -0.0000   YZ=              0.3471

  Exact polarizability: 108.549  -0.000  83.487   0.000  -0.209  77.556
 Approx polarizability: 122.047  -0.000 119.727  -0.000   0.482 120.308

                      1                      2                      3
                      A                      A                      A
 Frequencies --     56.6209                68.5730                80.6855
 Red. masses --      1.5073                 2.2368                 2.0946
 Frc consts  --      0.0028                 0.0062                 0.0080
 IR Inten    --      0.0013                 0.0008                 0.0107

                      4                      5                      6
                      A                      A                      A
 Frequencies --    118.5756               122.1526               225.7444
 Red. masses --      2.8506                 1.9547                 1.1678
 Frc consts  --      0.0236                 0.0172                 0.0351
 IR Inten    --      0.0100                 0.0308                 0.0032

                      7                      8                      9
                      A                      A                      A
 Frequencies --    237.6537               247.4172               254.2342
 Red. masses --      2.1092                 1.1038                 1.2067
 Frc consts  --      0.0702                 0.0398                 0.0460
 IR Inten    --      0.0038                 0.0039                 0.0064

                     10                     11                     12
                      A                      A                      A
 Frequencies --    308.0937               322.9759               376.2841
 Red. masses --      3.6651                 2.3422                 2.3574
 Frc consts  --      0.2050                 0.1440                 0.1967
 IR Inten    --      0.0335                 0.0496                 0.1614

                     13                     14                     15
                      A                      A                      A
 Frequencies --    453.0235               520.6696               738.9230
 Red. masses --      2.1052                 2.5173                 1.1015
 Frc consts  --      0.2546                 0.4021                 0.3543
 IR Inten    --      0.2214                 0.0417                 0.0012

                     16                     17                     18
                      A                      A                      A
 Frequencies --    747.4714               831.6254               855.5919
 Red. masses --      1.1318                 2.0905                 1.2415
 Frc consts  --      0.3726                 0.8518                 0.5355
 IR Inten    --      4.8105                 0.0228                 0.6188

                     19                     20                     21
                      A                      A                      A
 Frequencies --    875.8541               881.7475               929.2587
 Red. masses --      2.0233                 1.2886                 1.7561
 Frc consts  --      0.9145                 0.5903                 0.8935
 IR Inten    --      1.0992                 1.0076                 0.3412

                     22                     23                     24
                      A                      A                      A
 Frequencies --    959.3983               991.3994              1034.2638
 Red. masses --      1.8168                 1.2246                 2.8804
 Frc consts  --      0.9853                 0.7092                 1.8154
 IR Inten    --      5.4716                 0.0684                 0.1036

                     25                     26                     27
                      A                      A                      A
 Frequencies --   1042.8117              1056.1652              1085.7436
 Red. masses --      1.6007                 1.8454                 2.4163
 Frc consts  --      1.0256                 1.2128                 1.6782
 IR Inten    --      0.0900                 0.0016                 0.2383

                     28                     29                     30
                      A                      A                      A
 Frequencies --   1088.0472              1164.8273              1178.4482
 Red. masses --      1.7537                 2.5709                 1.8324
 Frc consts  --      1.2232                 2.0552                 1.4993
 IR Inten    --      0.9811                 0.5919                 7.3105

                     31                     32                     33
                      A                      A                      A
 Frequencies --   1202.4313              1251.8758              1276.5071
 Red. masses --      2.0021                 1.3975                 1.3137
 Frc consts  --      1.7055                 1.2904                 1.2613
 IR Inten    --      0.0868                 4.5242                 0.5035

                     34                     35                     36
                      A                      A                      A
 Frequencies --   1289.7036              1321.1204              1327.3416
 Red. masses --      1.2208                 1.3200                 1.0828
 Frc consts  --      1.1964                 1.3574                 1.1240
 IR Inten    --      0.9919                 0.1540                 0.0546

                     37                     38                     39
                      A                      A                      A
 Frequencies --   1332.0519              1361.0434              1380.0594
 Red. masses --      1.1445                 1.3650                 1.3307
 Frc consts  --      1.1964                 1.4898                 1.4932
 IR Inten    --      1.0986                 0.5894                 2.6903

                     40                     41                     42
                      A                      A                      A
 Frequencies --   1392.7014              1398.3757              1409.8144
 Red. masses --      1.5882                 1.4138                 1.2591
 Frc consts  --      1.8149                 1.6289                 1.4745
 IR Inten    --      1.5409                 0.6735                 1.4561

                     43                     44                     45
                      A                      A                      A
 Frequencies --   1412.2611              1416.1977              1474.4845
 Red. masses --      1.2380                 1.2759                 1.0769
 Frc consts  --      1.4548                 1.5077                 1.3795
 IR Inten    --      0.0521                 5.6259                 0.0444

                     46                     47                     48
                      A                      A                      A
 Frequencies --   1484.9251              1492.6103              1494.7317
 Red. masses --      1.0714                 1.0593                 1.0652
 Frc consts  --      1.3919                 1.3905                 1.4022
 IR Inten    --      0.0962                 1.3036                 0.1771

                     49                     50                     51
                      A                      A                      A
 Frequencies --   1498.3149              1499.5176              1499.6630
 Red. masses --      1.0588                 1.0416                 1.0407
 Frc consts  --      1.4004                 1.3800                 1.3790
 IR Inten    --      0.8057                 9.9929                 0.3967

                     52                     53                     54
                      A                      A                      A
 Frequencies --   1506.0224              1510.1145              1513.3620
 Red. masses --      1.0524                 1.0824                 1.0737
 Frc consts  --      1.4064                 1.4542                 1.4489
 IR Inten    --      1.9434                 0.5796                 9.1884

                     55                     56                     57
                      A                      A                      A
 Frequencies --   2979.9899              2992.5341              2999.5081
 Red. masses --      1.0801                 1.0589                 1.0602
 Frc consts  --      5.6513                 5.5869                 5.6199
 IR Inten    --      6.6667                 0.1330                29.8383

                     58                     59                     60
                      A                      A                      A
 Frequencies --   3015.4994              3017.3512              3024.9796
 Red. masses --      1.0674                 1.0647                 1.0940
 Frc consts  --      5.7187                 5.7111                 5.8981
 IR Inten    --      0.1207                72.1101                 0.0384

                     61                     62                     63
                      A                      A                      A
 Frequencies --   3027.1426              3027.3580              3028.3453
 Red. masses --      1.0356                 1.0367                 1.0402
 Frc consts  --      5.5911                 5.5981                 5.6207
 IR Inten    --     42.6407                37.6140                15.1243

                     64                     65                     66
                      A                      A                      A
 Frequencies --   3032.7099              3056.6969              3060.1853
 Red. masses --      1.0959                 1.1004                 1.0997
 Frc consts  --      5.9387                 6.0578                 6.0676
 IR Inten    --     22.5998                 0.0813                65.6404

                     67                     68                     69
                      A                      A                      A
 Frequencies --   3094.0266              3094.3038              3096.7023
 Red. masses --      1.1022                 1.1015                 1.0967
 Frc consts  --      6.2168                 6.2138                 6.1964
 IR Inten    --      0.0173               122.5620                11.3265

                     70                     71                     72
                      A                      A                      A
 Frequencies --   3098.9878              3099.5202              3110.9447
 Red. masses --      1.1010                 1.0999                 1.1003
 Frc consts  --      6.2298                 6.2258                 6.2739
 IR Inten    --     33.7254                60.7488                40.9911

 - Thermochemistry -
 -------------------
 Temperature   298.150 Kelvin.  Pressure   1.00000 Atm.
 Atom     1 has atomic number  6 and mass  12.00000

 Molecular mass:   114.14085 amu.
 Principal axes and moments of inertia in atomic units:
                           1         2         3
     Eigenvalues --   386.970172505.716032749.24876
           X            1.00000   0.00000   0.00000
           Y           -0.00000   0.99999  -0.00375
           Z           -0.00000   0.00375   0.99999
 This molecule is an asymmetric top.
 Rotational symmetry number  1.
 Rotational temperatures (Kelvin)      0.22383     0.03457     0.03150
 Rotational constants (GHZ):           4.66377     0.72025     0.65645
 Zero-point vibrational energy     642731.4 (Joules/Mol)
                                  153.61649 (Kcal/Mol)
 Warning -- explicit consideration of  14 degrees of freedom as
           vibrations may cause significant error
 Vibrational temperatures:     81.46    98.66   116.09   170.60   175.75
          (Kelvin)            324.80   341.93   355.98   365.79   443.28
                              464.69   541.39   651.80   749.13  1063.15
                             1075.44  1196.52  1231.01  1260.16  1268.64
                             1337.00  1380.36  1426.40  1488.07  1500.37
                             1519.59  1562.14  1565.46  1675.93  1695.52
                             1730.03  1801.17  1836.61  1855.60  1900.80
                             1909.75  1916.53  1958.24  1985.60  2003.79
                             2011.95  2028.41  2031.93  2037.59  2121.45
                             2136.48  2147.53  2150.59  2155.74  2157.47
                             2157.68  2166.83  2172.72  2177.39  4287.54
                             4305.59  4315.62  4338.63  4341.30  4352.27
                             4355.38  4355.69  4357.11  4363.39  4397.91
                             4402.92  4451.61  4452.01  4455.46  4458.75
                             4459.52  4475.96

 Zero-point correction=                           0.244803 (Hartree/Particle)
 Thermal correction to Energy=                    0.255964
 Thermal correction to Enthalpy=                  0.256908
 Thermal correction to Gibbs Free Energy=         0.207958
 Sum of electronic and zero-point Energies=           -315.492963
 Sum of electronic and thermal Energies=              -315.481803
 Sum of electronic and thermal Enthalpies=            -315.480858
 Sum of electronic and thermal Free Energies=         -315.529809

                     E (Thermal)             CV                S
                      KCal/Mol        Cal/Mol-Kelvin    Cal/Mol-Kelvin
 Total                  160.620             39.832            103.024
 Electronic               0.000              0.000              0.000
 Translational            0.889              2.981             40.112
 Rotational               0.889              2.981             29.368
 Vibrational            158.842             33.871             33.544
 Vibration     1          0.596              1.975              4.572
 Vibration     2          0.598              1.969              4.194
 Vibration     3          0.600              1.962              3.874
 Vibration     4          0.609              1.934              3.123
 Vibration     5          0.610              1.931              3.066
 Vibration     6          0.650              1.802              1.913
 Vibration     7          0.656              1.783              1.820
 Vibration     8          0.661              1.767              1.749
 Vibration     9          0.665              1.756              1.701
 Vibration    10          0.698              1.658              1.373
 Vibration    11          0.708              1.629              1.295
 Vibration    12          0.747              1.521              1.054
 Vibration    13          0.812              1.354              0.787
 Vibration    14          0.876              1.204              0.608

 Optimization completed.
    -- Stationary point found.
 Normal termination of Gaussian 16 at Sun May 28 04:30:30 2023.
