 Gaussian 16, Revision A.03,
 Gaussian 16:  ES64L-G16RevA.03 25-Dec-2016

 -----------------------------
 # opt freq b3lyp/6-31g(2df,p)
 -----------------------------

 -------------------
 Title Card Required
 -------------------
 Symbolic Z-matrix:
 Charge =  0 Multiplicity = 1

 SCF Done:  E(RB3LYP) =  -587.188240061     A.U. after   12 cycles
 SCF Done:  E(RB3LYP) =  -587.197043244     A.U. after   10 cycles
 SCF Done:  E(RB3LYP) =  -587.202338963     A.U. after   10 cycles
 SCF Done:  E(RB3LYP) =  -587.205881731     A.U. after   10 cycles
 SCF Done:  E(RB3LYP) =  -587.209314680     A.U. after   12 cycles
 SCF Done:  E(RB3LYP) =  -587.211592866     A.U. after   12 cycles
 SCF Done:  E(RB3LYP) =  -587.212411720     A.U. after    9 cycles
 SCF Done:  E(RB3LYP) =  -587.212632762     A.U. after    9 cycles
 SCF Done:  E(RB3LYP) =  -587.212755763     A.U. after    8 cycles
 SCF Done:  E(RB3LYP) =  -587.212801099     A.U. after    8 cycles
 SCF Done:  E(RB3LYP) =  -587.212803423     A.U. after    8 cycles
 SCF Done:  E(RB3LYP) =  -587.212804500     A.U. after    6 cycles
 SCF Done:  E(RB3LYP) =  -587.212804745     A.U. after    6 cycles
 SCF Done:  E(RB3LYP) =  -587.212804802     A.U. after    5 cycles
 SCF Done:  E(RB3LYP) =  -587.212804839     A.U. after    5 cycles
 Optimization completed.
    -- Stationary point found.
 Normal termination of Gaussian 16 at Tue May 23 20:00:38 2023.

 ----------------------------------------------------------------------
 #N Geom=AllCheck Guess=TCheck SCRF=Check GenChk RB3LYP/6-31G(2df,p) Fr
 eq
 ----------------------------------------------------------------------

 Structure from the checkpoint file:  "CCCCqCCC1CC1rC1CC1C1CC1.chk"
 -------------------
 Title Card Required
 -------------------
 Charge =  0 Multiplicity = 1

                         Standard orientation:
 ---------------------------------------------------------------------
 Center     Atomic      Atomic             Coordinates (Angstroms)
 Number     Number       Type             X           Y           Z
 ---------------------------------------------------------------------
      1          6           0        0.948090    3.935232    0.045676
      2          6           0        0.639382    2.581780   -0.599795
      3          6           0        0.181770    1.524750    0.416102
      4          6           0       -0.102858    0.130847   -0.199177
      5          6           0        1.070950   -0.851989    0.007463
      6          6           0        2.413546   -0.435277   -0.608138
      7          6           0        3.488597   -1.487900   -0.429387
      8          6           0        4.947701   -1.112767   -0.460445
      9          6           0        4.305344   -1.537595    0.838340
     10          6           0       -1.385092   -0.538639    0.301079
     11          6           0       -1.914592   -0.391976    1.708218
     12          6           0       -2.681639    0.190206    0.540735
     13          6           0       -4.020268   -0.349758    0.129690
     14          6           0       -4.344985   -0.633831   -1.317722
     15          6           0       -4.240242   -1.769230   -0.329630
     16          1           0        1.254419    4.674615   -0.701056
     17          1           0        1.757315    3.849173    0.779729
     18          1           0        0.071730    4.334266    0.569061
     19          1           0        1.522851    2.224764   -1.141697
     20          1           0       -0.146141    2.707008   -1.356780
     21          1           0       -0.710641    1.916520    0.916618
     22          1           0        0.937483    1.428883    1.207270
     23          1           0       -0.227545    0.268581   -1.284351
     24          1           0        0.786330   -1.825187   -0.415627
     25          1           0        1.204150   -1.021115    1.084444
     26          1           0        2.762876    0.502580   -0.158307
     27          1           0        2.276831   -0.229538   -1.679259
     28          1           0        3.242242   -2.453706   -0.865463
     29          1           0        5.197446   -0.063477   -0.581869
     30          1           0        5.648296   -1.791103   -0.935072
     31          1           0        4.123557   -0.771476    1.585728
     32          1           0        4.568977   -2.504452    1.252741
     33          1           0       -1.495418   -1.540052   -0.108684
     34          1           0       -1.415306    0.292951    2.385607
     35          1           0       -2.322244   -1.275376    2.188496
     36          1           0       -2.626600    1.273535    0.454136
     37          1           0       -4.840832    0.067458    0.709848
     38          1           0       -3.539984   -0.525612   -2.037103
     39          1           0       -5.323715   -0.362298   -1.697956
     40          1           0       -3.388117   -2.434668   -0.412552
     41          1           0       -5.152181   -2.265392   -0.015964
 ---------------------------------------------------------------------

 SCF Done:  E(RB3LYP) =  -587.212804839     A.U. after    1 cycles

 The electronic state is 1-A.
 Alpha  occ. eigenvalues --  -10.18567 -10.18371 -10.18210 -10.18191 -10.18095
 Alpha  occ. eigenvalues --  -10.17893 -10.17784 -10.17742 -10.17691 -10.17602
 Alpha  occ. eigenvalues --  -10.17566 -10.17303 -10.17280 -10.17086 -10.17001
 Alpha  occ. eigenvalues --   -0.86786  -0.85118  -0.83213  -0.79426  -0.76100
 Alpha  occ. eigenvalues --   -0.70958  -0.65921  -0.63070  -0.60276  -0.59287
 Alpha  occ. eigenvalues --   -0.59114  -0.58517  -0.55892  -0.55004  -0.53095
 Alpha  occ. eigenvalues --   -0.49625  -0.48621  -0.47359  -0.47059  -0.45344
 Alpha  occ. eigenvalues --   -0.44489  -0.43872  -0.41177  -0.40171  -0.39820
 Alpha  occ. eigenvalues --   -0.37747  -0.37429  -0.36085  -0.35942  -0.35615
 Alpha  occ. eigenvalues --   -0.35181  -0.34828  -0.33648  -0.33396  -0.32431
 Alpha  occ. eigenvalues --   -0.31696  -0.30994  -0.30187  -0.28749  -0.28140
 Alpha  occ. eigenvalues --   -0.27408  -0.26098  -0.25074
 Alpha virt. eigenvalues --    0.08282   0.08852   0.10007   0.10418   0.10674
 Alpha virt. eigenvalues --    0.11078   0.11913   0.12311   0.12838   0.14135
 Alpha virt. eigenvalues --    0.14392   0.14876   0.15167   0.15621   0.15932

 Mulliken charges:
               1
     1  C   -0.382641
     2  C   -0.171361
     3  C   -0.185174
     4  C   -0.021056
     5  C   -0.168899
     6  C   -0.223326
     7  C    0.037668
     8  C   -0.279521
     9  C   -0.253380
    10  C   -0.008378
    11  C   -0.297646
    12  C   -0.062932
    13  C    0.001988
    14  C   -0.262446
    15  C   -0.274162
    16  H    0.110437
    17  H    0.112334
    18  H    0.112838
    19  H    0.100926
    20  H    0.095442
    21  H    0.095896
    22  H    0.088217
    23  H    0.066497
    24  H    0.084205
    25  H    0.098617
    26  H    0.093413
    27  H    0.091757
    28  H    0.078142
    29  H    0.107365
    30  H    0.108035
    31  H    0.106809
    32  H    0.108230
    33  H    0.076037
    34  H    0.107390
    35  H    0.106052
    36  H    0.081327
    37  H    0.081127
    38  H    0.110465
    39  H    0.107757
    40  H    0.114646
    41  H    0.107305
 Sum of Mulliken charges =  -0.00000

 Dipole moment (field-independent basis, Debye):
    X=             -0.0274    Y=              0.0024    Z=             -0.1050  Tot=              0.1086
 Quadrupole moment (field-independent basis, Debye-Ang):
   XX=            -96.0630   YY=            -94.8373   ZZ=            -96.8275
   XY=             -0.5273   XZ=             -0.6226   YZ=              0.3280

  Exact polarizability: 182.387   2.367 151.321   1.384  -1.769 136.231
 Approx polarizability: 220.587   0.072 212.934   1.988  -0.473 216.675

                      1                      2                      3
                      A                      A                      A
 Frequencies --     28.5618                38.8163                48.2958
 Red. masses --      3.1821                 3.1107                 3.0141
 Frc consts  --      0.0015                 0.0028                 0.0041
 IR Inten    --      0.0035                 0.0041                 0.0020

                      4                      5                      6
                      A                      A                      A
 Frequencies --     55.2477                71.9488                84.2061
 Red. masses --      2.6231                 2.4882                 2.3378
 Frc consts  --      0.0047                 0.0076                 0.0098
 IR Inten    --      0.0170                 0.0233                 0.0093

                      7                      8                      9
                      A                      A                      A
 Frequencies --     95.7525               107.5857               152.9706
 Red. masses --      2.7382                 2.3382                 2.2670
 Frc consts  --      0.0148                 0.0159                 0.0313
 IR Inten    --      0.0253                 0.0366                 0.0538

                     10                     11                     12
                      A                      A                      A
 Frequencies --    170.5035               184.6598               226.2283
 Red. masses --      2.8391                 2.6255                 3.2114
 Frc consts  --      0.0486                 0.0527                 0.0968
 IR Inten    --      0.0045                 0.0321                 0.0815

                     13                     14                     15
                      A                      A                      A
 Frequencies --    240.5667               262.9831               282.7273
 Red. masses --      1.2642                 2.6275                 2.5081
 Frc consts  --      0.0431                 0.1071                 0.1181
 IR Inten    --      0.0028                 0.0731                 0.0612

                     16                     17                     18
                      A                      A                      A
 Frequencies --    321.0068               368.6482               381.9976
 Red. masses --      2.7440                 2.4833                 2.4791
 Frc consts  --      0.1666                 0.1988                 0.2131
 IR Inten    --      0.0967                 0.1434                 0.6405

                     19                     20                     21
                      A                      A                      A
 Frequencies --    411.3364               449.4935               495.1279
 Red. masses --      2.6711                 2.4561                 2.5584
 Frc consts  --      0.2663                 0.2924                 0.3695
 IR Inten    --      0.1607                 0.7762                 0.4943

                     22                     23                     24
                      A                      A                      A
 Frequencies --    507.0021               582.3061               727.0406
 Red. masses --      2.2983                 2.2741                 2.0197
 Frc consts  --      0.3481                 0.4543                 0.6290
 IR Inten    --      0.6713                 0.8248                 3.1010

                     25                     26                     27
                      A                      A                      A
 Frequencies --    736.0011               764.7825               775.9370
 Red. masses --      1.1217                 1.1515                 1.3302
 Frc consts  --      0.3580                 0.3968                 0.4719
 IR Inten    --      2.9862                 1.7644                 2.3681

                     28                     29                     30
                      A                      A                      A
 Frequencies --    785.3156               806.1554               822.4228
 Red. masses --      1.0773                 1.6624                 1.2844
 Frc consts  --      0.3914                 0.6365                 0.5118
 IR Inten    --      0.5840                 2.1560                 1.8822

                     31                     32                     33
                      A                      A                      A
 Frequencies --    831.1847               839.2090               863.7632
 Red. masses --      1.4476                 1.7857                 1.8369
 Frc consts  --      0.5892                 0.7410                 0.8075
 IR Inten    --      8.3015                 0.8091                 1.0353

                     34                     35                     36
                      A                      A                      A
 Frequencies --    884.3488               894.8299               912.0208
 Red. masses --      1.5021                 2.1954                 3.1664
 Frc consts  --      0.6921                 1.0357                 1.5517
 IR Inten    --      1.4329                 2.1529                13.8021

                     37                     38                     39
                      A                      A                      A
 Frequencies --    918.7208               927.3645               937.5830
 Red. masses --      2.7650                 2.3405                 1.8313
 Frc consts  --      1.3751                 1.1859                 0.9485
 IR Inten    --      3.5445                 0.8603                 1.4366

                     40                     41                     42
                      A                      A                      A
 Frequencies --    946.4054               975.3197              1026.0361
 Red. masses --      2.1637                 2.1406                 2.2404
 Frc consts  --      1.1418                 1.1997                 1.3896
 IR Inten    --      0.2934                 9.7905                 2.4854

                     43                     44                     45
                      A                      A                      A
 Frequencies --   1028.3805              1045.1681              1054.0279
 Red. masses --      1.7244                 1.7573                 1.6299
 Frc consts  --      1.0745                 1.1310                 1.0669
 IR Inten    --      8.6541                 2.7390                 0.6351

                     46                     47                     48
                      A                      A                      A
 Frequencies --   1055.4396              1058.9438              1061.4314
 Red. masses --      1.4074                 1.9355                 1.9584
 Frc consts  --      0.9237                 1.2788                 1.3000
 IR Inten    --      5.5018                 2.8425                 0.4958

                     49                     50                     51
                      A                      A                      A
 Frequencies --   1065.6624              1077.4662              1077.9834
 Red. masses --      1.7302                 1.4051                 1.3905
 Frc consts  --      1.1577                 0.9611                 0.9520
 IR Inten    --      3.7178                 1.1295                 0.7456

                     52                     53                     54
                      A                      A                      A
 Frequencies --   1099.9330              1117.4061              1123.4050
 Red. masses --      1.4345                 1.9918                 1.1280
 Frc consts  --      1.0226                 1.4653                 0.8387
 IR Inten    --      0.1397                 1.1882                 0.6123

                     55                     56                     57
                      A                      A                      A
 Frequencies --   1133.7562              1140.6978              1145.9066
 Red. masses --      1.4546                 1.1192                 1.3508
 Frc consts  --      1.1016                 0.8581                 1.0450
 IR Inten    --      2.6578                 0.7803                 1.1146

                     58                     59                     60
                      A                      A                      A
 Frequencies --   1154.6012              1170.2069              1196.5058
 Red. masses --      1.7641                 1.6844                 1.9152
 Frc consts  --      1.3856                 1.3590                 1.6154
 IR Inten    --      1.2059                 7.3218                 0.5137

                     61                     62                     63
                      A                      A                      A
 Frequencies --   1198.0087              1198.3354              1225.8771
 Red. masses --      1.4112                 1.4180                 1.8719
 Frc consts  --      1.1934                 1.1997                 1.6574
 IR Inten    --      0.4589                 0.6504                 0.7562

                     64                     65                     66
                      A                      A                      A
 Frequencies --   1227.2533              1237.0039              1260.7400
 Red. masses --      1.7703                 1.6234                 1.4926
 Frc consts  --      1.5709                 1.4635                 1.3978
 IR Inten    --      1.8605                 0.5662                 1.8946

                     67                     68                     69
                      A                      A                      A
 Frequencies --   1272.5764              1282.7112              1292.9880
 Red. masses --      1.2852                 1.2791                 1.3220
 Frc consts  --      1.2262                 1.2400                 1.3022
 IR Inten    --      3.1152                 1.6695                 1.2706

                     70                     71                     72
                      A                      A                      A
 Frequencies --   1326.3048              1327.0932              1332.6799
 Red. masses --      1.2768                 1.1798                 1.1408
 Frc consts  --      1.3233                 1.2242                 1.1938
 IR Inten    --      1.4709                 1.7178                 1.0889

                     73                     74                     75
                      A                      A                      A
 Frequencies --   1348.3100              1374.7889              1381.4700
 Red. masses --      1.3085                 1.3614                 1.4802
 Frc consts  --      1.4015                 1.5160                 1.6643
 IR Inten    --      2.9801                 0.5054                 3.0584

                     76                     77                     78
                      A                      A                      A
 Frequencies --   1397.0770              1405.1429              1413.1983
 Red. masses --      1.4647                 1.5440                 1.2612
 Frc consts  --      1.6844                 1.7962                 1.4841
 IR Inten    --     19.6039                 1.7903                 1.0356

                     79                     80                     81
                      A                      A                      A
 Frequencies --   1416.4425              1438.4340              1467.9011
 Red. masses --      1.6451                 1.5041                 1.0896
 Frc consts  --      1.9447                 1.8336                 1.3833
 IR Inten    --      2.1306                 0.5692                 1.1537

                     82                     83                     84
                      A                      A                      A
 Frequencies --   1468.8390              1478.6487              1487.8068
 Red. masses --      1.0879                 1.0875                 1.0727
 Frc consts  --      1.3829                 1.4009                 1.3990
 IR Inten    --      0.9380                 0.6352                 2.3686

                     85                     86                     87
                      A                      A                      A
 Frequencies --   1496.1961              1497.7939              1499.1642
 Red. masses --      1.0889                 1.1306                 1.0679
 Frc consts  --      1.4361                 1.4943                 1.4140
 IR Inten    --      1.9750                 1.7168                 4.6495

                     88                     89                     90
                      A                      A                      A
 Frequencies --   1500.4115              1507.5854              1507.8733
 Red. masses --      1.4520                 1.3771                 1.3419
 Frc consts  --      1.9260                 1.8440                 1.7977
 IR Inten    --      6.1073                 4.5927                 3.6292

                     91                     92                     93
                      A                      A                      A
 Frequencies --   1512.3909              2977.3745              3001.9338
 Red. masses --      1.0936                 1.0815                 1.0596
 Frc consts  --      1.4739                 5.6487                 5.6261
 IR Inten    --      5.1213                13.8625                 6.1429

                     94                     95                     96
                      A                      A                      A
 Frequencies --   3008.2577              3013.3101              3023.9483
 Red. masses --      1.0634                 1.0651                 1.0573
 Frc consts  --      5.6697                 5.6978                 5.6962
 IR Inten    --     54.2616                 1.5915                21.2119

                     97                     98                     99
                      A                      A                      A
 Frequencies --   3027.7488              3035.8466              3048.1938
 Red. masses --      1.0437                 1.0944                 1.0921
 Frc consts  --      5.6371                 5.9430                 5.9784
 IR Inten    --     47.4486                 7.3779                 1.8483

                    100                    101                    102
                      A                      A                      A
 Frequencies --   3057.0904              3067.8602              3094.1150
 Red. masses --      1.1022                 1.0992                 1.1021
 Frc consts  --      6.0689                 6.0955                 6.2166
 IR Inten    --     50.6506                27.8155                64.1549

                    103                    104                    105
                      A                      A                      A
 Frequencies --   3099.3430              3114.9701              3122.9828
 Red. masses --      1.1006                 1.0853                 1.0827
 Frc consts  --      6.2293                 6.2046                 6.2214
 IR Inten    --     38.2437                11.9170                12.4644

                    106                    107                    108
                      A                      A                      A
 Frequencies --   3125.3006              3125.8557              3126.4156
 Red. masses --      1.0506                 1.0803                 1.0778
 Frc consts  --      6.0458                 6.2194                 6.2069
 IR Inten    --     22.4207                 7.2179                58.8545

                    109                    110                    111
                      A                      A                      A
 Frequencies --   3128.5412              3129.9278              3131.3764
 Red. masses --      1.0589                 1.0560                 1.0665
 Frc consts  --      6.1067                 6.0951                 6.1617
 IR Inten    --      4.9006                29.9343                 6.8481

                    112                    113                    114
                      A                      A                      A
 Frequencies --   3136.3973              3202.6783              3207.0611
 Red. masses --      1.0603                 1.1174                 1.1173
 Frc consts  --      6.1453                 6.7526                 6.7705
 IR Inten    --     11.3724                 0.3458                 0.3291

                    115                    116                    117
                      A                      A                      A
 Frequencies --   3211.2933              3218.0266              3222.0626
 Red. masses --      1.1159                 1.1151                 1.1151
 Frc consts  --      6.7800                 6.8038                 6.8208
 IR Inten    --     14.0285                27.4723                29.0846

 - Thermochemistry -
 -------------------
 Temperature   298.150 Kelvin.  Pressure   1.00000 Atm.
 Atom     1 has atomic number  6 and mass  12.00000

 Molecular mass:   206.20345 amu.
 Principal axes and moments of inertia in atomic units:
                           1         2         3
     Eigenvalues --  2358.563476881.436598354.89603
           X            0.99999   0.00470   0.00144
           Y           -0.00470   0.99999  -0.00005
           Z           -0.00144   0.00005   1.00000
 This molecule is an asymmetric top.
 Rotational symmetry number  1.
 Warning -- assumption of classical behavior for rotation
           may cause significant error
 Rotational temperatures (Kelvin)      0.03672     0.01259     0.01037
 Rotational constants (GHZ):           0.76519     0.26226     0.21601
 Zero-point vibrational energy     988045.4 (Joules/Mol)
                                  236.14852 (Kcal/Mol)
 Warning -- explicit consideration of  23 degrees of freedom as
           vibrations may cause significant error
 Vibrational temperatures:     41.09    55.85    69.49    79.49   103.52
          (Kelvin)            121.15   137.77   154.79   220.09   245.32
                              265.68   325.49   346.12   378.37   406.78
                              461.86   530.40   549.61   591.82   646.72
                              712.38   729.46   837.81  1046.05  1058.94
                             1100.35  1116.40  1129.89  1159.88  1183.28
                             1195.89  1207.43  1242.76  1272.38  1287.46
                             1312.19  1321.83  1334.27  1348.97  1361.67
                             1403.27  1476.24  1479.61  1503.76  1516.51
                             1518.54  1523.58  1527.16  1533.25  1550.23
                             1550.98  1582.56  1607.70  1616.33  1631.22
                             1641.21  1648.70  1661.21  1683.67  1721.51
                             1723.67  1724.14  1763.76  1765.74  1779.77
                             1813.92  1830.95  1845.54  1860.32  1908.26
                             1909.39  1917.43  1939.92  1978.01  1987.63
                             2010.08  2021.69  2033.28  2037.94  2069.59
                             2111.98  2113.33  2127.45  2140.62  2152.69
                             2154.99  2156.96  2158.76  2169.08  2169.49
                             2175.99  4283.78  4319.11  4328.21  4335.48
                             4350.79  4356.26  4367.91  4385.67  4398.47
                             4413.97  4451.74  4459.26  4481.75  4493.28
                             4496.61  4497.41  4498.21  4501.27  4503.27
                             4505.35  4512.58  4607.94  4614.25  4620.33
                             4630.02  4635.83

 Zero-point correction=                           0.376327 (Hartree/Particle)
 Thermal correction to Energy=                    0.393549
 Thermal correction to Enthalpy=                  0.394494
 Thermal correction to Gibbs Free Energy=         0.329479
 Sum of electronic and zero-point Energies=           -586.836478
 Sum of electronic and thermal Energies=              -586.819255
 Sum of electronic and thermal Enthalpies=            -586.818311
 Sum of electronic and thermal Free Energies=         -586.883326

                     E (Thermal)             CV                S
                      KCal/Mol        Cal/Mol-Kelvin    Cal/Mol-Kelvin
 Total                  246.956             64.927            136.836
 Electronic               0.000              0.000              0.000
 Translational            0.889              2.981             41.875
 Rotational               0.889              2.981             33.272
 Vibrational            245.179             58.965             61.688
 Vibration     1          0.593              1.984              5.927
 Vibration     2          0.594              1.981              5.319
 Vibration     3          0.595              1.978              4.886
 Vibration     4          0.596              1.975              4.620
 Vibration     5          0.598              1.967              4.099
 Vibration     6          0.601              1.960              3.790
 Vibration     7          0.603              1.952              3.539
 Vibration     8          0.606              1.943              3.312
 Vibration     9          0.619              1.899              2.635
 Vibration    10          0.626              1.879              2.430
 Vibration    11          0.631              1.861              2.281
 Vibration    12          0.650              1.801              1.909
 Vibration    13          0.658              1.778              1.799
 Vibration    14          0.670              1.741              1.642
 Vibration    15          0.682              1.706              1.517
 Vibration    16          0.706              1.633              1.305
 Vibration    17          0.741              1.537              1.085
 Vibration    18          0.751              1.509              1.031
 Vibration    19          0.775              1.446              0.922
 Vibration    20          0.808              1.362              0.797
 Vibration    21          0.851              1.261              0.670
 Vibration    22          0.862              1.234              0.641
 Vibration    23          0.939              1.070              0.481

 Optimization completed.
    -- Stationary point found.
 Normal termination of Gaussian 16 at Tue May 23 23:09:43 2023.
