 Gaussian 16, Revision A.03,
 Gaussian 16:  ES64L-G16RevA.03 25-Dec-2016

 -----------------------------
 # opt freq b3lyp/6-31g(2df,p)
 -----------------------------

 -------------------
 Title Card Required
 -------------------
 Symbolic Z-matrix:
 Charge =  0 Multiplicity = 1

 SCF Done:  E(RB3LYP) =  -662.739254306     A.U. after   12 cycles
 SCF Done:  E(RB3LYP) =  -662.746604259     A.U. after   10 cycles
 SCF Done:  E(RB3LYP) =  -662.747605091     A.U. after    9 cycles
 SCF Done:  E(RB3LYP) =  -662.747754466     A.U. after    9 cycles
 SCF Done:  E(RB3LYP) =  -662.747776546     A.U. after    9 cycles
 SCF Done:  E(RB3LYP) =  -662.747780165     A.U. after    8 cycles
 SCF Done:  E(RB3LYP) =  -662.747781966     A.U. after    8 cycles
 SCF Done:  E(RB3LYP) =  -662.747782130     A.U. after    6 cycles
 SCF Done:  E(RB3LYP) =  -662.747782189     A.U. after    6 cycles
 Optimization completed.
    -- Stationary point found.
 Normal termination of Gaussian 16 at Tue May 23 18:09:54 2023.

 ----------------------------------------------------------------------
 #N Geom=AllCheck Guess=TCheck SCRF=Check GenChk RB3LYP/6-31G(2df,p) Fr
 eq
 ----------------------------------------------------------------------

 Structure from the checkpoint file:  "CCCCCqCrCCCqOrCCCOC.chk"
 -------------------
 Title Card Required
 -------------------
 Charge =  0 Multiplicity = 1

                         Standard orientation:
 ---------------------------------------------------------------------
 Center     Atomic      Atomic             Coordinates (Angstroms)
 Number     Number       Type             X           Y           Z
 ---------------------------------------------------------------------
      1          6           0        7.507087   -0.455291    0.468438
      2          6           0        6.167335   -0.804347   -0.185277
      3          6           0        5.016507    0.098417    0.274809
      4          6           0        3.676806   -0.254308   -0.382569
      5          6           0        2.460450    0.549765    0.117224
      6          6           0        2.582145    2.043651   -0.219544
      7          6           0        1.162651   -0.063456   -0.442016
      8          6           0       -0.136249    0.521518    0.124949
      9          6           0       -1.386579   -0.257844   -0.306311
     10          8           0       -1.312347   -1.628367    0.089288
     11          6           0       -2.681350    0.397940    0.192946
     12          6           0       -3.946922   -0.319175   -0.285082
     13          6           0       -5.219990    0.300610    0.273151
     14          8           0       -6.329382   -0.417398   -0.221779
     15          6           0       -7.557891    0.085178    0.240217
     16          1           0        8.307148   -1.116775    0.121255
     17          1           0        7.450853   -0.545413    1.559151
     18          1           0        7.803728    0.574345    0.238752
     19          1           0        5.914960   -1.850897    0.031421
     20          1           0        6.263978   -0.737898   -1.277194
     21          1           0        5.280666    1.142468    0.064067
     22          1           0        4.915539    0.025763    1.367298
     23          1           0        3.477960   -1.321790   -0.216377
     24          1           0        3.763089   -0.131851   -1.472267
     25          1           0        2.427478    0.451881    1.213774
     26          1           0        2.612705    2.194505   -1.305937
     27          1           0        3.491155    2.481677    0.202068
     28          1           0        1.736948    2.617573    0.171532
     29          1           0        1.161114   -1.141067   -0.243989
     30          1           0        1.157627    0.043822   -1.536659
     31          1           0       -0.257757    1.567750   -0.179439
     32          1           0       -0.091565    0.527240    1.225676
     33          1           0       -1.415280   -0.300561   -1.403579
     34          1           0       -1.275265   -1.648880    1.052681
     35          1           0       -2.694919    1.445951   -0.134459
     36          1           0       -2.658079    0.424161    1.293613
     37          1           0       -3.902884   -1.373656    0.003418
     38          1           0       -3.998260   -0.296714   -1.380512
     39          1           0       -5.293047    1.364423   -0.016986
     40          1           0       -5.209005    0.274165    1.377961
     41          1           0       -8.349798   -0.530309   -0.194050
     42          1           0       -7.714829    1.132463   -0.065744
     43          1           0       -7.634425    0.037800    1.338839
 ---------------------------------------------------------------------

 SCF Done:  E(RB3LYP) =  -662.747782189     A.U. after    1 cycles

 The electronic state is 1-A.
 Alpha  occ. eigenvalues --  -19.13353 -19.13266 -10.22741 -10.22173 -10.21979
 Alpha  occ. eigenvalues --  -10.18078 -10.18069 -10.17691 -10.17457 -10.17306
 Alpha  occ. eigenvalues --  -10.17208 -10.17055 -10.16993 -10.16890 -10.16783
 Alpha  occ. eigenvalues --   -1.02733  -1.01379  -0.81457  -0.79421  -0.77890
 Alpha  occ. eigenvalues --   -0.75034  -0.71359  -0.69784  -0.66693  -0.64217
 Alpha  occ. eigenvalues --   -0.61490  -0.59205  -0.58558  -0.56973  -0.55117
 Alpha  occ. eigenvalues --   -0.48729  -0.48338  -0.47257  -0.46599  -0.46171
 Alpha  occ. eigenvalues --   -0.45245  -0.44814  -0.43392  -0.42874  -0.41533
 Alpha  occ. eigenvalues --   -0.40809  -0.40338  -0.39468  -0.38313  -0.37441
 Alpha  occ. eigenvalues --   -0.36996  -0.35859  -0.35389  -0.34781  -0.34013
 Alpha  occ. eigenvalues --   -0.33441  -0.33133  -0.32799  -0.31886  -0.31389
 Alpha  occ. eigenvalues --   -0.31291  -0.30984  -0.30364  -0.29669  -0.26258
 Alpha  occ. eigenvalues --   -0.24975
 Alpha virt. eigenvalues --    0.06968   0.08938   0.09427   0.10129   0.10360
 Alpha virt. eigenvalues --    0.11801   0.11926   0.12424   0.13135   0.13963
 Alpha virt. eigenvalues --    0.14197   0.14509   0.15143   0.15487   0.16116

 Mulliken charges:
               1
     1  C   -0.380159
     2  C   -0.160653
     3  C   -0.173333
     4  C   -0.178013
     5  C    0.019508
     6  C   -0.389928
     7  C   -0.182210
     8  C   -0.221711
     9  C    0.119342
    10  O   -0.426015
    11  C   -0.208933
    12  C   -0.196105
    13  C   -0.051009
    14  O   -0.229028
    15  C   -0.226030
    16  H    0.109758
    17  H    0.111914
    18  H    0.112059
    19  H    0.093358
    20  H    0.093553
    21  H    0.094196
    22  H    0.087851
    23  H    0.088480
    24  H    0.088113
    25  H    0.061996
    26  H    0.108720
    27  H    0.113682
    28  H    0.111355
    29  H    0.104537
    30  H    0.087404
    31  H    0.096808
    32  H    0.078954
    33  H    0.086215
    34  H    0.274708
    35  H    0.095199
    36  H    0.082235
    37  H    0.117773
    38  H    0.103629
    39  H    0.078682
    40  H    0.077988
    41  H    0.125141
    42  H    0.100101
    43  H    0.099867
 Sum of Mulliken charges =  -0.00000

 Dipole moment (field-independent basis, Debye):
    X=              0.0739    Y=              1.7018    Z=              1.4805  Tot=              2.2569
 Quadrupole moment (field-independent basis, Debye-Ang):
   XX=            -96.5889   YY=           -100.7750   ZZ=            -95.0176
   XY=             -6.4318   XZ=             -5.2667   YZ=             -3.1381

  Exact polarizability: 204.397  -2.176 134.374   0.318  -0.417 128.790
 Approx polarizability: 209.612   0.019 204.145   0.121  -1.351 206.163

                      1                      2                      3
                      A                      A                      A
 Frequencies --     19.4450                28.9409                38.1188
 Red. masses --      3.9925                 3.1775                 2.1995
 Frc consts  --      0.0009                 0.0016                 0.0019
 IR Inten    --      0.0898                 0.8602                 1.0040

                      4                      5                      6
                      A                      A                      A
 Frequencies --     48.0385                57.5525                73.9829
 Red. masses --      2.9881                 2.0749                 2.3732
 Frc consts  --      0.0041                 0.0040                 0.0077
 IR Inten    --      0.2024                 0.5733                 0.0720

                      7                      8                      9
                      A                      A                      A
 Frequencies --     87.9273                90.5106               117.7378
 Red. masses --      2.8154                 3.1042                 2.5206
 Frc consts  --      0.0128                 0.0150                 0.0206
 IR Inten    --      0.0606                 0.0658                 0.8561

                     10                     11                     12
                      A                      A                      A
 Frequencies --    135.2020               137.6857               154.6084
 Red. masses --      1.9411                 2.2744                 1.9816
 Frc consts  --      0.0209                 0.0254                 0.0279
 IR Inten    --      0.0366                 0.9885                 0.4309

                     13                     14                     15
                      A                      A                      A
 Frequencies --    157.8209               174.2028               233.6118
 Red. masses --      2.7332                 4.1057                 2.6895
 Frc consts  --      0.0401                 0.0734                 0.0865
 IR Inten    --      0.4754                 0.0097                 2.4767

                     16                     17                     18
                      A                      A                      A
 Frequencies --    237.3155               238.2472               248.2996
 Red. masses --      1.2531                 1.2391                 1.1776
 Frc consts  --      0.0416                 0.0414                 0.0428
 IR Inten    --      2.4798                 0.3809                 0.0289

                     19                     20                     21
                      A                      A                      A
 Frequencies --    277.3345               303.4864               305.2886
 Red. masses --      2.7830                 2.2128                 1.3380
 Frc consts  --      0.1261                 0.1201                 0.0735
 IR Inten    --      1.5004                17.3930               123.2778

                     22                     23                     24
                      A                      A                      A
 Frequencies --    337.8537               399.9665               412.2906
 Red. masses --      3.0162                 2.6682                 2.2370
 Frc consts  --      0.2028                 0.2515                 0.2240
 IR Inten    --      2.8552                 2.1666                 1.7569

                     25                     26                     27
                      A                      A                      A
 Frequencies --    452.4749               466.8826               488.0390
 Red. masses --      2.7028                 2.4199                 2.7224
 Frc consts  --      0.3260                 0.3108                 0.3820
 IR Inten    --     10.7101                 3.7651                 0.4037

                     28                     29                     30
                      A                      A                      A
 Frequencies --    533.7684               579.3196               734.3700
 Red. masses --      2.7047                 2.8650                 1.0830
 Frc consts  --      0.4540                 0.5665                 0.3441
 IR Inten    --      3.1616                12.5973                 2.5555

                     31                     32                     33
                      A                      A                      A
 Frequencies --    756.0806               767.9385               786.4988
 Red. masses --      1.1653                 1.2566                 1.2741
 Frc consts  --      0.3925                 0.4366                 0.4643
 IR Inten    --      0.0364                 1.4893                 0.0950

                     34                     35                     36
                      A                      A                      A
 Frequencies --    846.2152               855.5395               899.4372
 Red. masses --      1.7399                 2.0046                 1.9006
 Frc consts  --      0.7341                 0.8645                 0.9059
 IR Inten    --      1.0969                 0.8659                10.7372

                     37                     38                     39
                      A                      A                      A
 Frequencies --    904.7373               915.1737               942.3868
 Red. masses --      1.7663                 1.2459                 2.4467
 Frc consts  --      0.8518                 0.6148                 1.2802
 IR Inten    --      1.7023                 2.1406                 6.6601

                     40                     41                     42
                      A                      A                      A
 Frequencies --    957.2995               983.6856              1009.1836
 Red. masses --      1.6349                 3.0999                 2.1685
 Frc consts  --      0.8827                 1.7673                 1.3012
 IR Inten    --      6.5313                23.9749                 6.4843

                     43                     44                     45
                      A                      A                      A
 Frequencies --   1025.5697              1030.0891              1048.4633
 Red. masses --      1.9568                 2.1880                 2.0556
 Frc consts  --      1.2126                 1.3679                 1.3314
 IR Inten    --      2.3525                 2.9124                 3.6489

                     46                     47                     48
                      A                      A                      A
 Frequencies --   1059.1304              1065.3881              1073.8853
 Red. masses --      2.1687                 2.3577                 2.4376
 Frc consts  --      1.4334                 1.5767                 1.6562
 IR Inten    --     11.2286                 2.4527                 7.8322

                     49                     50                     51
                      A                      A                      A
 Frequencies --   1081.3112              1106.0370              1119.1679
 Red. masses --      2.6079                 1.7442                 1.7542
 Frc consts  --      1.7965                 1.2572                 1.2945
 IR Inten    --      1.5331                 3.5309                40.7663

                     52                     53                     54
                      A                      A                      A
 Frequencies --   1128.9654              1154.1596              1167.1733
 Red. masses --      1.8017                 2.9073                 5.8260
 Frc consts  --      1.3530                 2.2818                 4.6762
 IR Inten    --      4.9252                25.3592               168.9422

                     55                     56                     57
                      A                      A                      A
 Frequencies --   1179.0350              1180.2488              1211.8942
 Red. masses --      1.2487                 1.7717                 1.7361
 Frc consts  --      1.0227                 1.4541                 1.5023
 IR Inten    --      1.4705                17.3812                 7.3457

                     58                     59                     60
                      A                      A                      A
 Frequencies --   1217.3881              1224.0667              1248.5299
 Red. masses --      1.4400                 1.5237                 1.4116
 Frc consts  --      1.2574                 1.3451                 1.2965
 IR Inten    --     17.1627                13.4336                 0.9534

                     61                     62                     63
                      A                      A                      A
 Frequencies --   1258.2146              1272.2918              1283.6902
 Red. masses --      1.3560                 1.3008                 1.2924
 Frc consts  --      1.2648                 1.2406                 1.2548
 IR Inten    --     11.8329                 3.4326                 3.9616

                     64                     65                     66
                      A                      A                      A
 Frequencies --   1294.1723              1306.7450              1310.1654
 Red. masses --      1.2716                 1.1983                 1.0910
 Frc consts  --      1.2549                 1.2056                 1.1034
 IR Inten    --      0.9055                 2.6532                 1.8745

                     67                     68                     69
                      A                      A                      A
 Frequencies --   1318.6165              1329.7863              1333.5439
 Red. masses --      1.2274                 1.1859                 1.1223
 Frc consts  --      1.2574                 1.2355                 1.1759
 IR Inten    --      1.2217                 0.6915                 1.2422

                     70                     71                     72
                      A                      A                      A
 Frequencies --   1358.7566              1365.8048              1379.8992
 Red. masses --      1.3377                 1.3075                 1.3729
 Frc consts  --      1.4551                 1.4371                 1.5402
 IR Inten    --      0.6495                 0.8524                 4.3090

                     73                     74                     75
                      A                      A                      A
 Frequencies --   1382.0541              1393.6316              1394.4162
 Red. masses --      1.3867                 1.5535                 1.6121
 Frc consts  --      1.5606                 1.7777                 1.8468
 IR Inten    --      1.7968                 1.6061                11.0807

                     76                     77                     78
                      A                      A                      A
 Frequencies --   1401.1126              1411.7660              1414.7717
 Red. masses --      1.5000                 1.2438                 1.2842
 Frc consts  --      1.7350                 1.4605                 1.5144
 IR Inten    --      0.1639                 3.5452                10.5959

                     79                     80                     81
                      A                      A                      A
 Frequencies --   1420.1508              1427.8950              1471.7736
 Red. masses --      1.2026                 1.4068                 1.0825
 Frc consts  --      1.4290                 1.6900                 1.3816
 IR Inten    --     30.0726                40.2711                 0.1256

                     82                     83                     84
                      A                      A                      A
 Frequencies --   1478.2690              1481.7728              1484.4743
 Red. masses --      1.0823                 1.1654                 1.0832
 Frc consts  --      1.3935                 1.5077                 1.4063
 IR Inten    --      0.5565                 0.4091                 0.9061

                     85                     86                     87
                      A                      A                      A
 Frequencies --   1485.1780              1486.0543              1496.4933
 Red. masses --      1.0469                 1.0704                 1.0742
 Frc consts  --      1.3606                 1.3927                 1.4174
 IR Inten    --      4.8318                 0.9056                 0.5182

                     88                     89                     90
                      A                      A                      A
 Frequencies --   1499.4503              1499.5758              1499.7581
 Red. masses --      1.0678                 1.0618                 1.0569
 Frc consts  --      1.4145                 1.4068                 1.4006
 IR Inten    --      0.7861                 4.3468                 3.8376

                     91                     92                     93
                      A                      A                      A
 Frequencies --   1500.7650              1508.1457              1508.9916
 Red. masses --      1.0784                 1.0723                 1.0548
 Frc consts  --      1.4310                 1.4370                 1.4152
 IR Inten    --      0.9365                 6.9111                 3.8595

                     94                     95                     96
                      A                      A                      A
 Frequencies --   1513.5001              1532.9002              2932.3619
 Red. masses --      1.0838                 1.0955                 1.0527
 Frc consts  --      1.4627                 1.5166                 5.3334
 IR Inten    --      6.4402                 1.0874                35.8984

                     97                     98                     99
                      A                      A                      A
 Frequencies --   2956.2432              2963.9809              2977.1971
 Red. masses --      1.1045                 1.0384                 1.0800
 Frc consts  --      5.6869                 5.3750                 5.6403
 IR Inten    --     59.6756                78.9677                 6.6159

                    100                    101                    102
                      A                      A                      A
 Frequencies --   2984.3264              2990.3572              2996.5760
 Red. masses --      1.0674                 1.0665                 1.0603
 Frc consts  --      5.6013                 5.6187                 5.6097
 IR Inten    --      2.6714                27.5319                 1.3120

                    103                    104                    105
                      A                      A                      A
 Frequencies --   3003.7882              3003.8428              3008.1870
 Red. masses --      1.0618                 1.1028                 1.0661
 Frc consts  --      5.6446                 5.8626                 5.6842
 IR Inten    --      1.6389                61.7494                25.6581

                    106                    107                    108
                      A                      A                      A
 Frequencies --   3015.5786              3023.8746              3026.6519
 Red. masses --      1.0619                 1.0807                 1.0632
 Frc consts  --      5.6894                 5.8220                 5.7382
 IR Inten    --     66.9197                38.3441                19.1831

                    109                    110                    111
                      A                      A                      A
 Frequencies --   3027.6255              3028.6169              3036.3507
 Red. masses --      1.0419                 1.0647                 1.0828
 Frc consts  --      5.6270                 5.7538                 5.8819
 IR Inten    --     33.3280                15.1811                10.2161

                    112                    113                    114
                      A                      A                      A
 Frequencies --   3037.5200              3042.7180              3053.8745
 Red. masses --      1.1004                 1.0740                 1.0909
 Frc consts  --      5.9819                 5.8583                 5.9946
 IR Inten    --      3.1246                31.1761                23.5043

                    115                    116                    117
                      A                      A                      A
 Frequencies --   3060.8135              3074.0026              3093.5115
 Red. masses --      1.1032                 1.0967                 1.1020
 Frc consts  --      6.0895                 6.1061                 6.2136
 IR Inten    --     39.8435                68.7667                62.3121

                    118                    119                    120
                      A                      A                      A
 Frequencies --   3095.5800              3096.3564              3099.0371
 Red. masses --      1.0959                 1.0995                 1.1009
 Frc consts  --      6.1874                 6.2105                 6.2295
 IR Inten    --     31.3079                33.8853                42.8594

                    121                    122                    123
                      A                      A                      A
 Frequencies --   3109.2527              3109.9301              3788.1735
 Red. masses --      1.1001                 1.0952                 1.0657
 Frc consts  --      6.2662                 6.2410                 9.0104
 IR Inten    --     46.5976                30.7007                10.1230

 - Thermochemistry -
 -------------------
 Temperature   298.150 Kelvin.  Pressure   1.00000 Atm.
 Atom     1 has atomic number  6 and mass  12.00000

 Molecular mass:   216.20893 amu.
 Principal axes and moments of inertia in atomic units:
                           1         2         3
     Eigenvalues --   715.04651********************
           X            0.99999  -0.00324  -0.00139
           Y            0.00324   0.99999  -0.00185
           Z            0.00139   0.00185   1.00000
 This molecule is an asymmetric top.
 Rotational symmetry number  1.
 Warning -- assumption of classical behavior for rotation
           may cause significant error
 Rotational temperatures (Kelvin)      0.12113     0.00545     0.00531
 Rotational constants (GHZ):           2.52395     0.11363     0.11064
 Zero-point vibrational energy    1038693.1 (Joules/Mol)
                                  248.25360 (Kcal/Mol)
 Warning -- explicit consideration of  29 degrees of freedom as
           vibrations may cause significant error
 Vibrational temperatures:     27.98    41.64    54.84    69.12    82.81
          (Kelvin)            106.44   126.51   130.22   169.40   194.53
                              198.10   222.45   227.07   250.64   336.12
                              341.44   342.78   357.25   399.02   436.65
                              439.24   486.10   575.46   593.19   651.01
                              671.74   702.18   767.97   833.51  1056.59
                             1087.83  1104.89  1131.60  1217.51  1230.93
                             1294.09  1301.72  1316.73  1355.88  1377.34
                             1415.30  1451.99  1475.57  1482.07  1508.50
                             1523.85  1532.86  1545.08  1555.77  1591.34
                             1610.23  1624.33  1660.58  1679.30  1696.37
                             1698.11  1743.65  1751.55  1761.16  1796.36
                             1810.29  1830.54  1846.94  1862.03  1880.11
                             1885.04  1897.20  1913.27  1918.67  1954.95
                             1965.09  1985.37  1988.47  2005.13  2006.25
                             2015.89  2031.22  2035.54  2043.28  2054.42
                             2117.55  2126.90  2131.94  2135.83  2136.84
                             2138.10  2153.12  2157.37  2157.56  2157.82
                             2159.27  2169.89  2171.10  2177.59  2205.50
                             4219.01  4253.37  4264.51  4283.52  4293.78
                             4302.46  4311.40  4321.78  4321.86  4328.11
                             4338.75  4350.68  4354.68  4356.08  4357.50
                             4368.63  4370.31  4377.79  4393.84  4403.83
                             4422.80  4450.87  4453.85  4454.97  4458.82
                             4473.52  4474.50  5450.34

 Zero-point correction=                           0.395617 (Hartree/Particle)
 Thermal correction to Energy=                    0.415821
 Thermal correction to Enthalpy=                  0.416765
 Thermal correction to Gibbs Free Energy=         0.344278
 Sum of electronic and zero-point Energies=           -662.352165
 Sum of electronic and thermal Energies=              -662.331962
 Sum of electronic and thermal Enthalpies=            -662.331017
 Sum of electronic and thermal Free Energies=         -662.403504

                     E (Thermal)             CV                S
                      KCal/Mol        Cal/Mol-Kelvin    Cal/Mol-Kelvin
 Total                  260.931             71.548            152.562
 Electronic               0.000              0.000              0.000
 Translational            0.889              2.981             42.016
 Rotational               0.889              2.981             33.582
 Vibrational            259.154             65.587             76.964
 Vibration     1          0.593              1.986              6.690
 Vibration     2          0.593              1.984              5.901
 Vibration     3          0.594              1.982              5.355
 Vibration     4          0.595              1.978              4.897
 Vibration     5          0.596              1.974              4.539
 Vibration     6          0.599              1.966              4.044
 Vibration     7          0.601              1.958              3.706
 Vibration     8          0.602              1.956              3.649
 Vibration     9          0.608              1.935              3.137
 Vibration    10          0.613              1.918              2.871
 Vibration    11          0.614              1.916              2.836
 Vibration    12          0.620              1.898              2.615
 Vibration    13          0.621              1.894              2.576
 Vibration    14          0.627              1.874              2.390
 Vibration    15          0.654              1.789              1.851
 Vibration    16          0.656              1.784              1.823
 Vibration    17          0.656              1.782              1.816
 Vibration    18          0.662              1.766              1.743
 Vibration    19          0.678              1.715              1.550
 Vibration    20          0.695              1.667              1.398
 Vibration    21          0.696              1.664              1.388
 Vibration    22          0.718              1.600              1.222
 Vibration    23          0.766              1.470              0.963
 Vibration    24          0.776              1.444              0.919
 Vibration    25          0.811              1.355              0.788
 Vibration    26          0.824              1.324              0.746
 Vibration    27          0.844              1.277              0.689
 Vibration    28          0.889              1.175              0.579
 Vibration    29          0.936              1.076              0.487

                           ! Non-Optimized Parameters !
 Normal termination of Gaussian 16 at Tue May 23 21:05:35 2023.
