 Gaussian 16, Revision A.03,
 Gaussian 16:  ES64L-G16RevA.03 25-Dec-2016

 -----------------------------
 # opt freq b3lyp/6-31g(2df,p)
 -----------------------------

 -------------------
 Title Card Required
 -------------------
 Symbolic Z-matrix:
 Charge =  0 Multiplicity = 1

 SCF Done:  E(RB3LYP) =  -561.774688548     A.U. after   14 cycles
 SCF Done:  E(RB3LYP) =  -561.809410458     A.U. after   14 cycles
 SCF Done:  E(RB3LYP) =  -561.787290173     A.U. after   14 cycles
 SCF Done:  E(RB3LYP) =  -561.822860558     A.U. after   12 cycles
 SCF Done:  E(RB3LYP) =  -561.825429503     A.U. after   12 cycles
 SCF Done:  E(RB3LYP) =  -561.825779335     A.U. after   11 cycles
 SCF Done:  E(RB3LYP) =  -561.825822595     A.U. after   10 cycles
 SCF Done:  E(RB3LYP) =  -561.825846989     A.U. after   10 cycles
 SCF Done:  E(RB3LYP) =  -561.825851097     A.U. after    8 cycles
 SCF Done:  E(RB3LYP) =  -561.825851921     A.U. after    8 cycles
 SCF Done:  E(RB3LYP) =  -561.825852206     A.U. after    7 cycles
 SCF Done:  E(RB3LYP) =  -561.825852488     A.U. after    8 cycles
 SCF Done:  E(RB3LYP) =  -561.825852667     A.U. after    8 cycles
 SCF Done:  E(RB3LYP) =  -561.825852770     A.U. after    8 cycles
 SCF Done:  E(RB3LYP) =  -561.825852788     A.U. after    7 cycles
 Optimization completed.
    -- Stationary point found.
 Normal termination of Gaussian 16 at Tue May 23 10:13:23 2023.

 ----------------------------------------------------------------------
 #N Geom=AllCheck Guess=TCheck SCRF=Check GenChk RB3LYP/6-31G(2df,p) Fr
 eq
 ----------------------------------------------------------------------

 Structure from the checkpoint file:  "CCCCCCqCrOCqCtNrCC.chk"
 -------------------
 Title Card Required
 -------------------
 Charge =  0 Multiplicity = 1

                         Standard orientation:
 ---------------------------------------------------------------------
 Center     Atomic      Atomic             Coordinates (Angstroms)
 Number     Number       Type             X           Y           Z
 ---------------------------------------------------------------------
      1          6           0        6.108872   -0.682708   -0.167753
      2          6           0        4.877210    0.006972    0.425063
      3          6           0        3.570919   -0.389965   -0.270745
      4          6           0        2.332709    0.295376    0.318763
      5          6           0        1.036727   -0.108447   -0.393117
      6          6           0       -0.239961    0.459649    0.232721
      7          6           0       -0.341051    1.982133    0.141285
      8          8           0       -1.319366   -0.190705   -0.458774
      9          6           0       -2.560971   -0.252952    0.199920
     10          6           0       -3.396909    0.940859   -0.080147
     11          7           0       -4.065531    1.856460   -0.305919
     12          6           0       -3.281927   -1.531127   -0.261358
     13          6           0       -4.634832   -1.755928    0.415575
     14          1           0        7.024872   -0.379688    0.348938
     15          1           0        6.228195   -0.436383   -1.228750
     16          1           0        6.028060   -1.772738   -0.090241
     17          1           0        5.002384    1.096297    0.365029
     18          1           0        4.803528   -0.229855    1.494909
     19          1           0        3.445032   -1.480144   -0.213252
     20          1           0        3.642544   -0.151412   -1.341079
     21          1           0        2.469532    1.382768    0.267301
     22          1           0        2.257186    0.048000    1.387258
     23          1           0        0.943478   -1.200804   -0.392943
     24          1           0        1.074448    0.198876   -1.446090
     25          1           0       -0.280743    0.155935    1.292620
     26          1           0       -0.315358    2.300616   -0.905576
     27          1           0        0.492938    2.453005    0.669569
     28          1           0       -1.266818    2.354742    0.585746
     29          1           0       -2.417330   -0.295668    1.291838
     30          1           0       -2.598266   -2.359416   -0.050490
     31          1           0       -3.395384   -1.479414   -1.348982
     32          1           0       -4.530712   -1.831028    1.503634
     33          1           0       -5.087133   -2.685932    0.060803
     34          1           0       -5.331520   -0.940499    0.200145
 ---------------------------------------------------------------------

 SCF Done:  E(RB3LYP) =  -561.825852788     A.U. after    1 cycles

 The electronic state is 1-A.
 Alpha  occ. eigenvalues --  -19.15609 -14.32807 -10.27920 -10.24283 -10.21564
 Alpha  occ. eigenvalues --  -10.20058 -10.18623 -10.18439 -10.18248 -10.18077
 Alpha  occ. eigenvalues --  -10.18039 -10.17680 -10.17366  -1.05086  -0.89950
 Alpha  occ. eigenvalues --   -0.82371  -0.80231  -0.77460  -0.73485  -0.70895
 Alpha  occ. eigenvalues --   -0.67902  -0.62494  -0.62221  -0.58074  -0.57819
 Alpha  occ. eigenvalues --   -0.53870  -0.50882  -0.48114  -0.47042  -0.45440
 Alpha  occ. eigenvalues --   -0.43867  -0.43104  -0.41830  -0.41435  -0.40562
 Alpha  occ. eigenvalues --   -0.38994  -0.38322  -0.37273  -0.36920  -0.36490
 Alpha  occ. eigenvalues --   -0.36323  -0.35426  -0.34953  -0.33922  -0.33411
 Alpha  occ. eigenvalues --   -0.33067  -0.32775  -0.32407  -0.31398  -0.31090
 Alpha  occ. eigenvalues --   -0.27500
 Alpha virt. eigenvalues --    0.02260   0.03453   0.07966   0.08938   0.10237
 Alpha virt. eigenvalues --    0.10402   0.10985   0.12179   0.13233   0.13893
 Alpha virt. eigenvalues --    0.14244   0.14806   0.14984   0.15709   0.16331

 Mulliken charges:
               1
     1  C   -0.379434
     2  C   -0.166285
     3  C   -0.158616
     4  C   -0.192007
     5  C   -0.195694
     6  C    0.113837
     7  C   -0.404791
     8  O   -0.256631
     9  C   -0.014699
    10  C    0.281661
    11  N   -0.341052
    12  C   -0.190019
    13  C   -0.401358
    14  H    0.111578
    15  H    0.114201
    16  H    0.113402
    17  H    0.094790
    18  H    0.093584
    19  H    0.092441
    20  H    0.094507
    21  H    0.100406
    22  H    0.091995
    23  H    0.099461
    24  H    0.105246
    25  H    0.068084
    26  H    0.128831
    27  H    0.120305
    28  H    0.136269
    29  H    0.110390
    30  H    0.112474
    31  H    0.127042
    32  H    0.118795
    33  H    0.124930
    34  H    0.146357
 Sum of Mulliken charges =  -0.00000

 Dipole moment (field-independent basis, Debye):
    X=              2.3698    Y=             -2.5029    Z=              1.4826  Tot=              3.7521
 Quadrupole moment (field-independent basis, Debye-Ang):
   XX=            -92.1512   YY=            -85.9244   ZZ=            -81.6138
   XY=             13.7257   XZ=             -3.3319   YZ=              0.4777

  Exact polarizability: 162.163  -3.009 122.876   0.619  -0.950 103.571
 Approx polarizability: 183.174 -11.497 183.324   3.180  -4.093 164.470

                      1                      2                      3
                      A                      A                      A
 Frequencies --     13.5396                36.1715                48.4045
 Red. masses --      3.7594                 2.8301                 2.0645
 Frc consts  --      0.0004                 0.0022                 0.0028
 IR Inten    --      1.8389                 0.7840                 0.1865

                      4                      5                      6
                      A                      A                      A
 Frequencies --     63.2421                77.6680               101.8811
 Red. masses --      3.1390                 2.8271                 2.8746
 Frc consts  --      0.0074                 0.0100                 0.0176
 IR Inten    --      0.1151                 0.5757                 2.4461

                      7                      8                      9
                      A                      A                      A
 Frequencies --    126.5217               136.2332               144.3248
 Red. masses --      1.8648                 2.1744                 3.7610
 Frc consts  --      0.0176                 0.0238                 0.0462
 IR Inten    --      0.0607                 0.2055                 2.1803

                     10                     11                     12
                      A                      A                      A
 Frequencies --    165.3555               212.5991               233.9085
 Red. masses --      2.1959                 1.8805                 2.5697
 Frc consts  --      0.0354                 0.0501                 0.0828
 IR Inten    --      1.9839                 1.0027                 0.7635

                     13                     14                     15
                      A                      A                      A
 Frequencies --    241.6875               248.1743               257.4804
 Red. masses --      1.6366                 1.1762                 1.6887
 Frc consts  --      0.0563                 0.0427                 0.0660
 IR Inten    --      1.0806                 0.1539                 0.4037

                     16                     17                     18
                      A                      A                      A
 Frequencies --    269.9726               314.8554               364.4865
 Red. masses --      2.9375                 3.2102                 3.2243
 Frc consts  --      0.1261                 0.1875                 0.2524
 IR Inten    --      3.9861                 1.5174                 1.4692

                     19                     20                     21
                      A                      A                      A
 Frequencies --    396.0585               443.3002               500.5787
 Red. masses --      3.0071                 3.2122                 2.8016
 Frc consts  --      0.2779                 0.3719                 0.4136
 IR Inten    --      0.6046                 2.8105                 0.2772

                     22                     23                     24
                      A                      A                      A
 Frequencies --    517.4923               574.0600               632.7555
 Red. masses --      3.5372                 3.6513                 5.8759
 Frc consts  --      0.5581                 0.7089                 1.3861
 IR Inten    --      3.3615                 0.6662                 1.4504

                     25                     26                     27
                      A                      A                      A
 Frequencies --    733.7813               759.1944               765.8511
 Red. masses --      1.0686                 1.1436                 1.5227
 Frc consts  --      0.3390                 0.3883                 0.5262
 IR Inten    --      3.5849                 0.0867                 0.4384

                     28                     29                     30
                      A                      A                      A
 Frequencies --    830.8904               857.8394               871.2991
 Red. masses --      1.6447                 1.5816                 1.7588
 Frc consts  --      0.6690                 0.6857                 0.7867
 IR Inten    --      1.4964                 0.5027                10.6127

                     31                     32                     33
                      A                      A                      A
 Frequencies --    899.4020               931.5614               935.6880
 Red. masses --      1.9794                 1.9399                 2.0190
 Frc consts  --      0.9434                 0.9918                 1.0415
 IR Inten    --      0.4811                20.0126                 6.5678

                     34                     35                     36
                      A                      A                      A
 Frequencies --    949.7786              1005.6113              1029.5416
 Red. masses --      1.3045                 3.5048                 1.2540
 Frc consts  --      0.6933                 2.0882                 0.7831
 IR Inten    --      2.2593                 1.0888                 0.2869

                     37                     38                     39
                      A                      A                      A
 Frequencies --   1047.8710              1052.2389              1061.8626
 Red. masses --      2.5246                 2.6159                 2.3138
 Frc consts  --      1.6333                 1.7065                 1.5371
 IR Inten    --      3.8343                 2.2708                 3.7557

                     40                     41                     42
                      A                      A                      A
 Frequencies --   1076.0495              1110.0986              1127.1389
 Red. masses --      2.2403                 2.4169                 2.5137
 Frc consts  --      1.5284                 1.7549                 1.8816
 IR Inten    --      7.0731                69.8342               107.6180

                     43                     44                     45
                      A                      A                      A
 Frequencies --   1134.5477              1145.1618              1159.6834
 Red. masses --      2.3139                 2.3576                 2.5008
 Frc consts  --      1.7549                 1.8216                 1.9816
 IR Inten    --     44.6003                85.5033                 7.8439

                     46                     47                     48
                      A                      A                      A
 Frequencies --   1204.2151              1239.9124              1261.3617
 Red. masses --      2.0906                 1.5404                 1.2849
 Frc consts  --      1.7862                 1.3953                 1.2045
 IR Inten    --      6.3506                 5.5019                 2.5995

                     49                     50                     51
                      A                      A                      A
 Frequencies --   1268.5783              1293.8512              1313.6973
 Red. masses --      1.2848                 1.2707                 1.1691
 Frc consts  --      1.2182                 1.2533                 1.1888
 IR Inten    --      1.0791                 2.4407                 7.3166

                     52                     53                     54
                      A                      A                      A
 Frequencies --   1328.3096              1331.5295              1332.3157
 Red. masses --      1.2742                 1.1335                 1.0784
 Frc consts  --      1.3246                 1.1841                 1.1278
 IR Inten    --      4.1403                 0.1035                 0.8081

                     55                     56                     57
                      A                      A                      A
 Frequencies --   1355.3137              1359.0994              1375.9305
 Red. masses --      1.2811                 1.3640                 1.3617
 Frc consts  --      1.3865                 1.4845                 1.5189
 IR Inten    --     17.9825                17.3916                 5.7510

                     58                     59                     60
                      A                      A                      A
 Frequencies --   1386.6282              1400.3186              1406.5343
 Red. masses --      1.4414                 1.5698                 1.3621
 Frc consts  --      1.6329                 1.8136                 1.5876
 IR Inten    --      5.0517                 0.2264                 3.3066

                     61                     62                     63
                      A                      A                      A
 Frequencies --   1414.0100              1415.4553              1417.8375
 Red. masses --      1.2522                 1.2973                 1.2331
 Frc consts  --      1.4751                 1.5314                 1.4605
 IR Inten    --      0.3513                22.1511                 2.3545

                     64                     65                     66
                      A                      A                      A
 Frequencies --   1480.2910              1483.9369              1488.2598
 Red. masses --      1.0715                 1.0690                 1.0628
 Frc consts  --      1.3834                 1.3870                 1.3870
 IR Inten    --      0.3643                 0.6551                 0.7138

                     67                     68                     69
                      A                      A                      A
 Frequencies --   1490.3047              1494.7796              1499.1855
 Red. masses --      1.0671                 1.0594                 1.0566
 Frc consts  --      1.3964                 1.3946                 1.3991
 IR Inten    --      0.0104                 3.4719                 5.2936

                     70                     71                     72
                      A                      A                      A
 Frequencies --   1500.0507              1500.6677              1506.0899
 Red. masses --      1.0402                 1.0424                 1.0799
 Frc consts  --      1.3791                 1.3830                 1.4433
 IR Inten    --      5.7325                 2.9798                 1.1111

                     73                     74                     75
                      A                      A                      A
 Frequencies --   1508.5592              1514.7134              2347.9703
 Red. masses --      1.0667                 1.0937                12.6575
 Frc consts  --      1.4302                 1.4785                41.1134
 IR Inten    --      4.5617                 3.8729                 0.7910

                     76                     77                     78
                      A                      A                      A
 Frequencies --   2956.4795              2975.1500              3002.2681
 Red. masses --      1.0824                 1.0805                 1.0584
 Frc consts  --      5.5741                 5.6350                 5.6209
 IR Inten    --     28.8182                19.4675                 0.7674

                     79                     80                     81
                      A                      A                      A
 Frequencies --   3006.0820              3015.6070              3026.2988
 Red. masses --      1.0612                 1.0613                 1.0904
 Frc consts  --      5.6500                 5.6863                 5.8837
 IR Inten    --      4.6457                44.4619                 1.6909

                     82                     83                     84
                      A                      A                      A
 Frequencies --   3028.1382              3029.3279              3038.4875
 Red. masses --      1.0538                 1.0465                 1.0375
 Frc consts  --      5.6931                 5.6582                 5.6436
 IR Inten    --     17.8626                65.3577                18.9576

                     85                     86                     87
                      A                      A                      A
 Frequencies --   3040.7991              3046.5167              3052.9205
 Red. masses --      1.0931                 1.0420                 1.0591
 Frc consts  --      5.9549                 5.6979                 5.8157
 IR Inten    --      2.9358                 5.3309                17.3433

                     88                     89                     90
                      A                      A                      A
 Frequencies --   3056.6657              3076.1453              3090.3538
 Red. masses --      1.1036                 1.1037                 1.1017
 Frc consts  --      6.0753                 6.1532                 6.1992
 IR Inten    --     19.5873                65.1855                 1.6853

                     91                     92                     93
                      A                      A                      A
 Frequencies --   3095.1093              3101.0636              3110.9348
 Red. masses --      1.1020                 1.1010                 1.1017
 Frc consts  --      6.2202                 6.2380                 6.2818
 IR Inten    --     59.9100                37.8804                31.4055

                     94                     95                     96
                      A                      A                      A
 Frequencies --   3118.3371              3120.6237              3127.5551
 Red. masses --      1.1013                 1.1022                 1.1006
 Frc consts  --      6.3095                 6.3238                 6.3430
 IR Inten    --     22.6018                22.3661                20.7308

 - Thermochemistry -
 -------------------
 Temperature   298.150 Kelvin.  Pressure   1.00000 Atm.
 Atom     1 has atomic number  6 and mass  12.00000

 Molecular mass:   183.16231 amu.
 Principal axes and moments of inertia in atomic units:
                           1         2         3
     Eigenvalues --   945.950227776.480928474.39304
           X            0.99993   0.01096  -0.00339
           Y           -0.01093   0.99992   0.00704
           Z            0.00346  -0.00700   0.99997
 This molecule is an asymmetric top.
 Rotational symmetry number  1.
 Warning -- assumption of classical behavior for rotation
           may cause significant error
 Rotational temperatures (Kelvin)      0.09156     0.01114     0.01022
 Rotational constants (GHZ):           1.90786     0.23208     0.21296
 Zero-point vibrational energy     799347.2 (Joules/Mol)
                                  191.04856 (Kcal/Mol)
 Warning -- explicit consideration of  23 degrees of freedom as
           vibrations may cause significant error
 Vibrational temperatures:     19.48    52.04    69.64    90.99   111.75
          (Kelvin)            146.58   182.04   196.01   207.65   237.91
                              305.88   336.54   347.73   357.07   370.46
                              388.43   453.01   524.41   569.84   637.81
                              720.22   744.56   825.94   910.39  1055.75
                             1092.31  1101.89  1195.47  1234.24  1253.61
                             1294.04  1340.31  1346.25  1366.52  1446.85
                             1481.28  1507.65  1513.94  1527.78  1548.20
                             1597.18  1621.70  1632.36  1647.63  1668.53
                             1732.60  1783.96  1814.82  1825.20  1861.56
                             1890.12  1911.14  1915.77  1916.91  1949.99
                             1955.44  1979.66  1995.05  2014.75  2023.69
                             2034.44  2036.52  2039.95  2129.81  2135.05
                             2141.27  2144.22  2150.65  2156.99  2158.24
                             2159.13  2166.93  2170.48  2179.33  3378.21
                             4253.71  4280.58  4319.59  4325.08  4338.79
                             4354.17  4356.82  4358.53  4371.71  4375.03
                             4383.26  4392.47  4397.86  4425.89  4446.33
                             4453.17  4461.74  4475.94  4486.59  4489.88
                             4499.85

 Zero-point correction=                           0.304455 (Hartree/Particle)
 Thermal correction to Energy=                    0.321094
 Thermal correction to Enthalpy=                  0.322038
 Thermal correction to Gibbs Free Energy=         0.258032
 Sum of electronic and zero-point Energies=           -561.521398
 Sum of electronic and thermal Energies=              -561.504759
 Sum of electronic and thermal Enthalpies=            -561.503815
 Sum of electronic and thermal Free Energies=         -561.567821

                     E (Thermal)             CV                S
                      KCal/Mol        Cal/Mol-Kelvin    Cal/Mol-Kelvin
 Total                  201.489             58.830            134.713
 Electronic               0.000              0.000              0.000
 Translational            0.889              2.981             41.522
 Rotational               0.889              2.981             32.500
 Vibrational            199.712             52.868             60.691
 Vibration     1          0.593              1.986              7.409
 Vibration     2          0.594              1.982              5.458
 Vibration     3          0.595              1.978              4.882
 Vibration     4          0.597              1.972              4.353
 Vibration     5          0.599              1.964              3.949
 Vibration     6          0.604              1.948              3.418
 Vibration     7          0.611              1.927              2.998
 Vibration     8          0.614              1.917              2.856
 Vibration     9          0.616              1.909              2.746
 Vibration    10          0.624              1.885              2.488
 Vibration    11          0.644              1.822              2.021
 Vibration    12          0.654              1.789              1.849
 Vibration    13          0.658              1.776              1.790
 Vibration    14          0.662              1.766              1.744
 Vibration    15          0.667              1.750              1.679
 Vibration    16          0.674              1.728              1.596
 Vibration    17          0.702              1.645              1.337
 Vibration    18          0.738              1.545              1.103
 Vibration    19          0.763              1.479              0.977
 Vibration    20          0.803              1.376              0.816
 Vibration    21          0.856              1.249              0.657
 Vibration    22          0.873              1.211              0.616
 Vibration    23          0.930              1.087              0.496

 Optimization completed.
    -- Stationary point found.
 Normal termination of Gaussian 16 at Tue May 23 11:54:57 2023.
