 Gaussian 16, Revision A.03,
 Gaussian 16:  ES64L-G16RevA.03 25-Dec-2016

 -----------------------------
 # opt freq b3lyp/6-31g(2df,p)
 -----------------------------

 -------------------
 Title Card Required
 -------------------
 Symbolic Z-matrix:
 Charge =  0 Multiplicity = 1

 SCF Done:  E(RB3LYP) =  -775.954900703     A.U. after   13 cycles
 SCF Done:  E(RB3LYP) =  -775.964168284     A.U. after   11 cycles
 SCF Done:  E(RB3LYP) =  -775.965171785     A.U. after   10 cycles
 SCF Done:  E(RB3LYP) =  -775.965719077     A.U. after   11 cycles
 SCF Done:  E(RB3LYP) =  -775.966668785     A.U. after   12 cycles
 SCF Done:  E(RB3LYP) =  -775.967458282     A.U. after   10 cycles
 SCF Done:  E(RB3LYP) =  -775.968796696     A.U. after   12 cycles
 SCF Done:  E(RB3LYP) =  -775.968955730     A.U. after   12 cycles
 SCF Done:  E(RB3LYP) =  -775.969260505     A.U. after   10 cycles
 SCF Done:  E(RB3LYP) =  -775.969493838     A.U. after   11 cycles
 SCF Done:  E(RB3LYP) =  -775.972452059     A.U. after   12 cycles
 SCF Done:  E(RB3LYP) =  -775.972655643     A.U. after   11 cycles
 SCF Done:  E(RB3LYP) =  -775.972706842     A.U. after   11 cycles
 SCF Done:  E(RB3LYP) =  -775.972711942     A.U. after    9 cycles
 SCF Done:  E(RB3LYP) =  -775.972712487     A.U. after    8 cycles
 SCF Done:  E(RB3LYP) =  -775.972713280     A.U. after    9 cycles
 SCF Done:  E(RB3LYP) =  -775.972713323     A.U. after    6 cycles
 SCF Done:  E(RB3LYP) =  -775.972713325     A.U. after    6 cycles
 SCF Done:  E(RB3LYP) =  -775.972713340     A.U. after    6 cycles
 Optimization completed.
    -- Stationary point found.
 Normal termination of Gaussian 16 at Sun May 28 08:53:29 2023.

 ----------------------------------------------------------------------
 #N Geom=AllCheck Guess=TCheck SCRF=Check GenChk RB3LYP/6-31G(2df,p) Fr
 eq
 ----------------------------------------------------------------------

 Structure from the checkpoint file:  "CCCCCCCCCCdCCqOrCOOC.chk"
 -------------------
 Title Card Required
 -------------------
 Charge =  0 Multiplicity = 1

                         Standard orientation:
 ---------------------------------------------------------------------
 Center     Atomic      Atomic             Coordinates (Angstroms)
 Number     Number       Type             X           Y           Z
 ---------------------------------------------------------------------
      1          6           0       -9.630173   -0.235180   -0.230756
      2          6           0       -8.298272    0.471424   -0.497131
      3          6           0       -7.084711   -0.314423    0.011113
      4          6           0       -5.747274    0.385718   -0.251273
      5          6           0       -4.534141   -0.400696    0.257033
      6          6           0       -3.196719    0.300001   -0.005725
      7          6           0       -1.983868   -0.487137    0.502180
      8          6           0       -0.647902    0.214826    0.237940
      9          6           0        0.566927   -0.582476    0.747222
     10          6           0        1.867555    0.135701    0.530961
     11          6           0        2.875581   -0.302769   -0.218830
     12          6           0        4.174236    0.439141   -0.434327
     13          8           0        4.292110    1.609402    0.353916
     14          6           0        5.361892   -0.511149   -0.230260
     15          8           0        6.517950    0.158234   -0.691742
     16          8           0        7.618600   -0.772411   -0.522936
     17          6           0        8.588057   -0.087075    0.241231
     18          1           0      -10.476505    0.349794   -0.604506
     19          1           0       -9.785164   -0.396488    0.842011
     20          1           0       -9.662494   -1.215986   -0.718439
     21          1           0       -8.309143    1.463653   -0.026574
     22          1           0       -8.187321    0.650357   -1.574959
     23          1           0       -7.073720   -1.307876   -0.459272
     24          1           0       -7.195732   -0.494365    1.089839
     25          1           0       -5.759017    1.378945    0.219261
     26          1           0       -5.637090    0.565493   -1.329955
     27          1           0       -4.522129   -1.393845   -0.213617
     28          1           0       -4.644046   -0.580515    1.335749
     29          1           0       -3.208079    1.292924    0.465247
     30          1           0       -3.086595    0.479951   -1.084229
     31          1           0       -1.972086   -1.480102    0.031203
     32          1           0       -2.092526   -0.666990    1.581061
     33          1           0       -0.654655    1.205477    0.712615
     34          1           0       -0.530868    0.395720   -0.838317
     35          1           0        0.595984   -1.564147    0.258541
     36          1           0        0.430439   -0.774082    1.821919
     37          1           0        1.963400    1.110779    1.007136
     38          1           0        2.792690   -1.261465   -0.730009
     39          1           0        4.223195    0.795841   -1.472574
     40          1           0        4.261586    1.337917    1.278868
     41          1           0        5.209432   -1.437963   -0.799941
     42          1           0        5.459687   -0.774639    0.834348
     43          1           0        9.422764   -0.789372    0.331440
     44          1           0        8.213155    0.170793    1.239903
     45          1           0        8.928430    0.822950   -0.266917
 ---------------------------------------------------------------------

 SCF Done:  E(RB3LYP) =  -775.972713340     A.U. after    1 cycles

 The electronic state is 1-A.
 Alpha  occ. eigenvalues --  -19.18706 -19.18478 -19.13835 -10.23982 -10.22946
 Alpha  occ. eigenvalues --  -10.22644 -10.18447 -10.18288 -10.18124 -10.17908
 Alpha  occ. eigenvalues --  -10.17663 -10.17519 -10.17491 -10.17412 -10.17340
 Alpha  occ. eigenvalues --  -10.17303 -10.16942  -1.11270  -1.02340  -0.92281
 Alpha  occ. eigenvalues --   -0.81434  -0.80198  -0.78312  -0.75961  -0.73346
 Alpha  occ. eigenvalues --   -0.70449  -0.67335  -0.65772  -0.62640  -0.60868
 Alpha  occ. eigenvalues --   -0.58192  -0.57371  -0.56925  -0.55393  -0.51338
 Alpha  occ. eigenvalues --   -0.49561  -0.48804  -0.48058  -0.46896  -0.46167
 Alpha  occ. eigenvalues --   -0.45332  -0.43815  -0.43109  -0.42708  -0.41897
 Alpha  occ. eigenvalues --   -0.41027  -0.40520  -0.40161  -0.39671  -0.38681
 Alpha  occ. eigenvalues --   -0.38065  -0.37103  -0.35915  -0.35189  -0.34677
 Alpha  occ. eigenvalues --   -0.34107  -0.33766  -0.32852  -0.32635  -0.32528
 Alpha  occ. eigenvalues --   -0.31939  -0.31880  -0.31662  -0.29833  -0.29266
 Alpha  occ. eigenvalues --   -0.27423  -0.24986  -0.24100
 Alpha virt. eigenvalues --    0.01729   0.03737   0.08229   0.08779   0.09571
 Alpha virt. eigenvalues --    0.10458   0.10772   0.11032   0.11471   0.12231
 Alpha virt. eigenvalues --    0.12819   0.13461   0.13953   0.14515   0.14545

 Mulliken charges:
               1
     1  C   -0.379053
     2  C   -0.162752
     3  C   -0.158267
     4  C   -0.178093
     5  C   -0.180232
     6  C   -0.181673
     7  C   -0.178160
     8  C   -0.170818
     9  C   -0.249886
    10  C   -0.061085
    11  C   -0.095875
    12  C    0.052393
    13  O   -0.416618
    14  C   -0.027144
    15  O   -0.189484
    16  O   -0.168405
    17  C   -0.198793
    18  H    0.109714
    19  H    0.112245
    20  H    0.112336
    21  H    0.092891
    22  H    0.093014
    23  H    0.089571
    24  H    0.089424
    25  H    0.090438
    26  H    0.090675
    27  H    0.090495
    28  H    0.090195
    29  H    0.091504
    30  H    0.092285
    31  H    0.091877
    32  H    0.090731
    33  H    0.095198
    34  H    0.100095
    35  H    0.094928
    36  H    0.100638
    37  H    0.089774
    38  H    0.085304
    39  H    0.116283
    40  H    0.276338
    41  H    0.103159
    42  H    0.086565
    43  H    0.130565
    44  H    0.111573
    45  H    0.126130
 Sum of Mulliken charges =  -0.00000

 Dipole moment (field-independent basis, Debye):
    X=             -0.7563    Y=             -1.0688    Z=              1.7542  Tot=              2.1889
 Quadrupole moment (field-independent basis, Debye-Ang):
   XX=           -107.3555   YY=           -111.3844   ZZ=           -104.7187
   XY=             -4.1650   XZ=             11.1023   YZ=              1.9406

  Exact polarizability: 252.744  -2.286 140.922  -5.522   2.662 138.376
 Approx polarizability: 255.667  -7.440 220.971 -13.479   8.441 221.753

                      1                      2                      3
                      A                      A                      A
 Frequencies --     12.5731                19.5076                27.0855
 Red. masses --      4.3429                 3.3591                 2.6181
 Frc consts  --      0.0004                 0.0008                 0.0011
 IR Inten    --      0.0804                 0.3988                 0.5091

                      4                      5                      6
                      A                      A                      A
 Frequencies --     27.5522                44.9625                51.2003
 Red. masses --      2.6971                 2.7743                 4.3196
 Frc consts  --      0.0012                 0.0033                 0.0067
 IR Inten    --      2.1771                 0.6879                 1.1449

                      7                      8                      9
                      A                      A                      A
 Frequencies --     66.3953                74.6297                85.8532
 Red. masses --      2.5425                 3.9980                 2.3227
 Frc consts  --      0.0066                 0.0131                 0.0101
 IR Inten    --      0.8180                 1.7788                 1.7728

                     10                     11                     12
                      A                      A                      A
 Frequencies --     92.0607               111.3102               126.0296
 Red. masses --      2.9502                 2.3838                 1.9807
 Frc consts  --      0.0147                 0.0174                 0.0185
 IR Inten    --      1.0216                 1.0041                 0.1479

                     13                     14                     15
                      A                      A                      A
 Frequencies --    143.9362               155.6142               162.6270
 Red. masses --      3.8049                 2.0614                 2.0674
 Frc consts  --      0.0464                 0.0294                 0.0322
 IR Inten    --      0.3362                 0.0360                 0.4383

                     16                     17                     18
                      A                      A                      A
 Frequencies --    173.4603               189.7117               231.4470
 Red. masses --      2.8906                 1.7894                 2.6867
 Frc consts  --      0.0512                 0.0379                 0.0848
 IR Inten    --      2.1504                 0.5605                 0.5686

                     19                     20                     21
                      A                      A                      A
 Frequencies --    243.5797               247.2800               262.2912
 Red. masses --      1.8386                 1.1216                 2.7861
 Frc consts  --      0.0643                 0.0404                 0.1129
 IR Inten    --      4.7732                 0.0024                 6.8205

                     22                     23                     24
                      A                      A                      A
 Frequencies --    295.1079               312.8211               346.0459
 Red. masses --      3.8343                 1.2154                 3.6580
 Frc consts  --      0.1967                 0.0701                 0.2581
 IR Inten    --      0.7902               115.5989                 7.9147

                     25                     26                     27
                      A                      A                      A
 Frequencies --    368.2579               404.2593               424.6729
 Red. masses --      3.0997                 3.0341                 3.6707
 Frc consts  --      0.2477                 0.2922                 0.3900
 IR Inten    --      7.8814                 8.2337                 3.8094

                     28                     29                     30
                      A                      A                      A
 Frequencies --    467.7709               485.0291               505.9875
 Red. masses --      3.4153                 2.8077                 3.0038
 Frc consts  --      0.4403                 0.3892                 0.4531
 IR Inten    --      4.0690                 0.5445                11.4358

                     31                     32                     33
                      A                      A                      A
 Frequencies --    552.3323               682.1384               730.9870
 Red. masses --      2.9645                 3.3525                 1.0582
 Frc consts  --      0.5328                 0.9191                 0.3332
 IR Inten    --     14.0737                18.5759                 5.5976

                     34                     35                     36
                      A                      A                      A
 Frequencies --    732.3708               742.5266               768.9878
 Red. masses --      1.0724                 1.1077                 1.1863
 Frc consts  --      0.3389                 0.3598                 0.4133
 IR Inten    --      0.2720                 2.0845                 1.0786

                     37                     38                     39
                      A                      A                      A
 Frequencies --    804.8732               840.1454               877.9096
 Red. masses --      1.4292                 1.4281                 3.5543
 Frc consts  --      0.5455                 0.5939                 1.6140
 IR Inten    --      2.1679                 0.4884                11.7310

                     40                     41                     42
                      A                      A                      A
 Frequencies --    897.0837               897.6272               920.8343
 Red. masses --      1.3640                 1.9274                 3.1717
 Frc consts  --      0.6467                 0.9150                 1.5845
 IR Inten    --      2.0377                 1.2419                 6.7463

                     43                     44                     45
                      A                      A                      A
 Frequencies --    954.9862               976.8381               989.5477
 Red. masses --      1.7911                 1.5974                 4.1662
 Frc consts  --      0.9624                 0.8981                 2.4036
 IR Inten    --      4.8184                 1.4860                 0.3213

                     46                     47                     48
                      A                      A                      A
 Frequencies --   1003.3013              1015.7947              1029.1785
 Red. masses --      3.5680                 1.3622                 2.2821
 Frc consts  --      2.1161                 0.8281                 1.4242
 IR Inten    --      0.5024                 9.3893                 6.9443

                     49                     50                     51
                      A                      A                      A
 Frequencies --   1035.3667              1048.5597              1052.6807
 Red. masses --      1.2022                 3.8207                 2.2653
 Frc consts  --      0.7593                 2.4750                 1.4790
 IR Inten    --      7.4240                63.7687                 0.6962

                     52                     53                     54
                      A                      A                      A
 Frequencies --   1058.4323              1068.0107              1070.1106
 Red. masses --      2.6633                 2.4256                 2.1870
 Frc consts  --      1.7579                 1.6301                 1.4756
 IR Inten    --      1.9378                 0.9927                 0.1329

                     55                     56                     57
                      A                      A                      A
 Frequencies --   1074.5271              1077.9111              1088.5227
 Red. masses --      2.2780                 5.5329                 1.7765
 Frc consts  --      1.5496                 3.7876                 1.2402
 IR Inten    --      1.1217                59.5722                 1.1967

                     58                     59                     60
                      A                      A                      A
 Frequencies --   1129.9924              1139.1679              1164.2455
 Red. masses --      2.4462                 2.7199                 2.0191
 Frc consts  --      1.8403                 2.0796                 1.6125
 IR Inten    --     28.9906                 1.9785                27.5546

                     61                     62                     63
                      A                      A                      A
 Frequencies --   1180.0442              1214.3131              1216.7934
 Red. masses --      1.2894                 1.7928                 1.4162
 Frc consts  --      1.0579                 1.5575                 1.2354
 IR Inten    --      1.0741                 0.5979                14.3604

                     64                     65                     66
                      A                      A                      A
 Frequencies --   1226.6167              1229.8634              1244.6129
 Red. masses --      1.2982                 1.3296                 1.4766
 Frc consts  --      1.1509                 1.1849                 1.3477
 IR Inten    --      6.3150                 1.1992                 0.9946

                     67                     68                     69
                      A                      A                      A
 Frequencies --   1265.8837              1276.9468              1279.6410
 Red. masses --      1.3216                 1.3592                 1.3997
 Frc consts  --      1.2478                 1.3058                 1.3504
 IR Inten    --      0.7395                 6.8171                 4.4292

                     70                     71                     72
                      A                      A                      A
 Frequencies --   1298.0468              1309.7797              1317.2778
 Red. masses --      1.3172                 1.2685                 1.2804
 Frc consts  --      1.3077                 1.2822                 1.3091
 IR Inten    --      0.6414                 2.0644                 2.3334

                     73                     74                     75
                      A                      A                      A
 Frequencies --   1322.7912              1326.7670              1330.0534
 Red. masses --      1.0867                 1.1187                 1.1878
 Frc consts  --      1.1203                 1.1602                 1.2381
 IR Inten    --      1.0076                 1.6845                 1.3759

                     76                     77                     78
                      A                      A                      A
 Frequencies --   1336.3484              1338.5544              1344.9273
 Red. masses --      1.1047                 1.1119                 1.3075
 Frc consts  --      1.1623                 1.1738                 1.3934
 IR Inten    --      0.1062                 0.3249                 0.7173

                     79                     80                     81
                      A                      A                      A
 Frequencies --   1357.1577              1379.5258              1392.8487
 Red. masses --      1.3768                 1.4518                 1.4240
 Frc consts  --      1.4941                 1.6279                 1.6276
 IR Inten    --      0.1189                 3.2296                 4.0309

                     82                     83                     84
                      A                      A                      A
 Frequencies --   1394.9854              1401.3306              1402.5888
 Red. masses --      1.5484                 1.6183                 1.5988
 Frc consts  --      1.7753                 1.8724                 1.8531
 IR Inten    --      1.1000                 0.2502                 0.4302

                     85                     86                     87
                      A                      A                      A
 Frequencies --   1413.2811              1419.5250              1450.2881
 Red. masses --      1.2594                 1.2095                 1.1415
 Frc consts  --      1.4821                 1.4359                 1.4146
 IR Inten    --      0.4628                37.7232                 9.5055

                     88                     89                     90
                      A                      A                      A
 Frequencies --   1461.8515              1477.4676              1481.3819
 Red. masses --      1.0499                 1.0849                 1.0730
 Frc consts  --      1.3220                 1.3953                 1.3874
 IR Inten    --      3.8112                 1.6624                 0.0132

                     91                     92                     93
                      A                      A                      A
 Frequencies --   1482.4200              1484.6163              1488.6263
 Red. masses --      1.0755                 1.0691                 1.0786
 Frc consts  --      1.3926                 1.3883                 1.4082
 IR Inten    --      0.1179                 0.3086                 0.6443

                     94                     95                     96
                      A                      A                      A
 Frequencies --   1496.3774              1499.7469              1504.4369
 Red. masses --      1.0832                 1.0403                 1.0881
 Frc consts  --      1.4291                 1.3787                 1.4509
 IR Inten    --      0.1043                 4.8983                 1.0352

                     97                     98                     99
                      A                      A                      A
 Frequencies --   1507.4477              1511.4132              1515.0940
 Red. masses --      1.0729                 1.0928                 1.0715
 Frc consts  --      1.4365                 1.4708                 1.4491
 IR Inten    --     24.2718                 0.0561                 1.9839

                    100                    101                    102
                      A                      A                      A
 Frequencies --   1516.2085              1738.6822              2982.6732
 Red. masses --      1.0971                 6.5123                 1.0591
 Frc consts  --      1.4860                11.5991                 5.5515
 IR Inten    --      4.2024                 4.2396                30.6804

                    103                    104                    105
                      A                      A                      A
 Frequencies --   2995.8801              2997.7111              2998.1767
 Red. masses --      1.0627                 1.0576                 1.0578
 Frc consts  --      5.6198                 5.5997                 5.6024
 IR Inten    --     12.5253                 0.1742                 2.8254

                    106                    107                    108
                      A                      A                      A
 Frequencies --   3000.7423              3003.1644              3006.5093
 Red. masses --      1.0582                 1.0588                 1.0308
 Frc consts  --      5.6138                 5.6261                 5.4896
 IR Inten    --      5.8573                 0.1586                45.2438

                    109                    110                    111
                      A                      A                      A
 Frequencies --   3009.8942              3015.3984              3017.7256
 Red. masses --      1.0598                 1.0611                 1.0782
 Frc consts  --      5.6567                 5.6847                 5.7851
 IR Inten    --      6.8275                10.1928                93.0531

                    112                    113                    114
                      A                      A                      A
 Frequencies --   3018.1988              3019.8245              3021.0268
 Red. masses --      1.0833                 1.0831                 1.0954
 Frc consts  --      5.8142                 5.8193                 5.8905
 IR Inten    --     66.4711                16.5580                12.1036

                    115                    116                    117
                      A                      A                      A
 Frequencies --   3027.0883              3027.6871              3036.7290
 Red. masses --      1.0993                 1.0357                 1.0999
 Frc consts  --      5.9348                 5.5940                 5.9761
 IR Inten    --      3.5810                43.4126                 6.6697

                    118                    119                    120
                      A                      A                      A
 Frequencies --   3037.1322              3043.4944              3051.8927
 Red. masses --      1.1012                 1.0988                 1.1039
 Frc consts  --      5.9850                 5.9967                 6.0577
 IR Inten    --     42.6099                 4.6795                 2.5936

                    121                    122                    123
                      A                      A                      A
 Frequencies --   3061.2408              3068.8957              3073.1575
 Red. masses --      1.1048                 1.1044                 1.1052
 Frc consts  --      6.1000                 6.1285                 6.1497
 IR Inten    --     42.9465               152.8221                45.0868

                    124                    125                    126
                      A                      A                      A
 Frequencies --   3093.7363              3099.2316              3111.2225
 Red. masses --      1.1020                 1.1009                 1.1018
 Frc consts  --      6.2145                 6.2305                 6.2839
 IR Inten    --     60.9355                40.1183                17.0980

                    127                    128                    129
                      A                      A                      A
 Frequencies --   3133.0282              3140.3994              3789.2395
 Red. masses --      1.0896                 1.0857                 1.0655
 Frc consts  --      6.3018                 6.3083                 9.0142
 IR Inten    --      9.8001                18.9576                10.1143

 - Thermochemistry -
 -------------------
 Temperature   298.150 Kelvin.  Pressure   1.00000 Atm.
 Atom     1 has atomic number  6 and mass  12.00000

 Molecular mass:   244.20384 amu.
 Principal axes and moments of inertia in atomic units:
                           1         2         3
     Eigenvalues --   598.88216********************
           X            1.00000  -0.00001   0.00304
           Y            0.00009   0.99964  -0.02688
           Z           -0.00304   0.02688   0.99963
 This molecule is an asymmetric top.
 Rotational symmetry number  1.
 Warning -- assumption of classical behavior for rotation
           may cause significant error
 Rotational temperatures (Kelvin)      0.14463     0.00306     0.00304
 Rotational constants (GHZ):           3.01352     0.06378     0.06345
 Zero-point vibrational energy    1060499.8 (Joules/Mol)
                                  253.46552 (Kcal/Mol)
 Warning -- explicit consideration of  31 degrees of freedom as
           vibrations may cause significant error
 Vibrational temperatures:     18.09    28.07    38.97    39.64    64.69
          (Kelvin)             73.67    95.53   107.38   123.52   132.45
                              160.15   181.33   207.09   223.89   233.98
                              249.57   272.95   333.00   350.46   355.78
                              377.38   424.59   450.08   497.88   529.84
                              581.64   611.01   673.02   697.85   728.00
                              794.68   981.44  1051.73  1053.72  1068.33
                             1106.40  1158.03  1208.78  1263.12  1290.70
                             1291.49  1324.88  1374.01  1405.45  1423.74
                             1443.53  1461.50  1480.76  1489.66  1508.64
                             1514.57  1522.85  1536.63  1539.65  1546.00
                             1550.87  1566.14  1625.81  1639.01  1675.09
                             1697.82  1747.13  1750.69  1764.83  1769.50
                             1790.72  1821.32  1837.24  1841.12  1867.60
                             1884.48  1895.27  1903.20  1908.92  1913.65
                             1922.71  1925.88  1935.05  1952.65  1984.83
                             2004.00  2007.07  2016.20  2018.01  2033.40
                             2042.38  2086.64  2103.28  2125.75  2131.38
                             2132.87  2136.03  2141.80  2152.95  2157.80
                             2164.55  2168.88  2174.59  2179.88  2181.49
                             2501.58  4291.40  4310.40  4313.04  4313.71
                             4317.40  4320.88  4325.70  4330.57  4338.49
                             4341.83  4342.51  4344.85  4346.58  4355.30
                             4356.17  4369.18  4369.76  4378.91  4390.99
                             4404.44  4415.46  4421.59  4451.20  4459.10
                             4476.36  4507.73  4518.33  5451.87

 Zero-point correction=                           0.403923 (Hartree/Particle)
 Thermal correction to Energy=                    0.426365
 Thermal correction to Enthalpy=                  0.427309
 Thermal correction to Gibbs Free Energy=         0.347254
 Sum of electronic and zero-point Energies=           -775.568790
 Sum of electronic and thermal Energies=              -775.546348
 Sum of electronic and thermal Enthalpies=            -775.545404
 Sum of electronic and thermal Free Energies=         -775.625460

                     E (Thermal)             CV                S
                      KCal/Mol        Cal/Mol-Kelvin    Cal/Mol-Kelvin
 Total                  267.548             78.180            168.492
 Electronic               0.000              0.000              0.000
 Translational            0.889              2.981             42.379
 Rotational               0.889              2.981             34.532
 Vibrational            265.771             72.219             91.580
 Vibration     1          0.593              1.987              7.556
 Vibration     2          0.593              1.986              6.684
 Vibration     3          0.593              1.984              6.032
 Vibration     4          0.593              1.984              5.998
 Vibration     5          0.595              1.979              5.027
 Vibration     6          0.595              1.977              4.770
 Vibration     7          0.598              1.970              4.257
 Vibration     8          0.599              1.966              4.027
 Vibration     9          0.601              1.959              3.752
 Vibration    10          0.602              1.955              3.616
 Vibration    11          0.607              1.940              3.246
 Vibration    12          0.611              1.927              3.006
 Vibration    13          0.616              1.909              2.751
 Vibration    14          0.620              1.896              2.602
 Vibration    15          0.623              1.888              2.519
 Vibration    16          0.627              1.875              2.398
 Vibration    17          0.633              1.854              2.231
 Vibration    18          0.653              1.793              1.868
 Vibration    19          0.659              1.773              1.777
 Vibration    20          0.661              1.767              1.750
 Vibration    21          0.670              1.742              1.646
 Vibration    22          0.689              1.683              1.444
 Vibration    23          0.701              1.649              1.347
 Vibration    24          0.724              1.583              1.184
 Vibration    25          0.741              1.537              1.087
 Vibration    26          0.769              1.461              0.947
 Vibration    27          0.787              1.417              0.876
 Vibration    28          0.825              1.322              0.744
 Vibration    29          0.841              1.283              0.697
 Vibration    30          0.861              1.237              0.643
 Vibration    31          0.908              1.135              0.539

 Optimization completed.
    -- Stationary point found.
 Normal termination of Gaussian 16 at Sun May 28 11:56:01 2023.
