 Gaussian 16, Revision A.03,
 Gaussian 16:  ES64L-G16RevA.03 25-Dec-2016

 -----------------------------
 # opt freq b3lyp/6-31g(2df,p)
 -----------------------------

 -------------------
 Title Card Required
 -------------------
 Symbolic Z-matrix:
 Charge =  0 Multiplicity = 1

 SCF Done:  E(RB3LYP) =  -669.560375725     A.U. after   11 cycles
 SCF Done:  E(RB3LYP) =  -669.575943707     A.U. after   10 cycles
 SCF Done:  E(RB3LYP) =  -669.578567958     A.U. after   10 cycles
 SCF Done:  E(RB3LYP) =  -669.580628068     A.U. after   10 cycles
 SCF Done:  E(RB3LYP) =  -669.581122284     A.U. after    9 cycles
 SCF Done:  E(RB3LYP) =  -669.581316407     A.U. after    9 cycles
 SCF Done:  E(RB3LYP) =  -669.581446499     A.U. after    8 cycles
 SCF Done:  E(RB3LYP) =  -669.581558443     A.U. after    9 cycles
 SCF Done:  E(RB3LYP) =  -669.581599794     A.U. after    7 cycles
 SCF Done:  E(RB3LYP) =  -669.581306982     A.U. after   10 cycles
 SCF Done:  E(RB3LYP) =  -669.582028208     A.U. after    9 cycles
 SCF Done:  E(RB3LYP) =  -669.581916304     A.U. after    9 cycles
 SCF Done:  E(RB3LYP) =  -669.582411647     A.U. after    9 cycles
 SCF Done:  E(RB3LYP) =  -669.582437520     A.U. after    8 cycles
 SCF Done:  E(RB3LYP) =  -669.582450702     A.U. after    8 cycles
 SCF Done:  E(RB3LYP) =  -669.582454651     A.U. after    7 cycles
 SCF Done:  E(RB3LYP) =  -669.582456169     A.U. after    6 cycles
 SCF Done:  E(RB3LYP) =  -669.582456254     A.U. after    6 cycles
 SCF Done:  E(RB3LYP) =  -669.582456282     A.U. after    6 cycles
 Optimization completed.
    -- Stationary point found.
 Normal termination of Gaussian 16 at Mon May 22 15:26:36 2023.

 ----------------------------------------------------------------------
 #N Geom=AllCheck Guess=TCheck SCRF=Check GenChk RB3LYP/6-31G(2df,p) Fr
 eq
 ----------------------------------------------------------------------

 Structure from the checkpoint file:  "CCCCCCqCrCCCCCqCCrCCC.chk"
 -------------------
 Title Card Required
 -------------------
 Charge =  0 Multiplicity = 1

                         Standard orientation:
 ---------------------------------------------------------------------
 Center     Atomic      Atomic             Coordinates (Angstroms)
 Number     Number       Type             X           Y           Z
 ---------------------------------------------------------------------
      1          6           0        8.544190    0.767198    0.671787
      2          6           0        7.399099    0.184136   -0.160754
      3          6           0        6.032180    0.308230    0.520904
      4          6           0        4.879079   -0.271088   -0.306712
      5          6           0        3.517566   -0.141788    0.387435
      6          6           0        2.303723   -0.607286   -0.440824
      7          6           0        2.361275   -2.111896   -0.745311
      8          6           0        0.996074   -0.215584    0.275249
      9          6           0       -0.288562   -0.419985   -0.537484
     10          6           0       -1.541903    0.091468    0.182658
     11          6           0       -2.834656   -0.133377   -0.614210
     12          6           0       -4.124265    0.387570    0.074972
     13          6           0       -4.567283    1.761513   -0.467903
     14          6           0       -3.542863    2.891699   -0.321872
     15          6           0       -5.254302   -0.656758   -0.045264
     16          6           0       -6.535878   -0.355487    0.741872
     17          6           0       -7.542562   -1.509285    0.692181
     18          1           0        9.505988    0.663984    0.159426
     19          1           0        8.627120    0.261055    1.640197
     20          1           0        8.386017    1.833139    0.870837
     21          1           0        7.602433   -0.873932   -0.373435
     22          1           0        7.363038    0.686134   -1.136876
     23          1           0        5.829761    1.366910    0.736587
     24          1           0        6.067656   -0.195249    1.497448
     25          1           0        5.094740   -1.324341   -0.525823
     26          1           0        4.839750    0.239586   -1.279520
     27          1           0        3.366980    0.911276    0.662092
     28          1           0        3.538759   -0.698760    1.335792
     29          1           0        2.330569   -0.066280   -1.399516
     30          1           0        2.338117   -2.696119    0.183218
     31          1           0        3.273759   -2.381469   -1.284432
     32          1           0        1.516379   -2.433156   -1.360852
     33          1           0        1.060824    0.843265    0.561074
     34          1           0        0.922510   -0.776649    1.218565
     35          1           0       -0.423951   -1.483101   -0.772950
     36          1           0       -0.191234    0.094616   -1.504221
     37          1           0       -1.419530    1.157597    0.410089
     38          1           0       -1.631835   -0.413047    1.155091
     39          1           0       -2.934222   -1.210533   -0.800314
     40          1           0       -2.736332    0.326437   -1.607293
     41          1           0       -3.907655    0.508018    1.147790
     42          1           0       -5.488082    2.067248    0.041075
     43          1           0       -4.831843    1.647175   -1.528961
     44          1           0       -3.254834    3.034709    0.725757
     45          1           0       -3.957663    3.838783   -0.682174
     46          1           0       -2.630536    2.697203   -0.893908
     47          1           0       -4.861485   -1.624115    0.296660
     48          1           0       -5.503726   -0.795766   -1.107815
     49          1           0       -7.014945    0.551887    0.356726
     50          1           0       -6.275329   -0.142268    1.787657
     51          1           0       -7.841370   -1.729101   -0.338998
     52          1           0       -8.449763   -1.274189    1.257802
     53          1           0       -7.115532   -2.426619    1.112848
 ---------------------------------------------------------------------

 SCF Done:  E(RB3LYP) =  -669.582456282     A.U. after    1 cycles

 The electronic state is 1-A.
 Alpha  occ. eigenvalues --  -10.17860 -10.17688 -10.17403 -10.17377 -10.17240
 Alpha  occ. eigenvalues --  -10.17167 -10.17113 -10.17093 -10.17072 -10.17034
 Alpha  occ. eigenvalues --  -10.16978 -10.16968 -10.16916 -10.16876 -10.16858
 Alpha  occ. eigenvalues --  -10.16844 -10.16560  -0.81765  -0.81059  -0.78951
 Alpha  occ. eigenvalues --   -0.77132  -0.75760  -0.73265  -0.71429  -0.68692
 Alpha  occ. eigenvalues --   -0.66895  -0.64140  -0.62087  -0.59853  -0.58135
 Alpha  occ. eigenvalues --   -0.57097  -0.56666  -0.55024  -0.54579  -0.47610
 Alpha  occ. eigenvalues --   -0.47041  -0.45679  -0.44879  -0.44196  -0.44106
 Alpha  occ. eigenvalues --   -0.42777  -0.42186  -0.41481  -0.40712  -0.40362
 Alpha  occ. eigenvalues --   -0.40182  -0.38848  -0.38405  -0.37895  -0.37258
 Alpha  occ. eigenvalues --   -0.36304  -0.36063  -0.35461  -0.35024  -0.34610
 Alpha  occ. eigenvalues --   -0.34196  -0.33734  -0.32904  -0.32700  -0.32296
 Alpha  occ. eigenvalues --   -0.32132  -0.31814  -0.31399  -0.31206  -0.30821
 Alpha  occ. eigenvalues --   -0.30646  -0.30088  -0.29761  -0.27859
 Alpha virt. eigenvalues --    0.08437   0.09123   0.09637   0.09910   0.10897
 Alpha virt. eigenvalues --    0.11072   0.11494   0.11987   0.12170   0.12788
 Alpha virt. eigenvalues --    0.13462   0.13998   0.14367   0.14718   0.15650

 Mulliken charges:
               1
     1  C   -0.378984
     2  C   -0.163745
     3  C   -0.155951
     4  C   -0.192431
     5  C   -0.181037
     6  C    0.024639
     7  C   -0.389804
     8  C   -0.181527
     9  C   -0.194826
    10  C   -0.180799
    11  C   -0.207759
    12  C    0.033299
    13  C   -0.168157
    14  C   -0.387773
    15  C   -0.174911
    16  C   -0.176174
    17  C   -0.379285
    18  H    0.109244
    19  H    0.112244
    20  H    0.112248
    21  H    0.092596
    22  H    0.092554
    23  H    0.089312
    24  H    0.089771
    25  H    0.094910
    26  H    0.088985
    27  H    0.085965
    28  H    0.087257
    29  H    0.064512
    30  H    0.107746
    31  H    0.113243
    32  H    0.113444
    33  H    0.086227
    34  H    0.087198
    35  H    0.095257
    36  H    0.088936
    37  H    0.096311
    38  H    0.089922
    39  H    0.086483
    40  H    0.088383
    41  H    0.061565
    42  H    0.094460
    43  H    0.089082
    44  H    0.112414
    45  H    0.107718
    46  H    0.117981
    47  H    0.086255
    48  H    0.088497
    49  H    0.098865
    50  H    0.091931
    51  H    0.112742
    52  H    0.108917
    53  H    0.112049
 Sum of Mulliken charges =  -0.00000

 Dipole moment (field-independent basis, Debye):
    X=             -0.0683    Y=              0.0593    Z=             -0.0308  Tot=              0.0955
 Quadrupole moment (field-independent basis, Debye-Ang):
   XX=           -116.0096   YY=           -114.4707   ZZ=           -114.1337
   XY=             -1.0026   XZ=             -0.4546   YZ=             -0.8913

  Exact polarizability: 242.981   5.896 174.460  -1.041   0.608 158.764
 Approx polarizability: 258.196  -0.232 254.671  -0.370  -1.219 253.367

                      1                      2                      3
                      A                      A                      A
 Frequencies --     13.7136                19.2206                33.3001
 Red. masses --      3.3086                 3.0882                 2.4749
 Frc consts  --      0.0004                 0.0007                 0.0016
 IR Inten    --      0.0003                 0.0014                 0.0036

                      4                      5                      6
                      A                      A                      A
 Frequencies --     39.2810                53.5970                65.0583
 Red. masses --      2.7166                 2.1101                 2.3047
 Frc consts  --      0.0025                 0.0036                 0.0057
 IR Inten    --      0.0039                 0.0043                 0.0020

                      7                      8                      9
                      A                      A                      A
 Frequencies --     72.8265                84.1306               101.4592
 Red. masses --      1.8399                 3.0004                 1.9801
 Frc consts  --      0.0057                 0.0125                 0.0120
 IR Inten    --      0.0129                 0.0045                 0.0063

                     10                     11                     12
                      A                      A                      A
 Frequencies --    108.3942               113.9576               129.0656
 Red. masses --      1.9652                 2.9178                 1.9167
 Frc consts  --      0.0136                 0.0223                 0.0188
 IR Inten    --      0.0134                 0.0028                 0.0073

                     13                     14                     15
                      A                      A                      A
 Frequencies --    132.8020               143.8260               154.6275
 Red. masses --      2.0581                 1.9607                 2.3728
 Frc consts  --      0.0214                 0.0239                 0.0334
 IR Inten    --      0.0159                 0.0508                 0.0186

                     16                     17                     18
                      A                      A                      A
 Frequencies --    168.8734               209.4972               236.3149
 Red. masses --      2.9671                 2.9284                 2.3735
 Frc consts  --      0.0499                 0.0757                 0.0781
 IR Inten    --      0.0056                 0.0097                 0.0094

                     19                     20                     21
                      A                      A                      A
 Frequencies --    237.9991               248.3048               249.5232
 Red. masses --      1.2084                 1.1299                 1.1532
 Frc consts  --      0.0403                 0.0410                 0.0423
 IR Inten    --      0.0049                 0.0013                 0.0029

                     22                     23                     24
                      A                      A                      A
 Frequencies --    261.6721               266.7811               320.7236
 Red. masses --      1.9015                 1.3937                 3.3650
 Frc consts  --      0.0767                 0.0584                 0.2039
 IR Inten    --      0.0745                 0.0077                 0.0817

                     25                     26                     27
                      A                      A                      A
 Frequencies --    324.2295               358.1996               381.8504
 Red. masses --      2.8268                 2.5797                 2.5188
 Frc consts  --      0.1751                 0.1950                 0.2164
 IR Inten    --      0.0778                 0.2111                 0.0219

                     28                     29                     30
                      A                      A                      A
 Frequencies --    402.8734               427.8098               463.2572
 Red. masses --      2.2748                 2.2144                 2.7253
 Frc consts  --      0.2175                 0.2388                 0.3446
 IR Inten    --      0.1913                 0.0903                 0.4144

                     31                     32                     33
                      A                      A                      A
 Frequencies --    503.6589               530.9525               553.5281
 Red. masses --      2.5610                 2.6606                 2.6812
 Frc consts  --      0.3828                 0.4419                 0.4840
 IR Inten    --      0.2325                 0.2892                 0.0139

                     34                     35                     36
                      A                      A                      A
 Frequencies --    728.8796               732.3670               740.4234
 Red. masses --      1.0882                 1.0737                 1.1637
 Frc consts  --      0.3406                 0.3393                 0.3759
 IR Inten    --      1.7024                 5.1528                 1.5403

                     37                     38                     39
                      A                      A                      A
 Frequencies --    754.2232               766.1752               782.8730
 Red. masses --      1.1414                 1.2316                 1.2985
 Frc consts  --      0.3825                 0.4260                 0.4689
 IR Inten    --      0.2076                 0.1110                 2.2214

                     40                     41                     42
                      A                      A                      A
 Frequencies --    819.0132               827.4805               853.7370
 Red. masses --      1.6084                 1.6069                 1.6133
 Frc consts  --      0.6357                 0.6483                 0.6928
 IR Inten    --      0.3845                 0.9358                 0.7697

                     43                     44                     45
                      A                      A                      A
 Frequencies --    886.5527               893.5813               901.3349
 Red. masses --      1.3982                 1.6228                 1.8566
 Frc consts  --      0.6475                 0.7634                 0.8887
 IR Inten    --      0.1815                 0.4200                 3.3072

                     46                     47                     48
                      A                      A                      A
 Frequencies --    914.9326               938.0937               953.3312
 Red. masses --      1.5594                 1.5618                 1.5050
 Frc consts  --      0.7691                 0.8098                 0.8059
 IR Inten    --      0.9382                 1.9341                 0.5601

                     49                     50                     51
                      A                      A                      A
 Frequencies --    975.6858              1002.6640              1005.0124
 Red. masses --      2.0618                 1.6324                 2.9320
 Frc consts  --      1.1564                 0.9669                 1.7449
 IR Inten    --      1.9604                 0.5966                 0.3884

                     52                     53                     54
                      A                      A                      A
 Frequencies --   1007.7542              1032.4323              1032.8780
 Red. masses --      2.3967                 2.6564                 1.4085
 Frc consts  --      1.4341                 1.6683                 0.8853
 IR Inten    --      0.7342                 0.9818                 0.4929

                     55                     56                     57
                      A                      A                      A
 Frequencies --   1037.7664              1052.0235              1055.0848
 Red. masses --      2.2003                 2.5556                 1.8158
 Frc consts  --      1.3961                 1.6664                 1.1910
 IR Inten    --      0.1027                 0.2308                 0.9133

                     58                     59                     60
                      A                      A                      A
 Frequencies --   1057.7046              1067.4783              1071.5029
 Red. masses --      2.0614                 2.3615                 2.3213
 Frc consts  --      1.3588                 1.5855                 1.5703
 IR Inten    --      0.2005                 0.1645                 0.0438

                     61                     62                     63
                      A                      A                      A
 Frequencies --   1076.7433              1092.0419              1098.4071
 Red. masses --      1.6694                 1.6696                 2.1066
 Frc consts  --      1.1404                 1.1731                 1.4974
 IR Inten    --      0.0158                 0.6722                 0.5185

                     64                     65                     66
                      A                      A                      A
 Frequencies --   1135.1838              1156.4041              1168.5740
 Red. masses --      2.1243                 2.8362                 2.0563
 Frc consts  --      1.6129                 2.2346                 1.6544
 IR Inten    --      1.4010                 0.3587                 0.8089

                     67                     68                     69
                      A                      A                      A
 Frequencies --   1176.7067              1196.9533              1212.8973
 Red. masses --      1.8345                 2.0375                 1.7042
 Frc consts  --      1.4966                 1.7199                 1.4771
 IR Inten    --     10.9460                 0.6982                 2.5790

                     70                     71                     72
                      A                      A                      A
 Frequencies --   1235.4103              1243.5268              1256.8286
 Red. masses --      1.4156                 1.3564                 1.3336
 Frc consts  --      1.2729                 1.2358                 1.2411
 IR Inten    --      1.3606                 1.0641                 0.3430

                     73                     74                     75
                      A                      A                      A
 Frequencies --   1262.3540              1279.3888              1293.9885
 Red. masses --      1.3399                 1.3259                 1.2185
 Frc consts  --      1.2580                 1.2787                 1.2020
 IR Inten    --      1.9438                 0.3641                 0.3392

                     76                     77                     78
                      A                      A                      A
 Frequencies --   1299.3288              1313.3309              1314.6264
 Red. masses --      1.2789                 1.2509                 1.2281
 Frc consts  --      1.2721                 1.2712                 1.2506
 IR Inten    --      0.4586                 2.9168                 0.8902

                     79                     80                     81
                      A                      A                      A
 Frequencies --   1326.4737              1329.9534              1331.5158
 Red. masses --      1.1381                 1.0957                 1.0835
 Frc consts  --      1.1799                 1.1419                 1.1318
 IR Inten    --      0.9472                 0.2008                 0.4111

                     82                     83                     84
                      A                      A                      A
 Frequencies --   1331.6627              1333.8417              1337.4777
 Red. masses --      1.1093                 1.1591                 1.2739
 Frc consts  --      1.1590                 1.2150                 1.3426
 IR Inten    --      1.6218                 0.0326                 1.4297

                     85                     86                     87
                      A                      A                      A
 Frequencies --   1354.7717              1356.3609              1372.6123
 Red. masses --      1.2418                 1.2715                 1.3834
 Frc consts  --      1.3428                 1.3782                 1.5356
 IR Inten    --      1.4126                 2.4486                 1.5179

                     88                     89                     90
                      A                      A                      A
 Frequencies --   1380.8723              1385.2304              1392.2726
 Red. masses --      1.3291                 1.4733                 1.5391
 Frc consts  --      1.4931                 1.6656                 1.7577
 IR Inten    --      2.8149                 0.3021                 0.1062

                     91                     92                     93
                      A                      A                      A
 Frequencies --   1395.3481              1398.3372              1400.8651
 Red. masses --      1.5030                 1.5225                 1.4733
 Frc consts  --      1.7241                 1.7540                 1.7035
 IR Inten    --      0.0132                 0.8940                 1.0677

                     94                     95                     96
                      A                      A                      A
 Frequencies --   1402.2099              1411.7895              1412.5169
 Red. masses --      1.5185                 1.2367                 1.2439
 Frc consts  --      1.7591                 1.4523                 1.4622
 IR Inten    --      0.1694                 0.3705                 2.6217

                     97                     98                     99
                      A                      A                      A
 Frequencies --   1413.0955              1414.6457              1474.2818
 Red. masses --      1.2477                 1.3013                 1.0782
 Frc consts  --      1.4679                 1.5343                 1.3808
 IR Inten    --      0.4385                 6.5490                 0.4543

                    100                    101                    102
                      A                      A                      A
 Frequencies --   1479.6557              1483.3546              1483.5853
 Red. masses --      1.0714                 1.0705                 1.0715
 Frc consts  --      1.3820                 1.3878                 1.3895
 IR Inten    --      0.4484                 1.0509                 0.2403

                    103                    104                    105
                      A                      A                      A
 Frequencies --   1484.4565              1486.8810              1490.8845
 Red. masses --      1.0747                 1.0739                 1.0723
 Frc consts  --      1.3953                 1.3988                 1.4043
 IR Inten    --      1.0734                 0.1718                 0.1921

                    106                    107                    108
                      A                      A                      A
 Frequencies --   1492.9015              1495.7228              1498.5929
 Red. masses --      1.0670                 1.0778                 1.0600
 Frc consts  --      1.4012                 1.4206                 1.4026
 IR Inten    --      0.3487                 0.6951                 0.4853

                    109                    110                    111
                      A                      A                      A
 Frequencies --   1499.8303              1499.8363              1502.7729
 Red. masses --      1.0404                 1.0407                 1.0563
 Frc consts  --      1.3789                 1.3793                 1.4055
 IR Inten    --      3.6354                 6.3113                 6.8825

                    112                    113                    114
                      A                      A                      A
 Frequencies --   1503.3425              1507.6006              1509.3892
 Red. masses --      1.0752                 1.0651                 1.0589
 Frc consts  --      1.4317                 1.4263                 1.4214
 IR Inten    --      0.7416                 0.5878                 4.7592

                    115                    116                    117
                      A                      A                      A
 Frequencies --   1511.0048              1513.5396              1514.7034
 Red. masses --      1.0809                 1.0848                 1.0878
 Frc consts  --      1.4540                 1.4642                 1.4705
 IR Inten    --      4.7672                 1.0412                 6.9589

                    118                    119                    120
                      A                      A                      A
 Frequencies --   2978.2781              2980.4893              2993.0227
 Red. masses --      1.0802                 1.0801                 1.0589
 Frc consts  --      5.6453                 5.6531                 5.5890
 IR Inten    --      4.2333                 6.4346                 0.1241

                    121                    122                    123
                      A                      A                      A
 Frequencies --   2994.5302              2998.3140              2999.6227
 Red. masses --      1.0598                 1.0597                 1.0590
 Frc consts  --      5.5994                 5.6128                 5.6143
 IR Inten    --      8.4256                 4.1728                 6.4660

                    124                    125                    126
                      A                      A                      A
 Frequencies --   3002.9657              3004.6592              3007.6412
 Red. masses --      1.0639                 1.0622                 1.0622
 Frc consts  --      5.6527                 5.6500                 5.6614
 IR Inten    --      2.2699                 5.5256                16.9324

                    127                    128                    129
                      A                      A                      A
 Frequencies --   3010.1469              3015.0304              3015.4903
 Red. masses --      1.0648                 1.0661                 1.0640
 Frc consts  --      5.6845                 5.7099                 5.7002
 IR Inten    --      9.3726                19.2627                44.7279

                    130                    131                    132
                      A                      A                      A
 Frequencies --   3018.3026              3023.1195              3024.6234
 Red. masses --      1.0641                 1.0917                 1.0970
 Frc consts  --      5.7118                 5.8783                 5.9131
 IR Inten    --    154.0410                 8.8572                 2.1150

                    133                    134                    135
                      A                      A                      A
 Frequencies --   3027.2359              3027.5522              3028.0207
 Red. masses --      1.0356                 1.0361                 1.0604
 Frc consts  --      5.5918                 5.5955                 5.7287
 IR Inten    --     47.1236                41.1102                16.8947

                    136                    137                    138
                      A                      A                      A
 Frequencies --   3028.2454              3029.9137              3031.2624
 Red. masses --      1.0810                 1.0451                 1.0876
 Frc consts  --      5.8404                 5.6527                 5.8880
 IR Inten    --      8.4788                20.0204                12.3894

                    139                    140                    141
                      A                      A                      A
 Frequencies --   3034.9865              3044.8510              3048.0804
 Red. masses --      1.0907                 1.1024                 1.1011
 Frc consts  --      5.9191                 6.0217                 6.0273
 IR Inten    --     21.4280                 1.8930                 0.4932

                    142                    143                    144
                      A                      A                      A
 Frequencies --   3055.7091              3063.5173              3064.0358
 Red. masses --      1.0986                 1.1033                 1.0951
 Frc consts  --      6.0441                 6.1006                 6.0574
 IR Inten    --     33.1265                62.6430                10.0036

                    145                    146                    147
                      A                      A                      A
 Frequencies --   3069.4964              3093.6790              3093.9694
 Red. masses --      1.1023                 1.1020                 1.1010
 Frc consts  --      6.1189                 6.2142                 6.2098
 IR Inten    --    162.9763                58.8747                23.4023

                    148                    149                    150
                      A                      A                      A
 Frequencies --   3094.6556              3096.7117              3098.9296
 Red. masses --      1.1020                 1.0951                 1.1009
 Frc consts  --      6.2183                 6.1876                 6.2293
 IR Inten    --     72.7515                32.4122                44.0125

                    151                    152                    153
                      A                      A                      A
 Frequencies --   3099.1470              3105.1922              3110.8416
 Red. masses --      1.1009                 1.1006                 1.1003
 Frc consts  --      6.2299                 6.2526                 6.2738
 IR Inten    --     36.1908                55.2488                43.0667

 - Thermochemistry -
 -------------------
 Temperature   298.150 Kelvin.  Pressure   1.00000 Atm.
 Atom     1 has atomic number  6 and mass  12.00000

 Molecular mass:   240.28170 amu.
 Principal axes and moments of inertia in atomic units:
                           1         2         3
     Eigenvalues --  1498.06638********************
           X            1.00000   0.00111   0.00021
           Y           -0.00111   0.99998   0.00540
           Z           -0.00020  -0.00540   0.99999
 This molecule is an asymmetric top.
 Rotational symmetry number  1.
 Warning -- assumption of classical behavior for rotation
           may cause significant error
 Rotational temperatures (Kelvin)      0.05782     0.00414     0.00397
 Rotational constants (GHZ):           1.20471     0.08618     0.08271
 Zero-point vibrational energy    1312551.3 (Joules/Mol)
                                  313.70730 (Kcal/Mol)
 Warning -- explicit consideration of  33 degrees of freedom as
           vibrations may cause significant error
 Vibrational temperatures:     19.73    27.65    47.91    56.52    77.11
          (Kelvin)             93.60   104.78   121.05   145.98   155.96
                              163.96   185.70   191.07   206.93   222.47
                              242.97   301.42   340.00   342.43   357.26
                              359.01   376.49   383.84   461.45   466.49
                              515.37   549.40   579.64   615.52   666.52
                              724.65   763.92   796.40  1048.70  1053.71
                             1065.30  1085.16  1102.36  1126.38  1178.38
                             1190.56  1228.34  1275.55  1285.66  1296.82
                             1316.38  1349.71  1371.63  1403.79  1442.61
                             1445.99  1449.93  1485.44  1486.08  1493.11
                             1513.63  1518.03  1521.80  1535.86  1541.65
                             1549.19  1571.20  1580.36  1633.28  1663.81
                             1681.32  1693.02  1722.15  1745.09  1777.48
                             1789.16  1808.30  1816.25  1840.76  1861.76
                             1869.44  1889.59  1891.45  1908.50  1913.51
                             1915.75  1915.97  1919.10  1924.33  1949.21
                             1951.50  1974.88  1986.77  1993.04  2003.17
                             2007.59  2011.90  2015.53  2017.47  2031.25
                             2032.30  2033.13  2035.36  2121.16  2128.89
                             2134.22  2134.55  2135.80  2139.29  2145.05
                             2147.95  2152.01  2156.14  2157.92  2157.93
                             2162.15  2162.97  2169.10  2171.67  2174.00
                             2177.65  2179.32  4285.08  4288.26  4306.29
                             4308.46  4313.91  4315.79  4320.60  4323.03
                             4327.32  4330.93  4337.96  4338.62  4342.66
                             4349.59  4351.76  4355.52  4355.97  4356.65
                             4356.97  4359.37  4361.31  4366.67  4380.86
                             4385.51  4396.48  4407.72  4408.46  4416.32
                             4451.11  4451.53  4452.52  4455.48  4458.67
                             4458.98  4467.68  4475.81

 Zero-point correction=                           0.499924 (Hartree/Particle)
 Thermal correction to Energy=                    0.523315
 Thermal correction to Enthalpy=                  0.524260
 Thermal correction to Gibbs Free Energy=         0.443756
 Sum of electronic and zero-point Energies=           -669.082532
 Sum of electronic and thermal Energies=              -669.059141
 Sum of electronic and thermal Enthalpies=            -669.058197
 Sum of electronic and thermal Free Energies=         -669.138700

                     E (Thermal)             CV                S
                      KCal/Mol        Cal/Mol-Kelvin    Cal/Mol-Kelvin
 Total                  328.385             84.252            169.434
 Electronic               0.000              0.000              0.000
 Translational            0.889              2.981             42.331
 Rotational               0.889              2.981             34.881
 Vibrational            326.608             78.290             92.222
 Vibration     1          0.593              1.986              7.384
 Vibration     2          0.593              1.986              6.713
 Vibration     3          0.594              1.983              5.622
 Vibration     4          0.594              1.981              5.295
 Vibration     5          0.596              1.976              4.680
 Vibration     6          0.597              1.971              4.298
 Vibration     7          0.599              1.967              4.075
 Vibration     8          0.601              1.960              3.792
 Vibration     9          0.604              1.948              3.426
 Vibration    10          0.606              1.943              3.297
 Vibration    11          0.607              1.938              3.200
 Vibration    12          0.612              1.924              2.960
 Vibration    13          0.613              1.921              2.905
 Vibration    14          0.616              1.909              2.752
 Vibration    15          0.620              1.898              2.614
 Vibration    16          0.625              1.881              2.448
 Vibration    17          0.642              1.826              2.048
 Vibration    18          0.655              1.785              1.830
 Vibration    19          0.656              1.782              1.818
 Vibration    20          0.662              1.766              1.743
 Vibration    21          0.662              1.764              1.734
 Vibration    22          0.669              1.743              1.651
 Vibration    23          0.672              1.734              1.617
 Vibration    24          0.706              1.634              1.306
 Vibration    25          0.709              1.627              1.289
 Vibration    26          0.733              1.558              1.130
 Vibration    27          0.751              1.509              1.032
 Vibration    28          0.768              1.464              0.952
 Vibration    29          0.789              1.410              0.866
 Vibration    30          0.821              1.332              0.757
 Vibration    31          0.859              1.242              0.649
 Vibration    32          0.886              1.182              0.585
 Vibration    33          0.909              1.132              0.537

                           ! Non-Optimized Parameters !
 Normal termination of Gaussian 16 at Mon May 22 20:32:22 2023.
