 Gaussian 16, Revision A.03,
 Gaussian 16:  ES64L-G16RevA.03 25-Dec-2016

 -----------------------------
 # opt freq b3lyp/6-31g(2df,p)
 -----------------------------

 -------------------
 Title Card Required
 -------------------
 Symbolic Z-matrix:
 Charge =  0 Multiplicity = 1

 SCF Done:  E(RB3LYP) =  -629.050552600     A.U. after   12 cycles
 SCF Done:  E(RB3LYP) =  -629.058755607     A.U. after   10 cycles
 SCF Done:  E(RB3LYP) =  -629.059598817     A.U. after    9 cycles
 SCF Done:  E(RB3LYP) =  -629.059751493     A.U. after    9 cycles
 SCF Done:  E(RB3LYP) =  -629.059870917     A.U. after    9 cycles
 SCF Done:  E(RB3LYP) =  -629.059870207     A.U. after    9 cycles
 SCF Done:  E(RB3LYP) =  -629.059969649     A.U. after    8 cycles
 SCF Done:  E(RB3LYP) =  -629.060205864     A.U. after   10 cycles
 SCF Done:  E(RB3LYP) =  -629.060289040     A.U. after    8 cycles
 SCF Done:  E(RB3LYP) =  -629.060076353     A.U. after   10 cycles
 SCF Done:  E(RB3LYP) =  -629.060458818     A.U. after    9 cycles
 SCF Done:  E(RB3LYP) =  -629.060401097     A.U. after    9 cycles
 SCF Done:  E(RB3LYP) =  -629.060483020     A.U. after    9 cycles
 SCF Done:  E(RB3LYP) =  -629.060474415     A.U. after    8 cycles
 SCF Done:  E(RB3LYP) =  -629.060495246     A.U. after    9 cycles
 SCF Done:  E(RB3LYP) =  -629.060494096     A.U. after    7 cycles
 SCF Done:  E(RB3LYP) =  -629.060499266     A.U. after    9 cycles
 SCF Done:  E(RB3LYP) =  -629.060499718     A.U. after    8 cycles
 SCF Done:  E(RB3LYP) =  -629.060500636     A.U. after    8 cycles
 Optimization completed.
    -- Stationary point found.
 Normal termination of Gaussian 16 at Wed May 24 02:20:10 2023.

 ----------------------------------------------------------------------
 #N Geom=AllCheck Guess=TCheck SCRF=Check GenChk RB3LYP/6-31G(2df,p) Fr
 eq
 ----------------------------------------------------------------------

 Structure from the checkpoint file:  "CCCCCCC1CCCqCCCCCrC1.chk"
 -------------------
 Title Card Required
 -------------------
 Charge =  0 Multiplicity = 1

                         Standard orientation:
 ---------------------------------------------------------------------
 Center     Atomic      Atomic             Coordinates (Angstroms)
 Number     Number       Type             X           Y           Z
 ---------------------------------------------------------------------
      1          6           0       -8.131981   -0.573851   -0.093749
      2          6           0       -6.747319   -1.123281    0.259981
      3          6           0       -5.601568   -0.209091   -0.187375
      4          6           0       -4.211825   -0.751382    0.162423
      5          6           0       -3.066383    0.163337   -0.285417
      6          6           0       -1.678172   -0.383945    0.067131
      7          6           0       -0.511419    0.487454   -0.410146
      8          6           0       -0.445611    1.897951    0.215975
      9          6           0        1.022584    2.302924    0.043982
     10          6           0        1.801123    1.019307    0.395678
     11          6           0        3.236459    0.992318   -0.138529
     12          6           0        4.061254   -0.211638    0.332241
     13          6           0        5.497299   -0.213263   -0.202452
     14          6           0        6.327243   -1.410997    0.272189
     15          6           0        7.760418   -1.404566   -0.266546
     16          6           0        0.888762   -0.132159   -0.118804
     17          1           0       -8.928096   -1.247822    0.238205
     18          1           0       -8.239810   -0.439195   -1.175935
     19          1           0       -8.303288    0.400728    0.377135
     20          1           0       -6.618496   -2.113864   -0.196347
     21          1           0       -6.681537   -1.280555    1.344892
     22          1           0       -5.730517    0.782671    0.268845
     23          1           0       -5.667586   -0.050733   -1.273171
     24          1           0       -4.083699   -1.743322   -0.293435
     25          1           0       -4.146796   -0.909250    1.248248
     26          1           0       -3.198963    1.154417    0.168152
     27          1           0       -3.129222    0.317632   -1.372095
     28          1           0       -1.571835   -1.389513   -0.363284
     29          1           0       -1.602696   -0.513424    1.156947
     30          1           0       -0.609654    0.614321   -1.497225
     31          1           0       -0.693474    1.842522    1.285316
     32          1           0       -1.145279    2.603192   -0.241870
     33          1           0        1.316526    3.158150    0.660869
     34          1           0        1.212638    2.578356   -1.002698
     35          1           0        1.848444    0.954048    1.491941
     36          1           0        3.749611    1.915816    0.164461
     37          1           0        3.208051    1.008241   -1.238012
     38          1           0        3.562201   -1.141819    0.028963
     39          1           0        4.083425   -0.225832    1.431256
     40          1           0        5.998936    0.717278    0.099031
     41          1           0        5.476386   -0.200103   -1.301440
     42          1           0        5.826187   -2.340389   -0.029935
     43          1           0        6.348454   -1.423452    1.370145
     44          1           0        7.771627   -1.427339   -1.362100
     45          1           0        8.327060   -2.270759    0.089639
     46          1           0        8.297762   -0.503029    0.048686
     47          1           0        0.812831   -0.936281    0.620655
     48          1           0        1.305621   -0.585405   -1.025332
 ---------------------------------------------------------------------

 SCF Done:  E(RB3LYP) =  -629.060500636     A.U. after    1 cycles

 The electronic state is 1-A.
 Alpha  occ. eigenvalues --  -10.17492 -10.17453 -10.17393 -10.17384 -10.17149
 Alpha  occ. eigenvalues --  -10.17130 -10.17127 -10.17083 -10.17081 -10.17018
 Alpha  occ. eigenvalues --  -10.17010 -10.16869 -10.16846 -10.16837 -10.16829
 Alpha  occ. eigenvalues --  -10.16695  -0.83532  -0.80132  -0.79375  -0.76995
 Alpha  occ. eigenvalues --   -0.74977  -0.72142  -0.70043  -0.68305  -0.64995
 Alpha  occ. eigenvalues --   -0.62307  -0.58984  -0.58006  -0.56976  -0.56929
 Alpha  occ. eigenvalues --   -0.55379  -0.53510  -0.47423  -0.47391  -0.46227
 Alpha  occ. eigenvalues --   -0.45820  -0.44162  -0.42706  -0.42035  -0.41645
 Alpha  occ. eigenvalues --   -0.41050  -0.40885  -0.39778  -0.39286  -0.38204
 Alpha  occ. eigenvalues --   -0.37610  -0.36839  -0.35301  -0.34995  -0.34627
 Alpha  occ. eigenvalues --   -0.34027  -0.33339  -0.33245  -0.32409  -0.32231
 Alpha  occ. eigenvalues --   -0.32052  -0.31734  -0.31509  -0.31447  -0.30731
 Alpha  occ. eigenvalues --   -0.30378  -0.29735  -0.29179  -0.28601
 Alpha virt. eigenvalues --    0.08541   0.09067   0.09507   0.09687   0.10548
 Alpha virt. eigenvalues --    0.11717   0.11959   0.12233   0.12758   0.13078
 Alpha virt. eigenvalues --    0.13724   0.14709   0.15473   0.15976   0.16191

 Mulliken charges:
               1
     1  C   -0.378995
     2  C   -0.162402
     3  C   -0.158853
     4  C   -0.177692
     5  C   -0.185269
     6  C   -0.208338
     7  C    0.046308
     8  C   -0.213807
     9  C   -0.233101
    10  C    0.050376
    11  C   -0.208815
    12  C   -0.181672
    13  C   -0.157145
    14  C   -0.163590
    15  C   -0.378828
    16  C   -0.240771
    17  H    0.109216
    18  H    0.112147
    19  H    0.112168
    20  H    0.092580
    21  H    0.092559
    22  H    0.089444
    23  H    0.089205
    24  H    0.089617
    25  H    0.089838
    26  H    0.095444
    27  H    0.088868
    28  H    0.088173
    29  H    0.086706
    30  H    0.062349
    31  H    0.088082
    32  H    0.090828
    33  H    0.087345
    34  H    0.089335
    35  H    0.062156
    36  H    0.086624
    37  H    0.086136
    38  H    0.095575
    39  H    0.088618
    40  H    0.089168
    41  H    0.089174
    42  H    0.092697
    43  H    0.092473
    44  H    0.112120
    45  H    0.109154
    46  H    0.112186
    47  H    0.091970
    48  H    0.090640
 Sum of Mulliken charges =  -0.00000

 Dipole moment (field-independent basis, Debye):
    X=             -0.0166    Y=             -0.0148    Z=              0.0315  Tot=              0.0385
 Quadrupole moment (field-independent basis, Debye-Ang):
   XX=           -109.1628   YY=           -106.4342   ZZ=           -104.6209
   XY=              0.3138   XZ=              0.3707   YZ=              0.7420

  Exact polarizability: 228.512  -1.854 158.339  -0.247  -0.511 144.928
 Approx polarizability: 237.791   0.262 234.084   0.355   0.755 235.926

                      1                      2                      3
                      A                      A                      A
 Frequencies --     12.9636                25.3679                43.0936
 Red. masses --      2.5414                 3.7034                 2.3320
 Frc consts  --      0.0003                 0.0014                 0.0026
 IR Inten    --      0.0021                 0.0006                 0.0001

                      4                      5                      6
                      A                      A                      A
 Frequencies --     45.3870                59.6074                68.7419
 Red. masses --      1.8482                 2.2561                 2.3635
 Frc consts  --      0.0022                 0.0047                 0.0066
 IR Inten    --      0.0006                 0.0013                 0.0085

                      7                      8                      9
                      A                      A                      A
 Frequencies --     75.2101               109.3834               117.9041
 Red. masses --      3.0251                 2.4909                 2.7560
 Frc consts  --      0.0101                 0.0176                 0.0226
 IR Inten    --      0.0029                 0.0070                 0.0022

                     10                     11                     12
                      A                      A                      A
 Frequencies --    131.0677               147.0258               153.4401
 Red. masses --      1.7405                 1.8312                 2.5675
 Frc consts  --      0.0176                 0.0233                 0.0356
 IR Inten    --      0.0002                 0.0004                 0.0011

                     13                     14                     15
                      A                      A                      A
 Frequencies --    169.3757               178.1720               201.8050
 Red. masses --      2.4937                 2.5761                 2.4136
 Frc consts  --      0.0421                 0.0482                 0.0579
 IR Inten    --      0.0140                 0.0004                 0.0014

                     16                     17                     18
                      A                      A                      A
 Frequencies --    246.3511               247.6601               248.6269
 Red. masses --      1.5158                 1.1287                 1.5993
 Frc consts  --      0.0542                 0.0408                 0.0582
 IR Inten    --      0.0064                 0.0012                 0.0049

                     19                     20                     21
                      A                      A                      A
 Frequencies --    275.2335               299.7383               366.7276
 Red. masses --      4.0079                 2.8127                 2.6295
 Frc consts  --      0.1789                 0.1489                 0.2084
 IR Inten    --      0.0251                 0.0330                 0.0118

                     22                     23                     24
                      A                      A                      A
 Frequencies --    402.6017               431.6927               457.5757
 Red. masses --      2.0728                 2.5365                 2.4366
 Frc consts  --      0.1980                 0.2785                 0.3006
 IR Inten    --      0.0928                 0.2460                 0.0664

                     25                     26                     27
                      A                      A                      A
 Frequencies --    470.6708               475.2014               580.6055
 Red. masses --      2.7632                 2.4633                 2.3803
 Frc consts  --      0.3607                 0.3277                 0.4728
 IR Inten    --      0.5036                 0.0846                 0.4959

                     28                     29                     30
                      A                      A                      A
 Frequencies --    620.0645               731.5994               732.4634
 Red. masses --      3.3607                 1.0636                 1.0681
 Frc consts  --      0.7613                 0.3354                 0.3376
 IR Inten    --      0.0770                 4.2794                 2.9467

                     31                     32                     33
                      A                      A                      A
 Frequencies --    742.9576               756.8854               785.1524
 Red. masses --      1.1127                 1.1418                 1.3546
 Frc consts  --      0.3619                 0.3854                 0.4920
 IR Inten    --      0.0230                 0.1060                 0.4851

                     34                     35                     36
                      A                      A                      A
 Frequencies --    811.1867               829.3526               851.6328
 Red. masses --      1.4820                 1.6806                 1.9267
 Frc consts  --      0.5746                 0.6811                 0.8233
 IR Inten    --      0.7306                 0.2303                 0.7196

                     37                     38                     39
                      A                      A                      A
 Frequencies --    874.0083               885.8637               898.1026
 Red. masses --      1.7603                 1.4808                 1.9406
 Frc consts  --      0.7922                 0.6847                 0.9222
 IR Inten    --      0.2977                 0.2709                 1.2631

                     40                     41                     42
                      A                      A                      A
 Frequencies --    903.1602               932.5859               950.8775
 Red. masses --      1.8814                 1.3991                 1.6799
 Frc consts  --      0.9042                 0.7169                 0.8949
 IR Inten    --      1.3529                 0.2862                 1.3709

                     43                     44                     45
                      A                      A                      A
 Frequencies --    968.9953               985.5450              1002.2652
 Red. masses --      1.6343                 1.3751                 2.0666
 Frc consts  --      0.9041                 0.7869                 1.2231
 IR Inten    --      0.2042                 0.6351                 0.2922

                     46                     47                     48
                      A                      A                      A
 Frequencies --   1008.2051              1013.9529              1022.1071
 Red. masses --      3.2541                 2.4830                 1.9155
 Frc consts  --      1.9488                 1.5040                 1.1790
 IR Inten    --      0.0165                 0.2166                 0.3808

                     49                     50                     51
                      A                      A                      A
 Frequencies --   1038.2993              1045.3569              1059.8229
 Red. masses --      2.2301                 2.0606                 2.2750
 Frc consts  --      1.4165                 1.3267                 1.5056
 IR Inten    --      0.0254                 0.5602                 0.0666

                     52                     53                     54
                      A                      A                      A
 Frequencies --   1062.0178              1068.2001              1071.3214
 Red. masses --      1.8912                 2.2353                 2.1535
 Frc consts  --      1.2568                 1.5028                 1.4562
 IR Inten    --      0.6118                 0.1009                 0.1933

                     55                     56                     57
                      A                      A                      A
 Frequencies --   1088.3464              1102.4724              1108.2071
 Red. masses --      1.5813                 1.7235                 1.8105
 Frc consts  --      1.1036                 1.2343                 1.3101
 IR Inten    --      0.5321                 1.1498                 1.0940

                     58                     59                     60
                      A                      A                      A
 Frequencies --   1115.2315              1148.0521              1152.5186
 Red. masses --      1.9170                 2.8219                 2.6293
 Frc consts  --      1.4047                 2.1914                 2.0577
 IR Inten    --      0.1000                 1.2327                 0.7227

                     61                     62                     63
                      A                      A                      A
 Frequencies --   1206.6907              1212.9877              1227.0500
 Red. masses --      1.7540                 1.7588                 1.5062
 Frc consts  --      1.5048                 1.5247                 1.3361
 IR Inten    --      1.1001                 0.2412                 1.3892

                     64                     65                     66
                      A                      A                      A
 Frequencies --   1237.9092              1246.0115              1260.6059
 Red. masses --      1.5466                 1.3435                 1.3307
 Frc consts  --      1.3964                 1.2289                 1.2459
 IR Inten    --      0.0325                 5.1970                 3.9719

                     67                     68                     69
                      A                      A                      A
 Frequencies --   1262.7265              1284.1950              1291.0039
 Red. masses --      1.3439                 1.3542                 1.3290
 Frc consts  --      1.2625                 1.3158                 1.3051
 IR Inten    --      4.6752                 1.1485                 0.0628

                     70                     71                     72
                      A                      A                      A
 Frequencies --   1297.7567              1303.8675              1313.8465
 Red. masses --      1.2839                 1.2527                 1.2497
 Frc consts  --      1.2740                 1.2548                 1.2710
 IR Inten    --      0.2073                 0.0132                 0.0541

                     73                     74                     75
                      A                      A                      A
 Frequencies --   1320.4313              1328.8035              1329.6493
 Red. masses --      1.1941                 1.0855                 1.0963
 Frc consts  --      1.2266                 1.1293                 1.1420
 IR Inten    --      0.1916                 0.5011                 0.0982

                     76                     77                     78
                      A                      A                      A
 Frequencies --   1330.7025              1332.6963              1337.2846
 Red. masses --      1.0968                 1.1906                 1.1690
 Frc consts  --      1.1443                 1.2458                 1.2317
 IR Inten    --      0.3293                 0.4589                 1.9102

                     79                     80                     81
                      A                      A                      A
 Frequencies --   1339.5179              1345.9354              1357.8004
 Red. masses --      1.2437                 1.2831                 1.3036
 Frc consts  --      1.3148                 1.3695                 1.4160
 IR Inten    --      0.3217                 3.2979                 2.1187

                     82                     83                     84
                      A                      A                      A
 Frequencies --   1368.1958              1379.7539              1387.7286
 Red. masses --      1.3807                 1.4477                 1.4851
 Frc consts  --      1.5229                 1.6238                 1.6851
 IR Inten    --      1.2641                 2.9773                 2.3646

                     85                     86                     87
                      A                      A                      A
 Frequencies --   1396.6190              1399.6566              1400.5585
 Red. masses --      1.5663                 1.5881                 1.6197
 Frc consts  --      1.8000                 1.8330                 1.8720
 IR Inten    --      0.6690                 0.1158                 1.4382

                     88                     89                     90
                      A                      A                      A
 Frequencies --   1400.7429              1412.9955              1413.2474
 Red. masses --      1.6144                 1.2551                 1.2555
 Frc consts  --      1.8663                 1.4764                 1.4774
 IR Inten    --      0.3359                 0.5221                 0.5940

                     91                     92                     93
                      A                      A                      A
 Frequencies --   1479.6555              1480.6106              1482.9327
 Red. masses --      1.0774                 1.0765                 1.0715
 Frc consts  --      1.3897                 1.3904                 1.3883
 IR Inten    --      0.1337                 0.4145                 0.0705

                     94                     95                     96
                      A                      A                      A
 Frequencies --   1483.3798              1485.9309              1489.3586
 Red. masses --      1.0702                 1.0733                 1.0792
 Frc consts  --      1.3874                 1.3963                 1.4104
 IR Inten    --      0.1391                 0.1879                 1.1796

                     97                     98                     99
                      A                      A                      A
 Frequencies --   1490.5340              1493.0233              1495.8319
 Red. masses --      1.0810                 1.0846                 1.0775
 Frc consts  --      1.4151                 1.4245                 1.4204
 IR Inten    --      1.6780                 0.6262                 1.0810

                    100                    101                    102
                      A                      A                      A
 Frequencies --   1499.7699              1499.8148              1502.9785
 Red. masses --      1.0403                 1.0403                 1.0861
 Frc consts  --      1.3787                 1.3788                 1.4455
 IR Inten    --      4.7865                 4.9469                 0.1520

                    103                    104                    105
                      A                      A                      A
 Frequencies --   1505.7649              1507.7894              1514.0307
 Red. masses --      1.0896                 1.0929                 1.0924
 Frc consts  --      1.4555                 1.4639                 1.4754
 IR Inten    --      0.0811                 0.1685                 3.2193

                    106                    107                    108
                      A                      A                      A
 Frequencies --   1514.9131              2990.4601              2992.3117
 Red. masses --      1.0945                 1.0752                 1.0660
 Frc consts  --      1.4799                 5.6653                 5.6236
 IR Inten    --      2.5622                 8.9186                 0.5212

                    109                    110                    111
                      A                      A                      A
 Frequencies --   2995.2871              2996.7853              2998.6392
 Red. masses --      1.0643                 1.0718                 1.0582
 Frc consts  --      5.6259                 5.6714                 5.6059
 IR Inten    --      9.0472                 4.5997                 0.6345

                    112                    113                    114
                      A                      A                      A
 Frequencies --   2998.9111              3000.5001              3006.2005
 Red. masses --      1.0583                 1.0607                 1.0612
 Frc consts  --      5.6079                 5.6262                 5.6505
 IR Inten    --      2.8795                 0.3729                 9.2277

                    115                    116                    117
                      A                      A                      A
 Frequencies --   3009.1486              3011.0048              3015.1640
 Red. masses --      1.0635                 1.0697                 1.0623
 Frc consts  --      5.6736                 5.7142                 5.6902
 IR Inten    --     23.7648                 6.4469                47.5220

                    118                    119                    120
                      A                      A                      A
 Frequencies --   3015.7618              3017.9690              3019.2022
 Red. masses --      1.0622                 1.0683                 1.0945
 Frc consts  --      5.6919                 5.7327                 5.8782
 IR Inten    --     88.1432                78.8420                 3.8242

                    121                    122                    123
                      A                      A                      A
 Frequencies --   3020.7955              3024.5005              3026.8623
 Red. masses --      1.0904                 1.0956                 1.0999
 Frc consts  --      5.8625                 5.9049                 5.9374
 IR Inten    --     23.3633                13.0023                 6.2504

                    124                    125                    126
                      A                      A                      A
 Frequencies --   3027.5016              3027.5443              3032.7162
 Red. masses --      1.0358                 1.0358                 1.0799
 Frc consts  --      5.5934                 5.5935                 5.8519
 IR Inten    --     68.3628                18.4543                11.2124

                    127                    128                    129
                      A                      A                      A
 Frequencies --   3034.7913              3043.8480              3050.0887
 Red. masses --      1.0846                 1.1027                 1.1040
 Frc consts  --      5.8854                 6.0193                 6.0510
 IR Inten    --     22.0971                 2.0041                 0.5479

                    130                    131                    132
                      A                      A                      A
 Frequencies --   3060.1519              3062.7219              3071.6785
 Red. masses --      1.1044                 1.1046                 1.1025
 Frc consts  --      6.0935                 6.1048                 6.1287
 IR Inten    --     78.4285               120.9817                29.2461

                    133                    134                    135
                      A                      A                      A
 Frequencies --   3076.6891              3083.8000              3093.5902
 Red. masses --      1.0961                 1.0981                 1.1020
 Frc consts  --      6.1134                 6.1528                 6.2139
 IR Inten    --     65.7714                57.7602                 6.0853

                    136                    137                    138
                      A                      A                      A
 Frequencies --   3093.6119              3098.8482              3098.9012
 Red. masses --      1.1020                 1.1010                 1.1009
 Frc consts  --      6.2139                 6.2290                 6.2292
 IR Inten    --    115.0472                29.4902                50.6409

 - Thermochemistry -
 -------------------
 Temperature   298.150 Kelvin.  Pressure   1.00000 Atm.
 Atom     1 has atomic number  6 and mass  12.00000

 Molecular mass:   224.25040 amu.
 Principal axes and moments of inertia in atomic units:
                           1         2         3
     Eigenvalues --  1137.04841********************
           X            1.00000  -0.00137  -0.00042
           Y            0.00137   0.99999  -0.00402
           Z            0.00042   0.00402   0.99999
 This molecule is an asymmetric top.
 Rotational symmetry number  1.
 Warning -- assumption of classical behavior for rotation
           may cause significant error
 Rotational temperatures (Kelvin)      0.07617     0.00494     0.00471
 Rotational constants (GHZ):           1.58722     0.10292     0.09814
 Zero-point vibrational energy    1185244.0 (Joules/Mol)
                                  283.28011 (Kcal/Mol)
 Warning -- explicit consideration of  28 degrees of freedom as
           vibrations may cause significant error
 Vibrational temperatures:     18.65    36.50    62.00    65.30    85.76
          (Kelvin)             98.90   108.21   157.38   169.64   188.58
                              211.54   220.77   243.69   256.35   290.35
                              354.44   356.33   357.72   396.00   431.26
                              527.64   579.25   621.11   658.35   677.19
                              683.71   835.36   892.13  1052.61  1053.85
                             1068.95  1088.99  1129.66  1167.12  1193.25
                             1225.31  1257.50  1274.56  1292.17  1299.45
                             1341.78  1368.10  1394.17  1417.98  1442.04
                             1450.58  1458.85  1470.58  1493.88  1504.04
                             1524.85  1528.01  1536.90  1541.39  1565.89
                             1586.21  1594.46  1604.57  1651.79  1658.22
                             1736.16  1745.22  1765.45  1781.08  1792.73
                             1813.73  1816.78  1847.67  1857.47  1867.18
                             1875.97  1890.33  1899.81  1911.85  1913.07
                             1914.58  1917.45  1924.05  1927.27  1936.50
                             1953.57  1968.53  1985.16  1996.63  2009.42
                             2013.79  2015.09  2015.36  2032.99  2033.35
                             2128.89  2130.27  2133.61  2134.25  2137.92
                             2142.85  2144.55  2148.13  2152.17  2157.83
                             2157.90  2162.45  2166.46  2169.37  2178.35
                             2179.62  4302.61  4305.27  4309.55  4311.71
                             4314.37  4314.76  4317.05  4325.25  4329.49
                             4332.16  4338.15  4339.01  4342.18  4343.96
                             4346.25  4351.58  4354.98  4355.90  4355.96
                             4363.40  4366.39  4379.42  4388.40  4402.88
                             4406.57  4419.46  4426.67  4436.90  4450.99
                             4451.02  4458.55  4458.63

 Zero-point correction=                           0.451436 (Hartree/Particle)
 Thermal correction to Energy=                    0.471573
 Thermal correction to Enthalpy=                  0.472517
 Thermal correction to Gibbs Free Energy=         0.399523
 Sum of electronic and zero-point Energies=           -628.609065
 Sum of electronic and thermal Energies=              -628.588927
 Sum of electronic and thermal Enthalpies=            -628.587983
 Sum of electronic and thermal Free Energies=         -628.660978

                     E (Thermal)             CV                S
                      KCal/Mol        Cal/Mol-Kelvin    Cal/Mol-Kelvin
 Total                  295.917             73.720            153.630
 Electronic               0.000              0.000              0.000
 Translational            0.889              2.981             42.125
 Rotational               0.889              2.981             34.260
 Vibrational            294.139             67.758             77.245
 Vibration     1          0.593              1.987              7.495
 Vibration     2          0.593              1.985              6.162
 Vibration     3          0.595              1.980              5.112
 Vibration     4          0.595              1.979              5.009
 Vibration     5          0.597              1.974              4.470
 Vibration     6          0.598              1.969              4.189
 Vibration     7          0.599              1.966              4.012
 Vibration     8          0.606              1.942              3.280
 Vibration     9          0.608              1.934              3.134
 Vibration    10          0.612              1.922              2.930
 Vibration    11          0.617              1.906              2.710
 Vibration    12          0.619              1.899              2.629
 Vibration    13          0.625              1.880              2.442
 Vibration    14          0.629              1.869              2.347
 Vibration    15          0.639              1.837              2.117
 Vibration    16          0.661              1.769              1.757
 Vibration    17          0.661              1.767              1.747
 Vibration    18          0.662              1.765              1.740
 Vibration    19          0.677              1.719              1.563
 Vibration    20          0.692              1.674              1.418
 Vibration    21          0.740              1.541              1.093
 Vibration    22          0.768              1.465              0.953
 Vibration    23          0.793              1.401              0.853
 Vibration    24          0.816              1.344              0.773
 Vibration    25          0.828              1.315              0.736
 Vibration    26          0.832              1.305              0.723
 Vibration    27          0.937              1.073              0.484
 Vibration    28          0.980              0.990              0.416

                           ! Non-Optimized Parameters !
 Normal termination of Gaussian 16 at Wed May 24 06:27:33 2023.
