 Gaussian 16, Revision A.03,
 Gaussian 16:  ES64L-G16RevA.03 25-Dec-2016

 -----------------------------
 # opt freq b3lyp/6-31g(2df,p)
 -----------------------------

 -------------------
 Title Card Required
 -------------------
 Symbolic Z-matrix:
 Charge =  0 Multiplicity = 1

 SCF Done:  E(RB3LYP) =  -745.756836107     A.U. after   12 cycles
 SCF Done:  E(RB3LYP) =  -745.771544369     A.U. after   10 cycles
 SCF Done:  E(RB3LYP) =  -745.774620408     A.U. after   10 cycles
 SCF Done:  E(RB3LYP) =  -745.776693622     A.U. after   10 cycles
 SCF Done:  E(RB3LYP) =  -745.778093047     A.U. after   12 cycles
 SCF Done:  E(RB3LYP) =  -745.779204793     A.U. after    9 cycles
 SCF Done:  E(RB3LYP) =  -745.779583977     A.U. after    9 cycles
 SCF Done:  E(RB3LYP) =  -745.779653054     A.U. after    8 cycles
 SCF Done:  E(RB3LYP) =  -745.779682549     A.U. after    8 cycles
 SCF Done:  E(RB3LYP) =  -745.779745635     A.U. after    9 cycles
 SCF Done:  E(RB3LYP) =  -745.779856508     A.U. after    9 cycles
 SCF Done:  E(RB3LYP) =  -745.779868721     A.U. after    9 cycles
 SCF Done:  E(RB3LYP) =  -745.779872912     A.U. after    8 cycles
 SCF Done:  E(RB3LYP) =  -745.779870514     A.U. after    8 cycles
 SCF Done:  E(RB3LYP) =  -745.779875581     A.U. after    8 cycles
 SCF Done:  E(RB3LYP) =  -745.779875682     A.U. after    8 cycles
 SCF Done:  E(RB3LYP) =  -745.779875898     A.U. after    6 cycles
 SCF Done:  E(RB3LYP) =  -745.779876101     A.U. after    6 cycles
 SCF Done:  E(RB3LYP) =  -745.779876366     A.U. after    6 cycles
 Optimization completed.
    -- Stationary point found.
 Normal termination of Gaussian 16 at Tue May 23 23:08:24 2023.

 ----------------------------------------------------------------------
 #N Geom=AllCheck Guess=TCheck SCRF=Check GenChk RB3LYP/6-31G(2df,p) Fr
 eq
 ----------------------------------------------------------------------

 Structure from the checkpoint file:  "CCCCCC1CCCqC2CCCCqCrCqCrC2rC1.chk"
 -------------------
 Title Card Required
 -------------------
 Charge =  0 Multiplicity = 1

                         Standard orientation:
 ---------------------------------------------------------------------
 Center     Atomic      Atomic             Coordinates (Angstroms)
 Number     Number       Type             X           Y           Z
 ---------------------------------------------------------------------
      1          6           0       -7.703471   -1.407815   -0.085888
      2          6           0       -6.366253   -0.921294    0.479341
      3          6           0       -5.417864   -0.378122   -0.594864
      4          6           0       -4.074881    0.108593   -0.037747
      5          6           0       -3.148487    0.668171   -1.126171
      6          6           0       -1.738298    1.091227   -0.680488
      7          6           0       -1.653241    2.128185    0.456560
      8          6           0       -0.178158    2.063764    0.871730
      9          6           0        0.146691    0.550570    0.864967
     10          6           0        1.651414    0.196029    0.744959
     11          6           0        1.870430   -1.269786    1.163321
     12          6           0        3.311956   -1.799840    1.128936
     13          6           0        3.877690   -1.964065   -0.292022
     14          6           0        4.496031   -0.723219   -0.989670
     15          6           0        6.013438   -0.658618   -0.750911
     16          6           0        3.795985    0.648106   -0.727862
     17          6           0        4.393132    1.485774    0.419460
     18          6           0        2.251026    0.548743   -0.634291
     19          6           0       -0.808843   -0.060833   -0.209268
     20          1           0       -8.358365   -1.788937    0.704103
     21          1           0       -7.555920   -2.213909   -0.813419
     22          1           0       -8.235487   -0.597489   -0.596970
     23          1           0       -5.873370   -1.744152    1.014264
     24          1           0       -6.547977   -0.140254    1.229700
     25          1           0       -5.910711    0.446319   -1.129502
     26          1           0       -5.238190   -1.158553   -1.347815
     27          1           0       -3.585482   -0.722374    0.487198
     28          1           0       -4.263788    0.877222    0.722428
     29          1           0       -3.642671    1.531517   -1.592845
     30          1           0       -3.047616   -0.081449   -1.923704
     31          1           0       -1.261173    1.551823   -1.556890
     32          1           0       -2.287529    1.828788    1.300000
     33          1           0       -1.976164    3.126979    0.144900
     34          1           0        0.021635    2.522474    1.845402
     35          1           0        0.431518    2.600547    0.134657
     36          1           0       -0.173969    0.163989    1.841161
     37          1           0        2.157374    0.823008    1.491150
     38          1           0        1.256079   -1.919120    0.522513
     39          1           0        1.474224   -1.392678    2.179872
     40          1           0        3.310611   -2.785491    1.610528
     41          1           0        3.968830   -1.173498    1.744923
     42          1           0        3.069963   -2.361716   -0.919565
     43          1           0        4.645203   -2.747311   -0.282470
     44          1           0        4.366583   -0.908064   -2.064815
     45          1           0        6.258303   -0.570351    0.313021
     46          1           0        6.468772    0.193174   -1.267735
     47          1           0        6.496559   -1.567550   -1.124304
     48          1           0        3.991392    1.233578   -1.637060
     49          1           0        4.388317    0.968845    1.382574
     50          1           0        3.822454    2.412955    0.544199
     51          1           0        5.427166    1.768315    0.206346
     52          1           0        1.898802   -0.164154   -1.390625
     53          1           0        1.850843    1.522656   -0.939046
     54          1           0       -1.390008   -0.880337    0.224330
     55          1           0       -0.265987   -0.488224   -1.057063
 ---------------------------------------------------------------------

 SCF Done:  E(RB3LYP) =  -745.779876366     A.U. after    1 cycles

 The electronic state is 1-A.
 Alpha  occ. eigenvalues --  -10.17917 -10.17772 -10.17486 -10.17397 -10.17388
 Alpha  occ. eigenvalues --  -10.17332 -10.17162 -10.17110 -10.17086 -10.17065
 Alpha  occ. eigenvalues --  -10.16883 -10.16841 -10.16840 -10.16830 -10.16782
 Alpha  occ. eigenvalues --  -10.16755 -10.16569 -10.16540 -10.16532  -0.83845
 Alpha  occ. eigenvalues --   -0.81972  -0.79519  -0.77515  -0.76159  -0.74747
 Alpha  occ. eigenvalues --   -0.71184  -0.70180  -0.68123  -0.67608  -0.64998
 Alpha  occ. eigenvalues --   -0.61686  -0.61428  -0.59779  -0.57201  -0.55862
 Alpha  occ. eigenvalues --   -0.54305  -0.52642  -0.50881  -0.47833  -0.47224
 Alpha  occ. eigenvalues --   -0.46658  -0.45312  -0.45219  -0.43538  -0.42902
 Alpha  occ. eigenvalues --   -0.42080  -0.41679  -0.41316  -0.40716  -0.40239
 Alpha  occ. eigenvalues --   -0.39651  -0.38254  -0.37966  -0.37694  -0.37267
 Alpha  occ. eigenvalues --   -0.36614  -0.35793  -0.35420  -0.35042  -0.34247
 Alpha  occ. eigenvalues --   -0.33812  -0.33087  -0.32913  -0.32633  -0.32172
 Alpha  occ. eigenvalues --   -0.31585  -0.30957  -0.30290  -0.30065  -0.29833
 Alpha  occ. eigenvalues --   -0.29691  -0.29017  -0.28750  -0.28346  -0.27951
 Alpha virt. eigenvalues --    0.07183   0.08531   0.08688   0.09535   0.09835
 Alpha virt. eigenvalues --    0.10934   0.11392   0.11843   0.12486   0.13111
 Alpha virt. eigenvalues --    0.13333   0.13734   0.14463   0.15280   0.15421

 Mulliken charges:
               1
     1  C   -0.378592
     2  C   -0.166354
     3  C   -0.151815
     4  C   -0.177839
     5  C   -0.227576
     6  C    0.040208
     7  C   -0.220174
     8  C   -0.249312
     9  C    0.039773
    10  C    0.007868
    11  C   -0.194777
    12  C   -0.215098
    13  C   -0.196527
    14  C    0.034269
    15  C   -0.401762
    16  C    0.020040
    17  C   -0.402775
    18  C   -0.234122
    19  C   -0.238389
    20  H    0.109201
    21  H    0.112244
    22  H    0.112258
    23  H    0.092555
    24  H    0.092600
    25  H    0.089438
    26  H    0.089357
    27  H    0.093930
    28  H    0.095085
    29  H    0.087550
    30  H    0.088188
    31  H    0.062673
    32  H    0.094182
    33  H    0.085604
    34  H    0.086226
    35  H    0.095435
    36  H    0.061505
    37  H    0.067162
    38  H    0.091976
    39  H    0.083506
    40  H    0.088743
    41  H    0.093121
    42  H    0.087325
    43  H    0.084205
    44  H    0.068843
    45  H    0.115555
    46  H    0.108121
    47  H    0.106257
    48  H    0.066580
    49  H    0.120671
    50  H    0.107708
    51  H    0.109788
    52  H    0.089524
    53  H    0.089120
    54  H    0.092733
    55  H    0.093985
 Sum of Mulliken charges =  -0.00000

 Dipole moment (field-independent basis, Debye):
    X=              0.0333    Y=              0.0278    Z=             -0.0538  Tot=              0.0692
 Quadrupole moment (field-independent basis, Debye-Ang):
   XX=           -126.6140   YY=           -124.1469   ZZ=           -123.8923
   XY=             -0.3751   XZ=             -0.8017   YZ=             -0.3404

  Exact polarizability: 250.126  -0.315 187.149  -3.021  -0.495 172.368
 Approx polarizability: 283.608  -0.402 279.972  -1.262   0.212 276.950

                      1                      2                      3
                      A                      A                      A
 Frequencies --     11.2775                28.7962                41.9724
 Red. masses --      3.4392                 3.5134                 1.6444
 Frc consts  --      0.0003                 0.0017                 0.0017
 IR Inten    --      0.0008                 0.0014                 0.0071

                      4                      5                      6
                      A                      A                      A
 Frequencies --     47.8589                64.9125                77.3867
 Red. masses --      3.1822                 2.6870                 3.1753
 Frc consts  --      0.0043                 0.0067                 0.0112
 IR Inten    --      0.0078                 0.0072                 0.0028

                      7                      8                      9
                      A                      A                      A
 Frequencies --     94.2982               117.2310               133.9995
 Red. masses --      2.5146                 2.8601                 1.8111
 Frc consts  --      0.0132                 0.0232                 0.0192
 IR Inten    --      0.0030                 0.0152                 0.0008

                     10                     11                     12
                      A                      A                      A
 Frequencies --    143.3076               167.2590               194.5978
 Red. masses --      2.8162                 2.5987                 2.5461
 Frc consts  --      0.0341                 0.0428                 0.0568
 IR Inten    --      0.0172                 0.0330                 0.0820

                     13                     14                     15
                      A                      A                      A
 Frequencies --    216.0637               232.1990               247.9076
 Red. masses --      2.6817                 2.3256                 1.1302
 Frc consts  --      0.0738                 0.0739                 0.0409
 IR Inten    --      0.0147                 0.0492                 0.0024

                     16                     17                     18
                      A                      A                      A
 Frequencies --    256.3641               269.5277               278.6990
 Red. masses --      1.4949                 2.3678                 1.6016
 Frc consts  --      0.0579                 0.1013                 0.0733
 IR Inten    --      0.0962                 0.0550                 0.0341

                     19                     20                     21
                      A                      A                      A
 Frequencies --    287.3520               299.4154               325.5021
 Red. masses --      1.8354                 1.4036                 2.3328
 Frc consts  --      0.0893                 0.0741                 0.1456
 IR Inten    --      0.0626                 0.0380                 0.0441

                     22                     23                     24
                      A                      A                      A
 Frequencies --    333.7723               342.2339               388.3824
 Red. masses --      2.4424                 2.9798                 1.8122
 Frc consts  --      0.1603                 0.2056                 0.1611
 IR Inten    --      0.0074                 0.0621                 0.0213

                     25                     26                     27
                      A                      A                      A
 Frequencies --    397.5200               407.2939               410.4763
 Red. masses --      2.4339                 3.0080                 2.6083
 Frc consts  --      0.2266                 0.2940                 0.2589
 IR Inten    --      0.2964                 0.0970                 0.1467

                     28                     29                     30
                      A                      A                      A
 Frequencies --    459.5625               485.5883               506.8405
 Red. masses --      1.6886                 2.0704                 2.6227
 Frc consts  --      0.2101                 0.2876                 0.3970
 IR Inten    --      0.2999                 3.0218                 0.5196

                     31                     32                     33
                      A                      A                      A
 Frequencies --    557.2034               611.3535               626.6353
 Red. masses --      2.5655                 3.1613                 2.2304
 Frc consts  --      0.4693                 0.6961                 0.5160
 IR Inten    --      0.1883                 0.5827                 0.2243

                     34                     35                     36
                      A                      A                      A
 Frequencies --    650.1223               703.2007               730.8745
 Red. masses --      2.5944                 2.8844                 1.0768
 Frc consts  --      0.6461                 0.8403                 0.3389
 IR Inten    --      0.5743                 0.1337                 3.4368

                     37                     38                     39
                      A                      A                      A
 Frequencies --    752.3980               802.4959               805.0716
 Red. masses --      1.1571                 2.1236                 1.8855
 Frc consts  --      0.3859                 0.8058                 0.7200
 IR Inten    --      0.1161                 0.9275                 1.4129

                     40                     41                     42
                      A                      A                      A
 Frequencies --    823.7087               830.0259               835.6233
 Red. masses --      2.7636                 2.1255                 1.5666
 Frc consts  --      1.1048                 0.8628                 0.6445
 IR Inten    --      0.4697                 0.4849                 0.6471

                     43                     44                     45
                      A                      A                      A
 Frequencies --    845.9495               868.7768               878.5511
 Red. masses --      1.6901                 2.0208                 1.9628
 Frc consts  --      0.7126                 0.8987                 0.8926
 IR Inten    --      0.7567                 0.5562                 1.5879

                     46                     47                     48
                      A                      A                      A
 Frequencies --    901.1720               934.7252               940.4555
 Red. masses --      1.9199                 1.9384                 1.7374
 Frc consts  --      0.9186                 0.9978                 0.9054
 IR Inten    --      1.4844                 0.4628                 0.9567

                     49                     50                     51
                      A                      A                      A
 Frequencies --    948.2376               957.7975               960.9971
 Red. masses --      1.6888                 1.6996                 1.9166
 Frc consts  --      0.8947                 0.9186                 1.0428
 IR Inten    --      1.8482                 1.5419                 0.3691

                     52                     53                     54
                      A                      A                      A
 Frequencies --    974.6699               977.8855               997.9164
 Red. masses --      1.5140                 1.6861                 1.5418
 Frc consts  --      0.8474                 0.9500                 0.9046
 IR Inten    --      1.4133                 0.4624                 0.7245

                     55                     56                     57
                      A                      A                      A
 Frequencies --   1013.1802              1018.0321              1024.4191
 Red. masses --      1.7433                 2.3563                 2.1998
 Frc consts  --      1.0544                 1.4388                 1.3601
 IR Inten    --      2.1274                 0.3798                 0.7036

                     58                     59                     60
                      A                      A                      A
 Frequencies --   1030.8291              1040.4303              1052.4100
 Red. masses --      2.2763                 1.6618                 1.7999
 Frc consts  --      1.4251                 1.0599                 1.1745
 IR Inten    --      0.5555                 1.3261                 0.7615

                     61                     62                     63
                      A                      A                      A
 Frequencies --   1065.3620              1068.5311              1072.2783
 Red. masses --      2.1732                 2.2771                 1.5287
 Frc consts  --      1.4532                 1.5318                 1.0356
 IR Inten    --      0.4800                 0.2285                 0.6853

                     64                     65                     66
                      A                      A                      A
 Frequencies --   1089.0723              1105.9036              1116.2950
 Red. masses --      2.0008                 2.0054                 1.8295
 Frc consts  --      1.3982                 1.4451                 1.3432
 IR Inten    --      0.8670                 1.1614                 0.8150

                     67                     68                     69
                      A                      A                      A
 Frequencies --   1118.1668              1128.4593              1155.9464
 Red. masses --      2.0049                 2.3678                 1.8582
 Frc consts  --      1.4769                 1.7765                 1.4629
 IR Inten    --      1.2979                 0.5048                 3.5518

                     70                     71                     72
                      A                      A                      A
 Frequencies --   1174.6658              1183.3380              1193.1395
 Red. masses --      1.9000                 1.7107                 1.8077
 Frc consts  --      1.5446                 1.4113                 1.5162
 IR Inten    --      0.7721                 1.0606                 0.8260

                     73                     74                     75
                      A                      A                      A
 Frequencies --   1198.4055              1218.3834              1235.1014
 Red. masses --      1.5928                 1.8198                 1.4953
 Frc consts  --      1.3478                 1.5916                 1.3439
 IR Inten    --      0.4270                 0.4762                 1.2465

                     76                     77                     78
                      A                      A                      A
 Frequencies --   1243.6558              1251.3026              1267.4798
 Red. masses --      1.3402                 1.3335                 1.3475
 Frc consts  --      1.2213                 1.2302                 1.2754
 IR Inten    --      1.9211                 1.0235                 1.5809

                     79                     80                     81
                      A                      A                      A
 Frequencies --   1278.2891              1286.9211              1289.9444
 Red. masses --      1.2012                 1.3317                 1.3902
 Frc consts  --      1.1565                 1.2995                 1.3629
 IR Inten    --      1.1612                 1.3542                 4.9427

                     82                     83                     84
                      A                      A                      A
 Frequencies --   1303.2526              1309.9092              1312.9225
 Red. masses --      1.2245                 1.2221                 1.2593
 Frc consts  --      1.2254                 1.2355                 1.2790
 IR Inten    --      0.3032                 1.8498                 3.8239

                     85                     86                     87
                      A                      A                      A
 Frequencies --   1319.5008              1327.0773              1331.8747
 Red. masses --      1.1870                 1.2738                 1.0875
 Frc consts  --      1.2177                 1.3218                 1.1366
 IR Inten    --      1.5240                 1.5600                 0.4527

                     88                     89                     90
                      A                      A                      A
 Frequencies --   1338.5654              1340.8666              1344.4973
 Red. masses --      1.1948                 1.3253                 1.2890
 Frc consts  --      1.2613                 1.4038                 1.3729
 IR Inten    --      1.1510                 1.6139                 1.1198

                     91                     92                     93
                      A                      A                      A
 Frequencies --   1352.8568              1355.3277              1362.3814
 Red. masses --      1.3117                 1.2861                 1.3458
 Frc consts  --      1.4145                 1.3920                 1.4717
 IR Inten    --      0.0456                11.4969                 0.4265

                     94                     95                     96
                      A                      A                      A
 Frequencies --   1370.9472              1372.8996              1379.2355
 Red. masses --      1.3189                 1.3489                 1.4047
 Frc consts  --      1.4605                 1.4980                 1.5744
 IR Inten    --      2.3589                 1.3866                 1.7814

                     97                     98                     99
                      A                      A                      A
 Frequencies --   1382.2469              1388.5334              1396.6781
 Red. masses --      1.4716                 1.3647                 1.3603
 Frc consts  --      1.6566                 1.5503                 1.5635
 IR Inten    --      0.3452                 2.2482                 1.9087

                    100                    101                    102
                      A                      A                      A
 Frequencies --   1398.0181              1402.6138              1407.9949
 Red. masses --      1.5644                 1.3927                 1.3584
 Frc consts  --      1.8014                 1.6143                 1.5866
 IR Inten    --      1.0774                 0.6203                 9.0555

                    103                    104                    105
                      A                      A                      A
 Frequencies --   1409.4462              1414.0790              1418.3109
 Red. masses --      1.2890                 1.3020                 1.3783
 Frc consts  --      1.5087                 1.5339                 1.6336
 IR Inten    --      4.9788                 4.6951                 3.4348

                    106                    107                    108
                      A                      A                      A
 Frequencies --   1419.1295              1480.6169              1481.8402
 Red. masses --      1.2719                 1.0786                 1.0908
 Frc consts  --      1.5093                 1.3931                 1.4113
 IR Inten    --      8.9370                 1.9892                 0.6425

                    109                    110                    111
                      A                      A                      A
 Frequencies --   1483.3594              1483.6344              1487.3026
 Red. masses --      1.0707                 1.0829                 1.0779
 Frc consts  --      1.3880                 1.4044                 1.4048
 IR Inten    --      0.0169                 2.2077                 2.5734

                    112                    113                    114
                      A                      A                      A
 Frequencies --   1489.8469              1491.7533              1493.8538
 Red. masses --      1.0753                 1.0824                 1.0784
 Frc consts  --      1.4063                 1.4191                 1.4179
 IR Inten    --      1.3681                 0.6568                 2.1543

                    115                    116                    117
                      A                      A                      A
 Frequencies --   1496.1374              1497.1706              1499.8670
 Red. masses --      1.0593                 1.0731                 1.0404
 Frc consts  --      1.3970                 1.4173                 1.3789
 IR Inten    --      6.6812                 0.1618                 4.7208

                    118                    119                    120
                      A                      A                      A
 Frequencies --   1503.3211              1503.8464              1507.6920
 Red. masses --      1.0745                 1.0793                 1.1031
 Frc consts  --      1.4308                 1.4381                 1.4774
 IR Inten    --      3.6840                 0.6672                 0.0565

                    121                    122                    123
                      A                      A                      A
 Frequencies --   1510.2322              1514.0934              1516.0934
 Red. masses --      1.0516                 1.0925                 1.0569
 Frc consts  --      1.4132                 1.4756                 1.4313
 IR Inten    --      7.3352                 2.6444                 2.4709

                    124                    125                    126
                      A                      A                      A
 Frequencies --   2980.8728              2988.7479              2995.6973
 Red. masses --      1.0824                 1.0749                 1.0675
 Frc consts  --      5.6668                 5.6573                 5.6445
 IR Inten    --      7.5770                 8.9016                10.0699

                    127                    128                    129
                      A                      A                      A
 Frequencies --   2999.2825              2999.9032              3002.4392
 Red. masses --      1.0593                 1.0792                 1.0777
 Frc consts  --      5.6142                 5.7221                 5.7241
 IR Inten    --      1.5744                18.2952                35.6261

                    130                    131                    132
                      A                      A                      A
 Frequencies --   3006.5913              3010.5400              3011.0513
 Red. masses --      1.0660                 1.0769                 1.0598
 Frc consts  --      5.6774                 5.7508                 5.6612
 IR Inten    --     32.5135                10.1123                 4.2220

                    133                    134                    135
                      A                      A                      A
 Frequencies --   3016.7121              3019.5346              3019.6136
 Red. masses --      1.0666                 1.0650                 1.0610
 Frc consts  --      5.7187                 5.7209                 5.6997
 IR Inten    --     16.9213                12.4180                92.1335

                    136                    137                    138
                      A                      A                      A
 Frequencies --   3022.4747              3025.2337              3027.5175
 Red. masses --      1.0957                 1.0557                 1.0808
 Frc consts  --      5.8977                 5.6926                 5.8367
 IR Inten    --      6.5310                58.7097                29.0518

                    139                    140                    141
                      A                      A                      A
 Frequencies --   3027.6750              3027.9458              3030.3381
 Red. masses --      1.0434                 1.0504                 1.0683
 Frc consts  --      5.6352                 5.6740                 5.7801
 IR Inten    --     42.3950                10.7174                 6.9367

                    142                    143                    144
                      A                      A                      A
 Frequencies --   3031.1405              3038.3722              3040.5335
 Red. masses --      1.0653                 1.0541                 1.0840
 Frc consts  --      5.7667                 5.7335                 5.9046
 IR Inten    --     29.1992                15.3598                34.8045

                    145                    146                    147
                      A                      A                      A
 Frequencies --   3045.4419              3049.5144              3051.5234
 Red. masses --      1.1018                 1.0961                 1.0652
 Frc consts  --      6.0207                 6.0056                 5.8439
 IR Inten    --      1.7721                72.7589                 4.7404

                    148                    149                    150
                      A                      A                      A
 Frequencies --   3056.7653              3061.1857              3065.8400
 Red. masses --      1.0988                 1.0979                 1.1019
 Frc consts  --      6.0494                 6.0619                 6.1023
 IR Inten    --      1.4049                94.0040               133.7690

                    151                    152                    153
                      A                      A                      A
 Frequencies --   3073.2462              3082.2962              3088.7081
 Red. masses --      1.0974                 1.1041                 1.1025
 Frc consts  --      6.1070                 6.1803                 6.1970
 IR Inten    --     22.2328                28.2993                68.3103

                    154                    155                    156
                      A                      A                      A
 Frequencies --   3092.5787              3093.7917              3095.7092
 Red. masses --      1.1012                 1.1020                 1.1006
 Frc consts  --      6.2050                 6.2146                 6.2144
 IR Inten    --     43.3020                60.6001                33.6303

                    157                    158                    159
                      A                      A                      A
 Frequencies --   3098.9462              3101.7759              3118.9074
 Red. masses --      1.1010                 1.0968                 1.1003
 Frc consts  --      6.2294                 6.2172                 6.3062
 IR Inten    --     39.1970                29.4179                38.1141

 - Thermochemistry -
 -------------------
 Temperature   298.150 Kelvin.  Pressure   1.00000 Atm.
 Atom     1 has atomic number  6 and mass  12.00000

 Molecular mass:   264.28170 amu.
 Principal axes and moments of inertia in atomic units:
                           1         2         3
     Eigenvalues --  2088.25134********************
           X            0.99999   0.00326   0.00030
           Y           -0.00326   0.99999   0.00284
           Z           -0.00030  -0.00284   1.00000
 This molecule is an asymmetric top.
 Rotational symmetry number  1.
 Warning -- assumption of classical behavior for rotation
           may cause significant error
 Rotational temperatures (Kelvin)      0.04148     0.00557     0.00529
 Rotational constants (GHZ):           0.86424     0.11613     0.11021
 Zero-point vibrational energy    1358967.7 (Joules/Mol)
                                  324.80108 (Kcal/Mol)
 Warning -- explicit consideration of  32 degrees of freedom as
           vibrations may cause significant error
 Vibrational temperatures:     16.23    41.43    60.39    68.86    93.39
          (Kelvin)            111.34   135.67   168.67   192.80   206.19
                              240.65   279.98   310.87   334.08   356.68
                              368.85   387.79   400.99   413.44   430.79
                              468.32   480.22   492.40   558.80   571.94
                              586.01   590.58   661.21   698.65   729.23
                              801.69   879.60   901.59   935.38  1011.75
                             1051.57  1082.53  1154.61  1158.32  1185.13
                             1194.22  1202.28  1217.13  1249.98  1264.04
                             1296.59  1344.86  1353.11  1364.30  1378.06
                             1382.66  1402.33  1406.96  1435.78  1457.74
                             1464.72  1473.91  1483.13  1496.95  1514.18
                             1532.82  1537.38  1542.77  1566.93  1591.15
                             1606.10  1608.79  1623.60  1663.15  1690.08
                             1702.56  1716.66  1724.24  1752.98  1777.04
                             1789.34  1800.35  1823.62  1839.17  1851.59
                             1855.94  1875.09  1884.67  1889.00  1898.47
                             1909.37  1916.27  1925.90  1929.21  1934.43
                             1946.46  1950.01  1960.16  1972.49  1975.30
                             1984.41  1988.74  1997.79  2009.51  2011.44
                             2018.05  2025.79  2027.88  2034.54  2040.63
                             2041.81  2130.28  2132.04  2134.22  2134.62
                             2139.90  2143.56  2146.30  2149.32  2152.61
                             2154.09  2157.97  2162.94  2163.70  2169.23
                             2172.89  2178.44  2181.32  4288.81  4300.14
                             4310.14  4315.30  4316.19  4319.84  4325.81
                             4331.50  4332.23  4340.38  4344.44  4344.55
                             4348.67  4352.64  4355.92  4356.15  4356.54
                             4359.98  4361.14  4371.54  4374.65  4381.71
                             4387.57  4390.46  4398.00  4404.36  4411.06
                             4421.72  4434.74  4443.96  4449.53  4451.28
                             4454.04  4458.69  4462.76  4487.41

 Zero-point correction=                           0.517603 (Hartree/Particle)
 Thermal correction to Energy=                    0.539099
 Thermal correction to Enthalpy=                  0.540043
 Thermal correction to Gibbs Free Energy=         0.465681
 Sum of electronic and zero-point Energies=           -745.262273
 Sum of electronic and thermal Energies=              -745.240778
 Sum of electronic and thermal Enthalpies=            -745.239833
 Sum of electronic and thermal Free Energies=         -745.314196

                     E (Thermal)             CV                S
                      KCal/Mol        Cal/Mol-Kelvin    Cal/Mol-Kelvin
 Total                  338.290             83.832            156.509
 Electronic               0.000              0.000              0.000
 Translational            0.889              2.981             42.615
 Rotational               0.889              2.981             34.629
 Vibrational            336.512             77.870             79.265
 Vibration     1          0.593              1.987              7.772
 Vibration     2          0.593              1.984              5.911
 Vibration     3          0.595              1.980              5.164
 Vibration     4          0.595              1.978              4.904
 Vibration     5          0.597              1.971              4.302
 Vibration     6          0.599              1.964              3.956
 Vibration     7          0.603              1.953              3.569
 Vibration     8          0.608              1.935              3.146
 Vibration     9          0.613              1.919              2.888
 Vibration    10          0.616              1.910              2.759
 Vibration    11          0.624              1.883              2.466
 Vibration    12          0.635              1.847              2.184
 Vibration    13          0.645              1.817              1.992
 Vibration    14          0.653              1.792              1.862
 Vibration    15          0.662              1.766              1.745
 Vibration    16          0.666              1.752              1.686
 Vibration    17          0.674              1.729              1.599
 Vibration    18          0.679              1.713              1.542
 Vibration    19          0.685              1.697              1.490
 Vibration    20          0.692              1.675              1.420
 Vibration    21          0.710              1.624              1.282
 Vibration    22          0.715              1.608              1.242
 Vibration    23          0.721              1.591              1.202
 Vibration    24          0.757              1.495              1.006
 Vibration    25          0.764              1.475              0.972
 Vibration    26          0.772              1.454              0.936
 Vibration    27          0.775              1.447              0.925
 Vibration    28          0.817              1.340              0.767
 Vibration    29          0.842              1.282              0.695
 Vibration    30          0.862              1.235              0.641
 Vibration    31          0.913              1.124              0.529
 Vibration    32          0.970              1.008              0.431

 Optimization completed.
    -- Stationary point found.
 Normal termination of Gaussian 16 at Wed May 24 08:58:12 2023.
