 Gaussian 16, Revision A.03,
 Gaussian 16:  ES64L-G16RevA.03 25-Dec-2016

 -----------------------------
 # opt freq b3lyp/6-31g(2df,p)
 -----------------------------

 -------------------
 Title Card Required
 -------------------
 Symbolic Z-matrix:
 Charge =  0 Multiplicity = 1

 SCF Done:  E(RB3LYP) =  -567.656361126     A.U. after   12 cycles
 SCF Done:  E(RB3LYP) =  -567.663984939     A.U. after   10 cycles
 SCF Done:  E(RB3LYP) =  -567.664895542     A.U. after   10 cycles
 SCF Done:  E(RB3LYP) =  -567.665059743     A.U. after   10 cycles
 SCF Done:  E(RB3LYP) =  -567.665206413     A.U. after    8 cycles
 SCF Done:  E(RB3LYP) =  -567.665217795     A.U. after    8 cycles
 SCF Done:  E(RB3LYP) =  -567.665244370     A.U. after    8 cycles
 SCF Done:  E(RB3LYP) =  -567.665247184     A.U. after    7 cycles
 SCF Done:  E(RB3LYP) =  -567.665248805     A.U. after    7 cycles
 SCF Done:  E(RB3LYP) =  -567.665250369     A.U. after    8 cycles
 SCF Done:  E(RB3LYP) =  -567.665322789     A.U. after    8 cycles
 SCF Done:  E(RB3LYP) =  -567.665323613     A.U. after    7 cycles
 SCF Done:  E(RB3LYP) =  -567.665324955     A.U. after    7 cycles
 SCF Done:  E(RB3LYP) =  -567.665326029     A.U. after    7 cycles
 SCF Done:  E(RB3LYP) =  -567.665326471     A.U. after    7 cycles
 SCF Done:  E(RB3LYP) =  -567.665326761     A.U. after    7 cycles
 SCF Done:  E(RB3LYP) =  -567.665327497     A.U. after    7 cycles
 SCF Done:  E(RB3LYP) =  -567.665327801     A.U. after    6 cycles
 SCF Done:  E(RB3LYP) =  -567.665327813     A.U. after    6 cycles
 Optimization completed.
    -- Stationary point found.
 Normal termination of Gaussian 16 at Tue May 23 09:44:41 2023.

 ----------------------------------------------------------------------
 #N Geom=AllCheck Guess=TCheck SCRF=Check GenChk RB3LYP/6-31G(2df,p) Fr
 eq
 ----------------------------------------------------------------------

 Structure from the checkpoint file:  "CCCCCCqCrCqCrqNrCCCC.chk"
 -------------------
 Title Card Required
 -------------------
 Charge =  0 Multiplicity = 1

                         Standard orientation:
 ---------------------------------------------------------------------
 Center     Atomic      Atomic             Coordinates (Angstroms)
 Number     Number       Type             X           Y           Z
 ---------------------------------------------------------------------
      1          6           0       -6.543723   -0.578805   -0.367657
      2          6           0       -5.290029    0.272334   -0.587077
      3          6           0       -4.013465   -0.381050   -0.046652
      4          6           0       -2.753199    0.464150   -0.264561
      5          6           0       -1.485465   -0.201685    0.290242
      6          6           0       -0.169477    0.528514   -0.054381
      7          6           0       -0.199214    1.977164    0.464776
      8          6           0        1.110694   -0.261905    0.397689
      9          6           0        1.330677   -0.150692    1.922056
     10          7           0        0.941617   -1.669968   -0.026606
     11          6           0        2.328043    0.291945   -0.386497
     12          6           0        3.710569   -0.273120   -0.029035
     13          6           0        4.821489    0.297549   -0.920329
     14          6           0        6.210603   -0.245880   -0.575759
     15          1           0       -7.437602   -0.086437   -0.763653
     16          1           0       -6.712601   -0.767379    0.698588
     17          1           0       -6.453035   -1.552080   -0.862994
     18          1           0       -5.424486    1.252507   -0.110300
     19          1           0       -5.166633    0.473349   -1.659650
     20          1           0       -3.879915   -1.363246   -0.521491
     21          1           0       -4.136540   -0.580939    1.027452
     22          1           0       -2.902831    1.447521    0.197587
     23          1           0       -2.623622    0.648836   -1.340553
     24          1           0       -1.437909   -1.216242   -0.117629
     25          1           0       -1.588594   -0.299166    1.380707
     26          1           0       -0.112873    0.562318   -1.151178
     27          1           0       -0.439410    2.015258    1.533147
     28          1           0       -0.959424    2.561088   -0.060558
     29          1           0        0.753013    2.494357    0.321014
     30          1           0        0.434191   -0.460066    2.470117
     31          1           0        1.576841    0.868313    2.237779
     32          1           0        2.147996   -0.803906    2.241520
     33          1           0        0.295775   -2.141731    0.600044
     34          1           0        1.824964   -2.158909    0.086768
     35          1           0        2.370362    1.379210   -0.263222
     36          1           0        2.135786    0.104786   -1.450247
     37          1           0        3.722592   -1.368001   -0.122581
     38          1           0        3.950909   -0.054936    1.018956
     39          1           0        4.824481    1.392438   -0.835476
     40          1           0        4.590593    0.077178   -1.970774
     41          1           0        6.483201   -0.010171    0.459140
     42          1           0        6.980001    0.180282   -1.227281
     43          1           0        6.248436   -1.335556   -0.685883
 ---------------------------------------------------------------------

 SCF Done:  E(RB3LYP) =  -567.665327813     A.U. after    1 cycles

 The electronic state is 1-A.
 Alpha  occ. eigenvalues --  -14.29798 -10.20970 -10.17690 -10.17593 -10.17540
 Alpha  occ. eigenvalues --  -10.17305 -10.17064 -10.17043 -10.16992 -10.16944
 Alpha  occ. eigenvalues --  -10.16767 -10.16715 -10.16612 -10.16531  -0.88364
 Alpha  occ. eigenvalues --   -0.80117  -0.79119  -0.77541  -0.74137  -0.71761
 Alpha  occ. eigenvalues --   -0.69700  -0.66671  -0.64761  -0.61507  -0.58392
 Alpha  occ. eigenvalues --   -0.57015  -0.56164  -0.52202  -0.48556  -0.47097
 Alpha  occ. eigenvalues --   -0.46600  -0.45074  -0.44526  -0.43084  -0.41691
 Alpha  occ. eigenvalues --   -0.41664  -0.40665  -0.39714  -0.39299  -0.38879
 Alpha  occ. eigenvalues --   -0.38208  -0.37493  -0.36851  -0.35770  -0.34854
 Alpha  occ. eigenvalues --   -0.34262  -0.33838  -0.33307  -0.33020  -0.32089
 Alpha  occ. eigenvalues --   -0.32024  -0.31754  -0.31523  -0.31039  -0.30064
 Alpha  occ. eigenvalues --   -0.28257  -0.23021
 Alpha virt. eigenvalues --    0.07351   0.09304   0.09886   0.10232   0.11235
 Alpha virt. eigenvalues --    0.11969   0.12459   0.12892   0.13368   0.14375
 Alpha virt. eigenvalues --    0.14579   0.14934   0.16065   0.16488   0.16729

 Mulliken charges:
               1
     1  C   -0.378977
     2  C   -0.164064
     3  C   -0.158584
     4  C   -0.188915
     5  C   -0.223548
     6  C    0.054039
     7  C   -0.412970
     8  C    0.219490
     9  C   -0.428118
    10  N   -0.540803
    11  C   -0.188822
    12  C   -0.193309
    13  C   -0.158793
    14  C   -0.382781
    15  H    0.108983
    16  H    0.111551
    17  H    0.112511
    18  H    0.092035
    19  H    0.093209
    20  H    0.090940
    21  H    0.087785
    22  H    0.093673
    23  H    0.091445
    24  H    0.103716
    25  H    0.084172
    26  H    0.070568
    27  H    0.111495
    28  H    0.116364
    29  H    0.110746
    30  H    0.106958
    31  H    0.111005
    32  H    0.105803
    33  H    0.220699
    34  H    0.218266
    35  H    0.092334
    36  H    0.100535
    37  H    0.088070
    38  H    0.096245
    39  H    0.094219
    40  H    0.096836
    41  H    0.112396
    42  H    0.110930
    43  H    0.112664
 Sum of Mulliken charges =  -0.00000

 Dipole moment (field-independent basis, Debye):
    X=              0.5001    Y=              0.0215    Z=              0.8564  Tot=              0.9920
 Quadrupole moment (field-independent basis, Debye-Ang):
   XX=            -93.1525   YY=            -92.5904   ZZ=            -93.8405
   XY=             -0.7619   XZ=              0.2273   YZ=             -1.9292

  Exact polarizability: 195.404  -0.207 135.354  -0.936  -0.822 129.742
 Approx polarizability: 212.459  -0.267 206.741  -1.393   0.786 202.914

                      1                      2                      3
                      A                      A                      A
 Frequencies --     28.4742                35.4712                48.9240
 Red. masses --      3.4676                 1.6593                 1.7905
 Frc consts  --      0.0017                 0.0012                 0.0025
 IR Inten    --      0.0023                 0.3966                 0.0702

                      4                      5                      6
                      A                      A                      A
 Frequencies --     54.3817                69.2179                96.1963
 Red. masses --      2.6647                 2.8790                 2.8996
 Frc consts  --      0.0046                 0.0081                 0.0158
 IR Inten    --      0.4364                 0.0243                 0.0404

                      7                      8                      9
                      A                      A                      A
 Frequencies --    110.2022               130.2595               132.9318
 Red. masses --      2.7092                 2.1555                 1.8451
 Frc consts  --      0.0194                 0.0215                 0.0192
 IR Inten    --      0.0256                 0.0542                 2.1953

                     10                     11                     12
                      A                      A                      A
 Frequencies --    141.6003               197.8506               205.0599
 Red. masses --      1.9803                 2.7204                 3.2657
 Frc consts  --      0.0234                 0.0627                 0.0809
 IR Inten    --      0.0201                 0.0971                 2.7257

                     13                     14                     15
                      A                      A                      A
 Frequencies --    230.4952               245.4727               248.1247
 Red. masses --      1.2105                 1.1139                 1.1200
 Frc consts  --      0.0379                 0.0395                 0.0406
 IR Inten    --      2.2842                 0.0071                 0.3686

                     16                     17                     18
                      A                      A                      A
 Frequencies --    264.2586               276.7058               287.3683
 Red. masses --      2.3505                 1.4005                 1.6817
 Frc consts  --      0.0967                 0.0632                 0.0818
 IR Inten    --      0.9910                15.4280                23.2906

                     19                     20                     21
                      A                      A                      A
 Frequencies --    299.1768               303.5726               368.8613
 Red. masses --      1.4941                 1.9499                 2.6528
 Frc consts  --      0.0788                 0.1059                 0.2127
 IR Inten    --     21.6098                 0.8908                 0.4632

                     22                     23                     24
                      A                      A                      A
 Frequencies --    375.7311               408.1174               429.9459
 Red. masses --      2.3093                 2.5373                 2.6944
 Frc consts  --      0.1921                 0.2490                 0.2935
 IR Inten    --      2.5996                 2.4580                 1.8034

                     25                     26                     27
                      A                      A                      A
 Frequencies --    447.3069               483.2904               521.9389
 Red. masses --      3.0896                 2.8146                 2.5405
 Frc consts  --      0.3642                 0.3873                 0.4078
 IR Inten    --      0.9435                 2.8914                 1.5342

                     28                     29                     30
                      A                      A                      A
 Frequencies --    595.2202               731.0201               734.8885
 Red. masses --      2.5006                 1.1084                 1.0696
 Frc consts  --      0.5220                 0.3490                 0.3403
 IR Inten    --      0.7178                 1.1235                 3.7026

                     31                     32                     33
                      A                      A                      A
 Frequencies --    740.0953               763.6270               785.3142
 Red. masses --      2.9837                 1.1662                 1.2426
 Frc consts  --      0.9629                 0.4007                 0.4515
 IR Inten    --      0.6928                 0.0798                 3.9739

                     34                     35                     36
                      A                      A                      A
 Frequencies --    834.0561               853.8930               892.3862
 Red. masses --      1.7570                 1.5201                 1.9104
 Frc consts  --      0.7201                 0.6530                 0.8964
 IR Inten    --      3.2059                14.3086                16.6776

                     37                     38                     39
                      A                      A                      A
 Frequencies --    902.5646               910.7257               924.5176
 Red. masses --      1.9104                 1.5662                 1.6806
 Frc consts  --      0.9169                 0.7654                 0.8463
 IR Inten    --      3.6390                19.5850                 6.3966

                     40                     41                     42
                      A                      A                      A
 Frequencies --    930.5267               948.8958               962.1393
 Red. masses --      1.4118                 1.2571                 1.5289
 Frc consts  --      0.7203                 0.6669                 0.8339
 IR Inten    --     43.8076                 0.2942                 3.1347

                     43                     44                     45
                      A                      A                      A
 Frequencies --    999.0988              1008.4808              1024.5627
 Red. masses --      1.7759                 2.6243                 2.5263
 Frc consts  --      1.0445                 1.5725                 1.5625
 IR Inten    --      4.5552                 0.9823                 2.7491

                     46                     47                     48
                      A                      A                      A
 Frequencies --   1040.3027              1056.4077              1059.2270
 Red. masses --      1.6573                 2.2642                 2.1528
 Frc consts  --      1.0567                 1.4888                 1.4231
 IR Inten    --      1.8977                 1.6421                 0.4928

                     49                     50                     51
                      A                      A                      A
 Frequencies --   1066.4382              1074.7549              1076.8265
 Red. masses --      2.2243                 1.6303                 1.8379
 Frc consts  --      1.4904                 1.1096                 1.2557
 IR Inten    --      1.1230                 0.0945                 1.5351

                     52                     53                     54
                      A                      A                      A
 Frequencies --   1108.1767              1131.7445              1136.3841
 Red. masses --      1.8044                 2.0303                 2.2913
 Frc consts  --      1.3056                 1.5322                 1.7433
 IR Inten    --      3.9170                10.6912                 2.8354

                     55                     56                     57
                      A                      A                      A
 Frequencies --   1191.0087              1202.6428              1229.0458
 Red. masses --      1.9715                 2.4968                 2.1901
 Frc consts  --      1.6477                 2.1277                 1.9491
 IR Inten    --      3.4554                 7.2213                 5.7350

                     58                     59                     60
                      A                      A                      A
 Frequencies --   1236.0316              1258.1068              1262.8336
 Red. masses --      1.5728                 1.3321                 1.4034
 Frc consts  --      1.4157                 1.2423                 1.3186
 IR Inten    --      4.6835                 3.2952                 3.4184

                     61                     62                     63
                      A                      A                      A
 Frequencies --   1284.5044              1299.8862              1307.1471
 Red. masses --      1.4517                 1.3139                 1.3764
 Frc consts  --      1.4112                 1.3080                 1.3856
 IR Inten    --      2.7432                 0.5047                 0.0694

                     64                     65                     66
                      A                      A                      A
 Frequencies --   1323.1583              1330.5371              1332.2714
 Red. masses --      1.2709                 1.0861                 1.1627
 Frc consts  --      1.3109                 1.1329                 1.2159
 IR Inten    --      3.2460                 0.1419                 1.5022

                     67                     68                     69
                      A                      A                      A
 Frequencies --   1334.3100              1346.9006              1356.6046
 Red. masses --      1.1461                 1.2336                 1.2766
 Frc consts  --      1.2022                 1.3185                 1.3843
 IR Inten    --      0.2554                 6.3453                 0.2376

                     70                     71                     72
                      A                      A                      A
 Frequencies --   1373.3885              1380.1011              1391.1658
 Red. masses --      1.3423                 1.4491                 1.4624
 Frc consts  --      1.4918                 1.6262                 1.6675
 IR Inten    --      4.6643                10.5408                 0.2989

                     73                     74                     75
                      A                      A                      A
 Frequencies --   1397.9732              1399.6332              1409.2423
 Red. masses --      1.5758                 1.5240                 1.2798
 Frc consts  --      1.8144                 1.7590                 1.4975
 IR Inten    --      1.4562                 0.6066                 8.3984

                     76                     77                     78
                      A                      A                      A
 Frequencies --   1412.8870              1413.3813              1418.0712
 Red. masses --      1.2469                 1.2524                 1.2352
 Frc consts  --      1.4665                 1.4741                 1.4635
 IR Inten    --      1.1611                 3.4998                 6.0349

                     79                     80                     81
                      A                      A                      A
 Frequencies --   1470.7509              1482.9988              1483.7098
 Red. masses --      1.0795                 1.0692                 1.0713
 Frc consts  --      1.3758                 1.3855                 1.3895
 IR Inten    --      1.0124                 0.2239                 0.1138

                     82                     83                     84
                      A                      A                      A
 Frequencies --   1483.9521              1491.0781              1494.8579
 Red. masses --      1.0706                 1.0612                 1.0616
 Frc consts  --      1.3890                 1.3901                 1.3977
 IR Inten    --      1.2143                 0.4901                 1.1860

                     85                     86                     87
                      A                      A                      A
 Frequencies --   1495.7880              1497.5747              1499.8862
 Red. masses --      1.0610                 1.0586                 1.0405
 Frc consts  --      1.3986                 1.3989                 1.3791
 IR Inten    --      0.4280                 0.4431                 2.9039

                     88                     89                     90
                      A                      A                      A
 Frequencies --   1499.8985              1505.5148              1509.4494
 Red. masses --      1.0404                 1.0777                 1.0596
 Frc consts  --      1.3790                 1.4393                 1.4224
 IR Inten    --      7.0560                 0.9438                 2.4446

                     91                     92                     93
                      A                      A                      A
 Frequencies --   1511.3816              1513.3286              1515.0978
 Red. masses --      1.0841                 1.0569                 1.0912
 Frc consts  --      1.4590                 1.4261                 1.4758
 IR Inten    --      1.7892                 4.6808                 4.8450

                     94                     95                     96
                      A                      A                      A
 Frequencies --   1660.0596              2997.2367              2999.1719
 Red. masses --      1.0896                 1.0660                 1.0614
 Frc consts  --      1.7692                 5.6424                 5.6250
 IR Inten    --     37.9539                 0.2812                 3.4070

                     97                     98                     99
                      A                      A                      A
 Frequencies --   3004.4786              3005.0493              3011.6070
 Red. masses --      1.0697                 1.0610                 1.0668
 Frc consts  --      5.6890                 5.6450                 5.7006
 IR Inten    --      4.6586                 3.8845                 7.0226

                    100                    101                    102
                      A                      A                      A
 Frequencies --   3015.0596              3017.1025              3023.5887
 Red. masses --      1.0598                 1.0648                 1.0957
 Frc consts  --      5.6761                 5.7107                 5.9020
 IR Inten    --     31.3638                68.8203                 3.3668

                    103                    104                    105
                      A                      A                      A
 Frequencies --   3027.4187              3027.4775              3028.3821
 Red. masses --      1.0358                 1.0371                 1.0609
 Frc consts  --      5.5935                 5.6005                 5.7324
 IR Inten    --     40.3808                23.9243                65.2888

                    106                    107                    108
                      A                      A                      A
 Frequencies --   3032.2973              3036.1698              3038.8772
 Red. masses --      1.0431                 1.0882                 1.0501
 Frc consts  --      5.6507                 5.9104                 5.7135
 IR Inten    --      0.7406                16.6965                15.4365

                    109                    110                    111
                      A                      A                      A
 Frequencies --   3043.2557              3054.2626              3057.3296
 Red. masses --      1.0882                 1.0996                 1.0999
 Frc consts  --      5.9380                 6.0435                 6.0576
 IR Inten    --      1.4781                16.4558                33.0932

                    112                    113                    114
                      A                      A                      A
 Frequencies --   3078.8756              3081.3533              3093.5552
 Red. masses --      1.1005                 1.0995                 1.1020
 Frc consts  --      6.1462                 6.1505                 6.2136
 IR Inten    --      1.0469                80.4734                47.3922

                    115                    116                    117
                      A                      A                      A
 Frequencies --   3093.9455              3097.0990              3098.7295
 Red. masses --      1.1021                 1.1005                 1.1009
 Frc consts  --      6.2158                 6.2195                 6.2285
 IR Inten    --     80.5356                40.8075                39.6054

                    118                    119                    120
                      A                      A                      A
 Frequencies --   3099.6958              3102.6283              3106.5309
 Red. masses --      1.1008                 1.0985                 1.0990
 Frc consts  --      6.2317                 6.2304                 6.2487
 IR Inten    --     34.0571                52.4648                22.3878

                    121                    122                    123
                      A                      A                      A
 Frequencies --   3114.5185              3489.7007              3559.4338
 Red. masses --      1.0995                 1.0495                 1.0908
 Frc consts  --      6.2841                 7.5301                 8.1426
 IR Inten    --     42.4334                 1.7757                 0.9777

 - Thermochemistry -
 -------------------
 Temperature   298.150 Kelvin.  Pressure   1.00000 Atm.
 Atom     1 has atomic number  6 and mass  12.00000

 Molecular mass:   199.23000 amu.
 Principal axes and moments of inertia in atomic units:
                           1         2         3
     Eigenvalues --   941.121059908.06280**********
           X            1.00000   0.00081   0.00030
           Y           -0.00080   0.99952  -0.03104
           Z           -0.00032   0.03104   0.99952
 This molecule is an asymmetric top.
 Rotational symmetry number  1.
 Warning -- assumption of classical behavior for rotation
           may cause significant error
 Rotational temperatures (Kelvin)      0.09203     0.00874     0.00862
 Rotational constants (GHZ):           1.91765     0.18215     0.17967
 Zero-point vibrational energy    1059737.1 (Joules/Mol)
                                  253.28324 (Kcal/Mol)
 Warning -- explicit consideration of  28 degrees of freedom as
           vibrations may cause significant error
 Vibrational temperatures:     40.97    51.04    70.39    78.24    99.59
          (Kelvin)            138.40   158.56   187.41   191.26   203.73
                              284.66   295.04   331.63   353.18   357.00
                              380.21   398.12   413.46   430.45   436.77
                              530.71   540.59   587.19   618.60   643.57
                              695.35   750.95   856.39  1051.77  1057.34
                             1064.83  1098.69  1129.89  1200.02  1228.56
                             1283.94  1298.59  1310.33  1330.17  1338.82
                             1365.25  1384.30  1437.48  1450.98  1474.12
                             1496.76  1519.94  1523.99  1534.37  1546.33
                             1549.31  1594.42  1628.33  1635.00  1713.60
                             1730.33  1768.32  1778.37  1810.14  1816.94
                             1848.12  1870.25  1880.69  1903.73  1914.35
                             1916.84  1919.77  1937.89  1951.85  1976.00
                             1985.66  2001.58  2011.37  2013.76  2027.59
                             2032.83  2033.54  2040.29  2116.08  2133.70
                             2134.73  2135.08  2145.33  2150.77  2152.11
                             2154.68  2158.00  2158.02  2166.10  2171.76
                             2174.54  2177.34  2179.89  2388.46  4312.36
                             4315.14  4322.77  4323.60  4333.03  4338.00
                             4340.94  4350.27  4355.78  4355.86  4357.17
                             4362.80  4368.37  4372.27  4378.57  4394.40
                             4398.82  4429.82  4433.38  4450.94  4451.50
                             4456.03  4458.38  4459.77  4463.99  4469.61
                             4481.10  5020.90  5121.23

 Zero-point correction=                           0.403633 (Hartree/Particle)
 Thermal correction to Energy=                    0.422694
 Thermal correction to Enthalpy=                  0.423638
 Thermal correction to Gibbs Free Energy=         0.355694
 Sum of electronic and zero-point Energies=           -567.261695
 Sum of electronic and thermal Energies=              -567.242634
 Sum of electronic and thermal Enthalpies=            -567.241690
 Sum of electronic and thermal Free Energies=         -567.309634

                     E (Thermal)             CV                S
                      KCal/Mol        Cal/Mol-Kelvin    Cal/Mol-Kelvin
 Total                  265.244             70.179            143.000
 Electronic               0.000              0.000              0.000
 Translational            0.889              2.981             41.773
 Rotational               0.889              2.981             32.904
 Vibrational            263.467             64.218             68.323
 Vibration     1          0.593              1.984              5.933
 Vibration     2          0.594              1.982              5.497
 Vibration     3          0.595              1.978              4.860
 Vibration     4          0.596              1.976              4.651
 Vibration     5          0.598              1.969              4.175
 Vibration     6          0.603              1.952              3.530
 Vibration     7          0.606              1.941              3.265
 Vibration     8          0.612              1.923              2.942
 Vibration     9          0.613              1.920              2.903
 Vibration    10          0.615              1.912              2.782
 Vibration    11          0.637              1.843              2.153
 Vibration    12          0.640              1.833              2.087
 Vibration    13          0.652              1.794              1.875
 Vibration    14          0.660              1.770              1.763
 Vibration    15          0.662              1.766              1.744
 Vibration    16          0.671              1.738              1.633
 Vibration    17          0.678              1.717              1.554
 Vibration    18          0.685              1.697              1.489
 Vibration    19          0.692              1.675              1.422
 Vibration    20          0.695              1.667              1.397
 Vibration    21          0.741              1.536              1.085
 Vibration    22          0.747              1.522              1.056
 Vibration    23          0.773              1.453              0.933
 Vibration    24          0.791              1.405              0.859
 Vibration    25          0.806              1.367              0.804
 Vibration    26          0.839              1.287              0.701
 Vibration    27          0.877              1.201              0.605
 Vibration    28          0.953              1.042              0.458

 Optimization completed.
    -- Stationary point found.
 Normal termination of Gaussian 16 at Tue May 23 12:38:28 2023.
