 Gaussian 16, Revision A.03,
 Gaussian 16:  ES64L-G16RevA.03 25-Dec-2016

 -----------------------------
 # opt freq b3lyp/6-31g(2df,p)
 -----------------------------

 -------------------
 Title Card Required
 -------------------
 Symbolic Z-matrix:
 Charge =  0 Multiplicity = 1

 SCF Done:  E(RB3LYP) =  -658.054473311     A.U. after   13 cycles
 SCF Done:  E(RB3LYP) =  -658.084351630     A.U. after   14 cycles
 SCF Done:  E(RB3LYP) =  -658.097217255     A.U. after   12 cycles
 SCF Done:  E(RB3LYP) =  -658.107799094     A.U. after   12 cycles
 SCF Done:  E(RB3LYP) =  -658.113988288     A.U. after   13 cycles
 SCF Done:  E(RB3LYP) =  -658.121534940     A.U. after   13 cycles
 SCF Done:  E(RB3LYP) =  -658.128156777     A.U. after   15 cycles
 SCF Done:  E(RB3LYP) =  -658.131269482     A.U. after   13 cycles
 SCF Done:  E(RB3LYP) =  -658.135137669     A.U. after   12 cycles
 SCF Done:  E(RB3LYP) =  -658.140169907     A.U. after   12 cycles
 SCF Done:  E(RB3LYP) =  -658.145289265     A.U. after    9 cycles
 SCF Done:  E(RB3LYP) =  -658.145252588     A.U. after    9 cycles
 SCF Done:  E(RB3LYP) =  -658.145242163     A.U. after   11 cycles
 SCF Done:  E(RB3LYP) =  -658.145303979     A.U. after   10 cycles
 SCF Done:  E(RB3LYP) =  -658.145303122     A.U. after    9 cycles
 SCF Done:  E(RB3LYP) =  -658.145310478     A.U. after    9 cycles
 SCF Done:  E(RB3LYP) =  -658.145310548     A.U. after    7 cycles
 SCF Done:  E(RB3LYP) =  -658.145310728     A.U. after    7 cycles
 SCF Done:  E(RB3LYP) =  -658.145310734     A.U. after    7 cycles
 Optimization completed.
    -- Stationary point found.
 Normal termination of Gaussian 16 at Tue May 23 15:42:57 2023.

 ----------------------------------------------------------------------
 #N Geom=AllCheck Guess=TCheck SCRF=Check GenChk RB3LYP/6-31G(2df,p) Fr
 eq
 ----------------------------------------------------------------------

 Structure from the checkpoint file:  "CCCCCqOCqCrOCCrCqCrdO.chk"
 -------------------
 Title Card Required
 -------------------
 Charge =  0 Multiplicity = 1

                         Standard orientation:
 ---------------------------------------------------------------------
 Center     Atomic      Atomic             Coordinates (Angstroms)
 Number     Number       Type             X           Y           Z
 ---------------------------------------------------------------------
      1          6           0       -5.196139    0.910081   -0.547013
      2          6           0       -4.218467   -0.175251   -0.088276
      3          6           0       -2.754114    0.181863   -0.364507
      4          6           0       -1.775133   -0.904944    0.091878
      5          6           0       -0.305544   -0.539429   -0.155648
      6          8           0        0.003199    0.610357    0.627346
      7          6           0        1.038153    1.399681    0.118488
      8          6           0        1.173169    2.620217    1.014252
      9          8           0        2.223692    0.623743    0.101789
     10          6           0        3.162559    0.941925   -0.914537
     11          6           0        4.220831   -0.148007   -0.941645
     12          6           0        0.592932   -1.744171    0.172167
     13          6           0        1.055365   -1.904053    1.605135
     14          8           0        0.858035   -2.544087   -0.696686
     15          1           0       -6.232792    0.630192   -0.335154
     16          1           0       -5.113119    1.087710   -1.625093
     17          1           0       -4.997385    1.861039   -0.040258
     18          1           0       -4.462330   -1.123145   -0.586152
     19          1           0       -4.349712   -0.356017    0.986865
     20          1           0       -2.501748    1.122009    0.139129
     21          1           0       -2.620113    0.360726   -1.440628
     22          1           0       -1.979159   -1.844276   -0.435392
     23          1           0       -1.914968   -1.101597    1.162472
     24          1           0       -0.161941   -0.321647   -1.223530
     25          1           0        0.805425    1.695378   -0.922324
     26          1           0        1.394687    2.299181    2.035106
     27          1           0        0.245096    3.197473    1.015222
     28          1           0        1.984229    3.262451    0.660517
     29          1           0        3.622485    1.923616   -0.720865
     30          1           0        2.651322    1.007206   -1.887953
     31          1           0        4.739162   -0.205607    0.019762
     32          1           0        4.960086    0.060577   -1.720762
     33          1           0        3.759578   -1.118277   -1.145087
     34          1           0        1.838167   -1.167236    1.802756
     35          1           0        1.448636   -2.911418    1.748800
     36          1           0        0.243310   -1.705913    2.311226
 ---------------------------------------------------------------------

 SCF Done:  E(RB3LYP) =  -658.145310734     A.U. after    1 cycles

 The electronic state is 1-A.
 Alpha  occ. eigenvalues --  -19.15145 -19.14755 -19.11788 -10.28374 -10.25784
 Alpha  occ. eigenvalues --  -10.23543 -10.23351 -10.18480 -10.18043 -10.17888
 Alpha  occ. eigenvalues --  -10.17761 -10.17726 -10.17234 -10.17191  -1.07464
 Alpha  occ. eigenvalues --   -1.02901  -1.01265  -0.80877  -0.77924  -0.75400
 Alpha  occ. eigenvalues --   -0.73015  -0.72701  -0.67789  -0.63076  -0.61103
 Alpha  occ. eigenvalues --   -0.60058  -0.57773  -0.54007  -0.52130  -0.50253
 Alpha  occ. eigenvalues --   -0.48065  -0.46547  -0.45707  -0.44889  -0.42815
 Alpha  occ. eigenvalues --   -0.41790  -0.41546  -0.41213  -0.40702  -0.39938
 Alpha  occ. eigenvalues --   -0.39292  -0.38691  -0.38281  -0.37654  -0.36707
 Alpha  occ. eigenvalues --   -0.35596  -0.35166  -0.34060  -0.33372  -0.33012
 Alpha  occ. eigenvalues --   -0.32600  -0.32316  -0.31522  -0.29532  -0.26426
 Alpha  occ. eigenvalues --   -0.22697
 Alpha virt. eigenvalues --   -0.00184   0.07629   0.09301   0.10020   0.10602
 Alpha virt. eigenvalues --    0.11011   0.12523   0.13338   0.13535   0.14214
 Alpha virt. eigenvalues --    0.14629   0.15233   0.16355   0.16749   0.16987

 Mulliken charges:
               1
     1  C   -0.380288
     2  C   -0.166477
     3  C   -0.167786
     4  C   -0.216768
     5  C    0.011439
     6  O   -0.255619
     7  C    0.218939
     8  C   -0.410443
     9  O   -0.254149
    10  C   -0.043583
    11  C   -0.390520
    12  C    0.387856
    13  C   -0.481531
    14  O   -0.328156
    15  H    0.111442
    16  H    0.113380
    17  H    0.113408
    18  H    0.095683
    19  H    0.095430
    20  H    0.107621
    21  H    0.089916
    22  H    0.116284
    23  H    0.104479
    24  H    0.085850
    25  H    0.059621
    26  H    0.134626
    27  H    0.126297
    28  H    0.120001
    29  H    0.092824
    30  H    0.095910
    31  H    0.126113
    32  H    0.116200
    33  H    0.147285
    34  H    0.164087
    35  H    0.129892
    36  H    0.130739
 Sum of Mulliken charges =  -0.00000

 Dipole moment (field-independent basis, Debye):
    X=             -0.0023    Y=              2.5461    Z=              0.2614  Tot=              2.5595
 Quadrupole moment (field-independent basis, Debye-Ang):
   XX=            -82.5459   YY=            -91.6576   ZZ=            -86.7554
   XY=              5.4373   XZ=             -0.7575   YZ=             -4.8937

  Exact polarizability: 152.508  -4.135 128.607  -1.327   0.777 115.594
 Approx polarizability: 179.157  -2.719 180.529  -3.796   6.832 182.158

                      1                      2                      3
                      A                      A                      A
 Frequencies --     26.9291                31.8173                54.6364
 Red. masses --      3.9392                 4.0266                 2.4827
 Frc consts  --      0.0017                 0.0024                 0.0044
 IR Inten    --      0.6435                 1.3099                 0.5908

                      4                      5                      6
                      A                      A                      A
 Frequencies --     60.8572                63.7918                79.3299
 Red. masses --      1.8259                 2.0476                 2.8426
 Frc consts  --      0.0040                 0.0049                 0.0105
 IR Inten    --      0.8203                 0.6904                 0.6311

                      7                      8                      9
                      A                      A                      A
 Frequencies --     93.7437               121.6563               128.0409
 Red. masses --      3.6433                 3.4130                 1.3471
 Frc consts  --      0.0189                 0.0298                 0.0130
 IR Inten    --      2.4749                 2.7327                 0.0758

                     10                     11                     12
                      A                      A                      A
 Frequencies --    141.6894               184.6198               192.4708
 Red. masses --      1.6588                 2.7422                 3.0813
 Frc consts  --      0.0196                 0.0551                 0.0673
 IR Inten    --      0.4681                 2.8089                 0.6043

                     13                     14                     15
                      A                      A                      A
 Frequencies --    208.4852               221.0842               245.6363
 Red. masses --      1.5616                 1.6067                 1.2249
 Frc consts  --      0.0400                 0.0463                 0.0435
 IR Inten    --      0.9327                 0.5446                 0.4449

                     16                     17                     18
                      A                      A                      A
 Frequencies --    260.4254               265.2494               288.6598
 Red. masses --      1.3289                 2.2252                 3.2378
 Frc consts  --      0.0531                 0.0922                 0.1590
 IR Inten    --      1.3577                 0.6950                 6.0238

                     19                     20                     21
                      A                      A                      A
 Frequencies --    314.7537               381.6471               405.3954
 Red. masses --      3.3637                 3.9718                 2.8492
 Frc consts  --      0.1963                 0.3409                 0.2759
 IR Inten    --      0.9881                 7.0709                 2.6498

                     22                     23                     24
                      A                      A                      A
 Frequencies --    441.6857               514.8241               534.2595
 Red. masses --      3.4312                 2.8810                 3.1817
 Frc consts  --      0.3944                 0.4499                 0.5351
 IR Inten    --      0.6863                 1.6779                14.9460

                     25                     26                     27
                      A                      A                      A
 Frequencies --    573.4296               584.7317               623.9267
 Red. masses --      3.5325                 2.9735                 3.0182
 Frc consts  --      0.6844                 0.5990                 0.6922
 IR Inten    --      1.6117                 5.7760                 4.3209

                     28                     29                     30
                      A                      A                      A
 Frequencies --    737.8746               783.1785               798.4920
 Red. masses --      1.0931                 1.4201                 2.8060
 Frc consts  --      0.3507                 0.5132                 1.0541
 IR Inten    --      2.2829                 2.0631                 3.1090

                     31                     32                     33
                      A                      A                      A
 Frequencies --    821.8282               852.7447               889.5959
 Red. masses --      1.1111                 1.8988                 1.5974
 Frc consts  --      0.4421                 0.8135                 0.7448
 IR Inten    --      1.4862                 9.3476                 7.7303

                     34                     35                     36
                      A                      A                      A
 Frequencies --    904.0688               938.3259               966.1967
 Red. masses --      1.8391                 1.9764                 1.8988
 Frc consts  --      0.8856                 1.0252                 1.0444
 IR Inten    --      2.4648                 0.3947                30.3420

                     37                     38                     39
                      A                      A                      A
 Frequencies --    976.3917              1002.8366              1019.5414
 Red. masses --      2.1466                 1.7529                 1.9641
 Frc consts  --      1.2057                 1.0386                 1.2029
 IR Inten    --      2.2603                 0.7194                34.5399

                     40                     41                     42
                      A                      A                      A
 Frequencies --   1039.3940              1070.3563              1072.6358
 Red. masses --      2.4791                 2.3409                 2.5224
 Frc consts  --      1.5780                 1.5801                 1.7099
 IR Inten    --      5.4670                 1.6778                15.8299

                     43                     44                     45
                      A                      A                      A
 Frequencies --   1087.0932              1121.0886              1130.3272
 Red. masses --      3.6560                 2.4707                 2.0185
 Frc consts  --      2.5456                 1.8296                 1.5194
 IR Inten    --    143.1441               117.7146                 3.7099

                     46                     47                     48
                      A                      A                      A
 Frequencies --   1135.5932              1152.4723              1169.0988
 Red. masses --      2.6477                 2.7955                 2.7746
 Frc consts  --      2.0117                 2.1876                 2.2343
 IR Inten    --     83.6158                28.7565               116.1773

                     49                     50                     51
                      A                      A                      A
 Frequencies --   1188.4512              1200.2944              1239.3734
 Red. masses --      1.7083                 2.4371                 2.4086
 Frc consts  --      1.4216                 2.0687                 2.1798
 IR Inten    --     23.3729                46.6770                36.0778

                     52                     53                     54
                      A                      A                      A
 Frequencies --   1243.8088              1260.6899              1300.0071
 Red. masses --      1.6849                 1.3222                 1.1023
 Frc consts  --      1.5358                 1.2381                 1.0976
 IR Inten    --     26.2432                 8.6567                 1.0777

                     55                     56                     57
                      A                      A                      A
 Frequencies --   1309.0439              1318.3233              1330.7459
 Red. masses --      1.3548                 1.1862                 1.0750
 Frc consts  --      1.3678                 1.2146                 1.1216
 IR Inten    --      5.6127                 5.6530                 1.8794

                     58                     59                     60
                      A                      A                      A
 Frequencies --   1351.7294              1374.6640              1375.9748
 Red. masses --      1.1810                 1.4031                 1.2736
 Frc consts  --      1.2714                 1.5622                 1.4208
 IR Inten    --     42.1448                13.6494                25.8122

                     61                     62                     63
                      A                      A                      A
 Frequencies --   1377.9430              1396.8644              1397.6308
 Red. masses --      1.2564                 1.5418                 1.2632
 Frc consts  --      1.4056                 1.7725                 1.4538
 IR Inten    --     29.7566                 4.7643                 5.8379

                     64                     65                     66
                      A                      A                      A
 Frequencies --   1407.8647              1412.9915              1419.5206
 Red. masses --      1.2366                 1.2416                 1.4440
 Frc consts  --      1.4441                 1.4605                 1.7143
 IR Inten    --     17.2205                 0.5211                38.8915

                     67                     68                     69
                      A                      A                      A
 Frequencies --   1438.4880              1462.5488              1473.9801
 Red. masses --      1.3363                 1.0626                 1.0668
 Frc consts  --      1.6292                 1.3392                 1.3656
 IR Inten    --      5.0523                 5.6391                 3.2464

                     70                     71                     72
                      A                      A                      A
 Frequencies --   1476.5494              1482.5761              1485.3332
 Red. masses --      1.0686                 1.0496                 1.0402
 Frc consts  --      1.3727                 1.3593                 1.3521
 IR Inten    --      4.8465                 2.7933                 4.9343

                     73                     74                     75
                      A                      A                      A
 Frequencies --   1486.8206              1489.2151              1499.3745
 Red. masses --      1.0613                 1.0566                 1.0717
 Frc consts  --      1.3824                 1.3806                 1.4196
 IR Inten    --      0.8742                 0.7831                 0.1587

                     76                     77                     78
                      A                      A                      A
 Frequencies --   1499.7009              1501.4185              1512.9201
 Red. masses --      1.0405                 1.0445                 1.0882
 Frc consts  --      1.3788                 1.3873                 1.4676
 IR Inten    --      5.0773                 1.9986                 2.8547

                     79                     80                     81
                      A                      A                      A
 Frequencies --   1529.2687              1805.5831              2918.5383
 Red. masses --      1.0901                10.9024                 1.0815
 Frc consts  --      1.5020                20.9415                 5.4278
 IR Inten    --      2.7235               139.1489                38.6932

                     82                     83                     84
                      A                      A                      A
 Frequencies --   2972.2135              3001.2788              3006.8896
 Red. masses --      1.0549                 1.1054                 1.0743
 Frc consts  --      5.4908                 5.8668                 5.7226
 IR Inten    --     56.4771                39.2727                 6.3949

                     85                     86                     87
                      A                      A                      A
 Frequencies --   3009.0732              3014.6555              3028.4181
 Red. masses --      1.0712                 1.0617                 1.0402
 Frc consts  --      5.7145                 5.6852                 5.6206
 IR Inten    --     13.4340                22.7506                17.5114

                     88                     89                     90
                      A                      A                      A
 Frequencies --   3029.7278              3040.0933              3045.0965
 Red. masses --      1.0580                 1.0951                 1.0346
 Frc consts  --      5.7218                 5.9633                 5.6525
 IR Inten    --     56.1920                14.8624                15.7708

                     91                     92                     93
                      A                      A                      A
 Frequencies --   3050.9779              3051.8916              3061.3157
 Red. masses --      1.0344                 1.0355                 1.0973
 Frc consts  --      5.6732                 5.6824                 6.0589
 IR Inten    --     10.5921                 5.9409                 2.8980

                     94                     95                     96
                      A                      A                      A
 Frequencies --   3082.0798              3095.7472              3101.0314
 Red. masses --      1.1026                 1.1021                 1.1010
 Frc consts  --      6.1711                 6.2231                 6.2378
 IR Inten    --     25.2846                66.0148                39.1249

                     97                     98                     99
                      A                      A                      A
 Frequencies --   3118.7722              3124.0473              3126.4384
 Red. masses --      1.1016                 1.0972                 1.1030
 Frc consts  --      6.3130                 6.3093                 6.3522
 IR Inten    --     23.4542                 5.5643                14.1992

                    100                    101                    102
                      A                      A                      A
 Frequencies --   3127.2509              3135.6840              3153.6844
 Red. masses --      1.1020                 1.1027                 1.1043
 Frc consts  --      6.3495                 6.3881                 6.4711
 IR Inten    --     25.7799                15.0792                10.0413

 - Thermochemistry -
 -------------------
 Temperature   298.150 Kelvin.  Pressure   1.00000 Atm.
 Atom     1 has atomic number  6 and mass  12.00000

 Molecular mass:   202.15689 amu.
 Principal axes and moments of inertia in atomic units:
                           1         2         3
     Eigenvalues --  1847.801575371.024226360.79503
           X            1.00000  -0.00056   0.00071
           Y            0.00058   0.99969  -0.02481
           Z           -0.00069   0.02481   0.99969
 This molecule is an asymmetric top.
 Rotational symmetry number  1.
 Warning -- assumption of classical behavior for rotation
           may cause significant error
 Rotational temperatures (Kelvin)      0.04687     0.01613     0.01362
 Rotational constants (GHZ):           0.97670     0.33601     0.28373
 Zero-point vibrational energy     837730.0 (Joules/Mol)
                                  200.22227 (Kcal/Mol)
 Warning -- explicit consideration of  26 degrees of freedom as
           vibrations may cause significant error
 Vibrational temperatures:     38.75    45.78    78.61    87.56    91.78
          (Kelvin)            114.14   134.88   175.04   184.22   203.86
                              265.63   276.92   299.96   318.09   353.42
                              374.69   381.63   415.32   452.86   549.10
                              583.27   635.49   740.72   768.68   825.04
                              841.30   897.69  1061.64  1126.82  1148.85
                             1182.43  1226.91  1279.93  1300.75  1350.04
                             1390.14  1404.81  1442.86  1466.89  1495.46
                             1540.00  1543.28  1564.08  1613.00  1626.29
                             1633.87  1658.15  1682.07  1709.92  1726.96
                             1783.18  1789.56  1813.85  1870.42  1883.42
                             1896.77  1914.65  1944.84  1977.83  1979.72
                             1982.55  2009.78  2010.88  2025.60  2032.98
                             2042.37  2069.66  2104.28  2120.73  2124.43
                             2133.10  2137.06  2139.20  2142.65  2157.27
                             2157.74  2160.21  2176.75  2200.28  2597.83
                             4199.13  4276.35  4318.17  4326.24  4329.39
                             4337.42  4357.22  4359.10  4374.02  4381.21
                             4389.68  4390.99  4404.55  4434.43  4454.09
                             4461.69  4487.22  4494.81  4498.25  4499.42
                             4511.55  4537.45

 Zero-point correction=                           0.319074 (Hartree/Particle)
 Thermal correction to Energy=                    0.337155
 Thermal correction to Enthalpy=                  0.338099
 Thermal correction to Gibbs Free Energy=         0.271311
 Sum of electronic and zero-point Energies=           -657.826236
 Sum of electronic and thermal Energies=              -657.808156
 Sum of electronic and thermal Enthalpies=            -657.807212
 Sum of electronic and thermal Free Energies=         -657.874000

                     E (Thermal)             CV                S
                      KCal/Mol        Cal/Mol-Kelvin    Cal/Mol-Kelvin
 Total                  211.568             63.643            140.568
 Electronic               0.000              0.000              0.000
 Translational            0.889              2.981             41.816
 Rotational               0.889              2.981             32.512
 Vibrational            209.790             57.681             66.239
 Vibration     1          0.593              1.984              6.044
 Vibration     2          0.594              1.983              5.713
 Vibration     3          0.596              1.976              4.642
 Vibration     4          0.597              1.973              4.429
 Vibration     5          0.597              1.972              4.336
 Vibration     6          0.600              1.963              3.907
 Vibration     7          0.603              1.954              3.580
 Vibration     8          0.609              1.931              3.074
 Vibration     9          0.611              1.925              2.975
 Vibration    10          0.615              1.912              2.781
 Vibration    11          0.631              1.861              2.281
 Vibration    12          0.634              1.850              2.204
 Vibration    13          0.642              1.828              2.057
 Vibration    14          0.648              1.809              1.950
 Vibration    15          0.660              1.770              1.762
 Vibration    16          0.668              1.745              1.659
 Vibration    17          0.671              1.737              1.627
 Vibration    18          0.685              1.695              1.482
 Vibration    19          0.702              1.645              1.337
 Vibration    20          0.751              1.509              1.033
 Vibration    21          0.770              1.458              0.943
 Vibration    22          0.801              1.379              0.821
 Vibration    23          0.870              1.217              0.622
 Vibration    24          0.889              1.174              0.578
 Vibration    25          0.930              1.089              0.498
 Vibration    26          0.942              1.064              0.477

 Optimization completed.
    -- Stationary point found.
 Normal termination of Gaussian 16 at Tue May 23 17:59:43 2023.
