 Gaussian 16, Revision A.03,
 Gaussian 16:  ES64L-G16RevA.03 25-Dec-2016

 -----------------------------
 # opt freq b3lyp/6-31g(2df,p)
 -----------------------------

 -------------------
 Title Card Required
 -------------------
 Symbolic Z-matrix:
 Charge =  0 Multiplicity = 1

 SCF Done:  E(RB3LYP) =  -606.938218932     A.U. after   11 cycles
 SCF Done:  E(RB3LYP) =  -606.952333056     A.U. after   11 cycles
 SCF Done:  E(RB3LYP) =  -606.959355052     A.U. after   10 cycles
 SCF Done:  E(RB3LYP) =  -606.964903234     A.U. after   11 cycles
 SCF Done:  E(RB3LYP) =  -606.967115402     A.U. after   10 cycles
 SCF Done:  E(RB3LYP) =  -606.970116967     A.U. after   10 cycles
 SCF Done:  E(RB3LYP) =  -606.972297977     A.U. after   10 cycles
 SCF Done:  E(RB3LYP) =  -606.973109900     A.U. after   11 cycles
 SCF Done:  E(RB3LYP) =  -606.973746341     A.U. after   10 cycles
 SCF Done:  E(RB3LYP) =  -606.973831221     A.U. after    9 cycles
 SCF Done:  E(RB3LYP) =  -606.973976007     A.U. after    9 cycles
 SCF Done:  E(RB3LYP) =  -606.974047360     A.U. after    8 cycles
 SCF Done:  E(RB3LYP) =  -606.974057482     A.U. after    9 cycles
 SCF Done:  E(RB3LYP) =  -606.974069666     A.U. after    8 cycles
 SCF Done:  E(RB3LYP) =  -606.974070627     A.U. after    7 cycles
 SCF Done:  E(RB3LYP) =  -606.974070854     A.U. after    6 cycles
 SCF Done:  E(RB3LYP) =  -606.974070994     A.U. after    6 cycles
 Optimization completed.
    -- Stationary point found.
 Normal termination of Gaussian 16 at Tue May 23 13:34:44 2023.

 ----------------------------------------------------------------------
 #N Geom=AllCheck Guess=TCheck SCRF=Check GenChk RB3LYP/6-31G(2df,p) Fr
 eq
 ----------------------------------------------------------------------

 Structure from the checkpoint file:  "CCCCCCCqCCqCrNrCqCrCC.chk"
 -------------------
 Title Card Required
 -------------------
 Charge =  0 Multiplicity = 1

                         Standard orientation:
 ---------------------------------------------------------------------
 Center     Atomic      Atomic             Coordinates (Angstroms)
 Number     Number       Type             X           Y           Z
 ---------------------------------------------------------------------
      1          6           0        6.356974   -0.582683    0.462425
      2          6           0        5.103975   -0.722385   -0.406318
      3          6           0        3.805019   -0.439208    0.356036
      4          6           0        2.545532   -0.577137   -0.505783
      5          6           0        1.246574   -0.292362    0.256461
      6          6           0       -0.012278   -0.464738   -0.604851
      7          6           0       -1.357076   -0.176176    0.120348
      8          6           0       -1.904360    1.240500   -0.162784
      9          6           0       -1.046444    2.445034    0.293658
     10          6           0       -0.064395    2.954731   -0.774127
     11          7           0       -1.969142    3.504062    0.752991
     12          6           0       -2.386643   -1.305207   -0.210246
     13          6           0       -1.961677   -2.611273    0.485610
     14          6           0       -3.849160   -0.961579    0.140495
     15          6           0       -4.859068   -2.072507   -0.175185
     16          1           0        7.266946   -0.790627   -0.109324
     17          1           0        6.330600   -1.276972    1.309839
     18          1           0        6.444783    0.430518    0.870580
     19          1           0        5.061656   -1.735312   -0.828510
     20          1           0        5.175159   -0.040974   -1.264642
     21          1           0        3.847314    0.574411    0.779278
     22          1           0        3.733723   -1.120523    1.215657
     23          1           0        2.503475   -1.591100   -0.928244
     24          1           0        2.619058    0.102581   -1.366762
     25          1           0        1.288893    0.721725    0.673143
     26          1           0        1.178482   -0.966032    1.121964
     27          1           0       -0.012966   -1.491786   -0.987475
     28          1           0        0.060514    0.167507   -1.498365
     29          1           0       -1.176195   -0.230733    1.204915
     30          1           0       -2.852132    1.353508    0.367152
     31          1           0       -2.128946    1.339186   -1.235741
     32          1           0       -0.474893    2.143856    1.181323
     33          1           0       -0.609894    3.266160   -1.673492
     34          1           0        0.670032    2.202699   -1.074251
     35          1           0        0.488924    3.824873   -0.402391
     36          1           0       -2.544047    3.802467   -0.033438
     37          1           0       -1.431347    4.326524    1.017937
     38          1           0       -2.347460   -1.469550   -1.298632
     39          1           0       -2.122764   -2.536000    1.568208
     40          1           0       -0.904006   -2.838628    0.327488
     41          1           0       -2.532745   -3.470185    0.123731
     42          1           0       -4.153880   -0.066682   -0.409949
     43          1           0       -3.915630   -0.702521    1.206789
     44          1           0       -4.780237   -2.393318   -1.220674
     45          1           0       -5.882358   -1.717952   -0.015625
     46          1           0       -4.717914   -2.955609    0.454142
 ---------------------------------------------------------------------

 SCF Done:  E(RB3LYP) =  -606.974070994     A.U. after    1 cycles

 The electronic state is 1-A.
 Alpha  occ. eigenvalues --  -14.30051 -10.20466 -10.17902 -10.17816 -10.17491
 Alpha  occ. eigenvalues --  -10.17293 -10.17262 -10.17241 -10.17094 -10.16962
 Alpha  occ. eigenvalues --  -10.16929 -10.16913 -10.16735 -10.16685 -10.16530
 Alpha  occ. eigenvalues --   -0.87699  -0.81857  -0.79768  -0.76930  -0.74665
 Alpha  occ. eigenvalues --   -0.72487  -0.70357  -0.69304  -0.64592  -0.63379
 Alpha  occ. eigenvalues --   -0.59660  -0.57241  -0.57185  -0.56621  -0.54334
 Alpha  occ. eigenvalues --   -0.48352  -0.47241  -0.45882  -0.45233  -0.43885
 Alpha  occ. eigenvalues --   -0.43300  -0.42237  -0.42144  -0.41096  -0.40682
 Alpha  occ. eigenvalues --   -0.39845  -0.39662  -0.38360  -0.38042  -0.37166
 Alpha  occ. eigenvalues --   -0.36931  -0.35852  -0.35228  -0.34778  -0.33846
 Alpha  occ. eigenvalues --   -0.33532  -0.32994  -0.32379  -0.32059  -0.31834
 Alpha  occ. eigenvalues --   -0.31551  -0.31396  -0.30366  -0.29320  -0.28156
 Alpha  occ. eigenvalues --   -0.23102
 Alpha virt. eigenvalues --    0.07512   0.08979   0.09340   0.10127   0.10514
 Alpha virt. eigenvalues --    0.11553   0.12215   0.12980   0.13260   0.13615
 Alpha virt. eigenvalues --    0.14181   0.14598   0.14824   0.14998   0.16246

 Mulliken charges:
               1
     1  C   -0.379056
     2  C   -0.162328
     3  C   -0.159379
     4  C   -0.181907
     5  C   -0.187813
     6  C   -0.201225
     7  C    0.016312
     8  C   -0.211544
     9  C    0.041606
    10  C   -0.394033
    11  N   -0.512962
    12  C    0.033873
    13  C   -0.398795
    14  C   -0.183173
    15  C   -0.396410
    16  H    0.109505
    17  H    0.112556
    18  H    0.112192
    19  H    0.092921
    20  H    0.092532
    21  H    0.089688
    22  H    0.090179
    23  H    0.090755
    24  H    0.091046
    25  H    0.099858
    26  H    0.091095
    27  H    0.090363
    28  H    0.088787
    29  H    0.064693
    30  H    0.113244
    31  H    0.079046
    32  H    0.078725
    33  H    0.104481
    34  H    0.122516
    35  H    0.100687
    36  H    0.216126
    37  H    0.216772
    38  H    0.063703
    39  H    0.109591
    40  H    0.111733
    41  H    0.113733
    42  H    0.098512
    43  H    0.094252
    44  H    0.110461
    45  H    0.109397
    46  H    0.117688
 Sum of Mulliken charges =  -0.00000

 Dipole moment (field-independent basis, Debye):
    X=              0.5586    Y=              0.4237    Z=             -0.8614  Tot=              1.1107
 Quadrupole moment (field-independent basis, Debye-Ang):
   XX=           -103.5059   YY=            -95.9956   ZZ=           -101.6891
   XY=              0.8046   XZ=              3.0755   YZ=             -2.6916

  Exact polarizability: 193.418   3.457 165.584   0.565   0.050 134.470
 Approx polarizability: 223.986  -0.320 225.148   1.127   1.082 218.962

                      1                      2                      3
                      A                      A                      A
 Frequencies --     22.6036                37.0370                46.8202
 Red. masses --      3.3385                 2.1938                 2.5668
 Frc consts  --      0.0010                 0.0018                 0.0033
 IR Inten    --      0.0091                 0.0977                 0.1315

                      4                      5                      6
                      A                      A                      A
 Frequencies --     56.8034                72.8508                86.4481
 Red. masses --      2.2902                 2.4743                 2.8490
 Frc consts  --      0.0044                 0.0077                 0.0125
 IR Inten    --      0.2368                 0.2596                 0.1654

                      7                      8                      9
                      A                      A                      A
 Frequencies --     91.1453               112.4421               131.3359
 Red. masses --      2.7439                 3.2649                 1.9512
 Frc consts  --      0.0134                 0.0243                 0.0198
 IR Inten    --      0.0912                 0.1153                 0.4875

                     10                     11                     12
                      A                      A                      A
 Frequencies --    138.1989               158.4910               189.7350
 Red. masses --      1.7516                 2.0741                 2.2918
 Frc consts  --      0.0197                 0.0307                 0.0486
 IR Inten    --      0.0384                 0.1795                 0.0600

                     13                     14                     15
                      A                      A                      A
 Frequencies --    209.8433               214.5704               231.3733
 Red. masses --      1.2512                 2.1350                 2.1141
 Frc consts  --      0.0325                 0.0579                 0.0667
 IR Inten    --      0.4218                 1.8682                 3.7332

                     16                     17                     18
                      A                      A                      A
 Frequencies --    247.0841               251.5451               254.1846
 Red. masses --      1.1243                 1.3635                 1.0784
 Frc consts  --      0.0404                 0.0508                 0.0411
 IR Inten    --      0.0835                10.2081                10.2931

                     19                     20                     21
                      A                      A                      A
 Frequencies --    268.1896               298.7832               339.9028
 Red. masses --      2.1040                 1.9231                 2.1893
 Frc consts  --      0.0892                 0.1011                 0.1490
 IR Inten    --      3.1245                 0.5233                 3.8271

                     22                     23                     24
                      A                      A                      A
 Frequencies --    350.8288               359.9468               401.0733
 Red. masses --      2.4154                 2.5672                 2.6572
 Frc consts  --      0.1752                 0.1960                 0.2518
 IR Inten    --      0.1837                 5.7068                 0.0390

                     25                     26                     27
                      A                      A                      A
 Frequencies --    425.9519               435.2981               444.9624
 Red. masses --      2.3001                 2.4545                 2.1585
 Frc consts  --      0.2459                 0.2740                 0.2518
 IR Inten    --      0.0354                 0.8254                 7.6526

                     28                     29                     30
                      A                      A                      A
 Frequencies --    507.3799               535.6577               546.5236
 Red. masses --      2.6536                 2.7370                 2.2668
 Frc consts  --      0.4025                 0.4627                 0.3989
 IR Inten    --      0.5016                 0.9311                 1.3318

                     31                     32                     33
                      A                      A                      A
 Frequencies --    727.6770               737.6049               778.5169
 Red. masses --      1.0712                 1.1034                 1.3723
 Frc consts  --      0.3342                 0.3537                 0.4900
 IR Inten    --      5.6195                 0.0720                 1.7576

                     34                     35                     36
                      A                      A                      A
 Frequencies --    788.3422               829.9403               842.4544
 Red. masses --      1.1937                 1.8469                 2.2601
 Frc consts  --      0.4371                 0.7495                 0.9451
 IR Inten    --      1.3414                 2.5602                 0.6566

                     37                     38                     39
                      A                      A                      A
 Frequencies --    864.5012               880.0373               898.8616
 Red. masses --      2.1070                 1.3887                 1.9447
 Frc consts  --      0.9278                 0.6337                 0.9257
 IR Inten    --     14.2697                 5.7334                 6.8333

                     40                     41                     42
                      A                      A                      A
 Frequencies --    915.4695               922.5015               940.1699
 Red. masses --      1.3739                 1.6897                 1.6566
 Frc consts  --      0.6784                 0.8472                 0.8627
 IR Inten    --     80.7179                27.0317                10.8096

                     43                     44                     45
                      A                      A                      A
 Frequencies --    965.3336               973.4769               991.6841
 Red. masses --      1.3858                 1.6737                 1.4798
 Frc consts  --      0.7609                 0.9345                 0.8574
 IR Inten    --      5.4138                 0.3110                 0.9472

                     46                     47                     48
                      A                      A                      A
 Frequencies --   1003.4367              1019.0104              1025.8996
 Red. masses --      2.1830                 2.4910                 2.0353
 Frc consts  --      1.2951                 1.5240                 1.2621
 IR Inten    --      0.8662                 1.8152                 0.6132

                     49                     50                     51
                      A                      A                      A
 Frequencies --   1031.4572              1040.1805              1056.7760
 Red. masses --      1.9595                 2.3611                 2.4781
 Frc consts  --      1.2283                 1.5052                 1.6305
 IR Inten    --      2.0037                 0.2056                 0.1923

                     52                     53                     54
                      A                      A                      A
 Frequencies --   1066.0239              1070.5836              1083.3729
 Red. masses --      1.7751                 2.1772                 2.1326
 Frc consts  --      1.1885                 1.4703                 1.4747
 IR Inten    --      2.6522                 0.3382                 4.6445

                     55                     56                     57
                      A                      A                      A
 Frequencies --   1117.0553              1135.6773              1151.7948
 Red. masses --      1.8204                 1.8337                 2.3211
 Frc consts  --      1.3383                 1.3934                 1.8142
 IR Inten    --      6.8289                 0.0214                10.9556

                     58                     59                     60
                      A                      A                      A
 Frequencies --   1169.0312              1179.7110              1186.4424
 Red. masses --      1.7962                 2.0419                 1.9683
 Frc consts  --      1.4463                 1.6743                 1.6324
 IR Inten    --      7.1122                 2.5208                 3.7001

                     61                     62                     63
                      A                      A                      A
 Frequencies --   1211.0735              1227.5936              1242.9729
 Red. masses --      1.6628                 1.5686                 1.3355
 Frc consts  --      1.4369                 1.3927                 1.2157
 IR Inten    --      5.9681                 0.7548                 6.4853

                     64                     65                     66
                      A                      A                      A
 Frequencies --   1266.2553              1275.1939              1289.7357
 Red. masses --      1.3322                 1.3178                 1.2690
 Frc consts  --      1.2585                 1.2625                 1.2437
 IR Inten    --      6.5426                 0.3203                 1.9311

                     67                     68                     69
                      A                      A                      A
 Frequencies --   1303.2137              1318.4544              1324.4207
 Red. masses --      1.2648                 1.2691                 1.1231
 Frc consts  --      1.2656                 1.2998                 1.1607
 IR Inten    --      2.1873                 0.5306                 0.7451

                     70                     71                     72
                      A                      A                      A
 Frequencies --   1328.9399              1336.5639              1350.2132
 Red. masses --      1.0859                 1.0963                 1.3200
 Frc consts  --      1.1300                 1.1538                 1.4178
 IR Inten    --      0.1379                 1.9094                 1.2258

                     73                     74                     75
                      A                      A                      A
 Frequencies --   1353.1006              1357.2955              1370.1364
 Red. masses --      1.1847                 1.3066                 1.3719
 Frc consts  --      1.2779                 1.4182                 1.5174
 IR Inten    --      2.5504                 4.4432                 3.7783

                     76                     77                     78
                      A                      A                      A
 Frequencies --   1379.1373              1381.8134              1389.8373
 Red. masses --      1.3768                 1.4235                 1.3532
 Frc consts  --      1.5429                 1.6014                 1.5401
 IR Inten    --      1.5473                 2.8282                 0.9276

                     79                     80                     81
                      A                      A                      A
 Frequencies --   1396.3831              1400.2471              1403.1457
 Red. masses --      1.4733                 1.5693                 1.2927
 Frc consts  --      1.6926                 1.8129                 1.4995
 IR Inten    --      0.6706                 1.7289                 7.6133

                     82                     83                     84
                      A                      A                      A
 Frequencies --   1409.2411              1413.1148              1413.6360
 Red. masses --      1.2586                 1.2516                 1.2236
 Frc consts  --      1.4727                 1.4726                 1.4407
 IR Inten    --      2.4331                 0.1854                 3.4021

                     85                     86                     87
                      A                      A                      A
 Frequencies --   1415.5787              1479.6759              1481.4593
 Red. masses --      1.2917                 1.0703                 1.0730
 Frc consts  --      1.5250                 1.3807                 1.3875
 IR Inten    --      4.3328                 1.0194                 0.8858

                     88                     89                     90
                      A                      A                      A
 Frequencies --   1483.6708              1485.7713              1490.6893
 Red. masses --      1.0692                 1.0607                 1.0663
 Frc consts  --      1.3867                 1.3796                 1.3961
 IR Inten    --      0.1632                 1.4646                 0.5260

                     91                     92                     93
                      A                      A                      A
 Frequencies --   1492.0212              1496.7759              1498.4315
 Red. masses --      1.0730                 1.0605                 1.0590
 Frc consts  --      1.4073                 1.3999                 1.4010
 IR Inten    --      0.2751                 5.6769                 2.8755

                     94                     95                     96
                      A                      A                      A
 Frequencies --   1499.8057              1500.7853              1502.9894
 Red. masses --      1.0403                 1.0451                 1.0737
 Frc consts  --      1.3788                 1.3869                 1.4290
 IR Inten    --      5.0078                 0.8081                 1.8814

                     97                     98                     99
                      A                      A                      A
 Frequencies --   1506.4175              1512.1208              1515.8071
 Red. masses --      1.0703                 1.0770                 1.0708
 Frc consts  --      1.4310                 1.4509                 1.4496
 IR Inten    --      4.8642                 1.3143                 3.4025

                    100                    101                    102
                      A                      A                      A
 Frequencies --   1522.0600              1656.8237              2972.7318
 Red. masses --      1.0659                 1.0890                 1.0794
 Frc consts  --      1.4549                 1.7612                 5.6203
 IR Inten    --      5.2977                21.8234                 1.5836

                    103                    104                    105
                      A                      A                      A
 Frequencies --   2983.5314              2996.9024              2997.4400
 Red. masses --      1.0803                 1.0643                 1.0663
 Frc consts  --      5.6657                 5.6319                 5.6447
 IR Inten    --      9.1074                10.9896                 8.2121

                    106                    107                    108
                      A                      A                      A
 Frequencies --   3001.1268              3010.8891              3011.9749
 Red. masses --      1.0589                 1.0642                 1.0675
 Frc consts  --      5.6189                 5.6843                 5.7058
 IR Inten    --      5.0427                 1.0088                25.3435

                    109                    110                    111
                      A                      A                      A
 Frequencies --   3015.3584              3017.4972              3019.5033
 Red. masses --      1.0607                 1.0820                 1.0909
 Frc consts  --      5.6821                 5.8047                 5.8601
 IR Inten    --     56.8863                20.6192                 7.4493

                    112                    113                    114
                      A                      A                      A
 Frequencies --   3022.5435              3027.6784              3029.5924
 Red. masses --      1.0439                 1.0357                 1.0639
 Frc consts  --      5.6190                 5.5938                 5.7531
 IR Inten    --     26.1175                37.3321                51.8607

                    115                    116                    117
                      A                      A                      A
 Frequencies --   3029.9180              3031.3042              3033.2112
 Red. masses --      1.0478                 1.0440                 1.0828
 Frc consts  --      5.6674                 5.6522                 5.8693
 IR Inten    --     11.5431                24.6545                43.5827

                    118                    119                    120
                      A                      A                      A
 Frequencies --   3045.2505              3054.6959              3068.8483
 Red. masses --      1.0974                 1.1042                 1.1028
 Frc consts  --      5.9958                 6.0709                 6.1192
 IR Inten    --     14.0240                11.1200               104.1377

                    121                    122                    123
                      A                      A                      A
 Frequencies --   3071.5386              3083.4368              3093.4725
 Red. masses --      1.0937                 1.1010                 1.1001
 Frc consts  --      6.0794                 6.1674                 6.2023
 IR Inten    --     31.9723                38.6197                33.8347

                    124                    125                    126
                      A                      A                      A
 Frequencies --   3093.7483              3098.1565              3099.1671
 Red. masses --      1.1020                 1.0947                 1.1009
 Frc consts  --      6.2145                 6.1908                 6.2302
 IR Inten    --     59.5009                42.7857                41.9113

                    127                    128                    129
                      A                      A                      A
 Frequencies --   3101.7533              3108.9400              3114.5678
 Red. masses --      1.0909                 1.0996                 1.0967
 Frc consts  --      6.1836                 6.2619                 6.2679
 IR Inten    --      9.9320                53.8222                37.8360

                    130                    131                    132
                      A                      A                      A
 Frequencies --   3116.7617              3456.8068              3534.1009
 Red. masses --      1.0995                 1.0493                 1.0910
 Frc consts  --      6.2931                 7.3874                 8.0283
 IR Inten    --     30.4184                 2.6051                 0.8382

 - Thermochemistry -
 -------------------
 Temperature   298.150 Kelvin.  Pressure   1.00000 Atm.
 Atom     1 has atomic number  6 and mass  12.00000

 Molecular mass:   213.24565 amu.
 Principal axes and moments of inertia in atomic units:
                           1         2         3
     Eigenvalues --  2684.718937968.88666**********
           X            0.99997   0.00725   0.00200
           Y           -0.00724   0.99994  -0.00849
           Z           -0.00206   0.00847   0.99996
 This molecule is an asymmetric top.
 Rotational symmetry number  1.
 Warning -- assumption of classical behavior for rotation
           may cause significant error
 Rotational temperatures (Kelvin)      0.03226     0.01087     0.00851
 Rotational constants (GHZ):           0.67223     0.22647     0.17736
 Zero-point vibrational energy    1135765.0 (Joules/Mol)
                                  271.45436 (Kcal/Mol)
 Warning -- explicit consideration of  30 degrees of freedom as
           vibrations may cause significant error
 Vibrational temperatures:     32.52    53.29    67.36    81.73   104.82
          (Kelvin)            124.38   131.14   161.78   188.96   198.84
                              228.03   272.99   301.92   308.72   332.89
                              355.50   361.92   365.71   385.87   429.88
                              489.04   504.76   517.88   577.05   612.85
                              626.30   640.20   730.01   770.69   786.33
                             1046.96  1061.25  1120.11  1134.25  1194.10
                             1212.10  1243.82  1266.18  1293.26  1317.16
                             1327.27  1352.69  1388.90  1400.62  1426.81
                             1443.72  1466.13  1476.04  1484.04  1496.59
                             1520.46  1533.77  1540.33  1558.73  1607.19
                             1633.99  1657.18  1681.98  1697.34  1707.03
                             1742.46  1766.23  1788.36  1821.86  1834.72
                             1855.64  1875.03  1896.96  1905.55  1912.05
                             1923.02  1942.66  1946.81  1952.85  1971.32
                             1984.27  1988.12  1999.67  2009.08  2014.64
                             2018.81  2027.58  2033.16  2033.91  2036.70
                             2128.92  2131.49  2134.67  2137.69  2144.77
                             2146.69  2153.53  2155.91  2157.89  2159.30
                             2162.47  2167.40  2175.60  2180.91  2189.90
                             2383.80  4277.10  4292.64  4311.87  4312.65
                             4317.95  4332.00  4333.56  4338.43  4341.51
                             4344.39  4348.77  4356.15  4358.91  4359.38
                             4361.37  4364.11  4381.44  4395.03  4415.39
                             4419.26  4436.38  4450.82  4451.21  4457.56
                             4459.01  4462.73  4473.07  4481.17  4484.32
                             4973.57  5084.78

 Zero-point correction=                           0.432590 (Hartree/Particle)
 Thermal correction to Energy=                    0.452832
 Thermal correction to Enthalpy=                  0.453776
 Thermal correction to Gibbs Free Energy=         0.382795
 Sum of electronic and zero-point Energies=           -606.541481
 Sum of electronic and thermal Energies=              -606.521239
 Sum of electronic and thermal Enthalpies=            -606.520295
 Sum of electronic and thermal Free Energies=         -606.591276

                     E (Thermal)             CV                S
                      KCal/Mol        Cal/Mol-Kelvin    Cal/Mol-Kelvin
 Total                  284.157             74.466            149.392
 Electronic               0.000              0.000              0.000
 Translational            0.889              2.981             41.975
 Rotational               0.889              2.981             33.742
 Vibrational            282.379             68.504             73.675
 Vibration     1          0.593              1.985              6.391
 Vibration     2          0.594              1.982              5.412
 Vibration     3          0.595              1.979              4.947
 Vibration     4          0.596              1.975              4.565
 Vibration     5          0.599              1.967              4.075
 Vibration     6          0.601              1.959              3.739
 Vibration     7          0.602              1.955              3.635
 Vibration     8          0.607              1.939              3.226
 Vibration     9          0.612              1.922              2.926
 Vibration    10          0.614              1.915              2.829
 Vibration    11          0.621              1.893              2.568
 Vibration    12          0.633              1.854              2.230
 Vibration    13          0.642              1.826              2.045
 Vibration    14          0.644              1.819              2.004
 Vibration    15          0.653              1.793              1.868
 Vibration    16          0.661              1.768              1.751
 Vibration    17          0.664              1.760              1.720
 Vibration    18          0.665              1.756              1.701
 Vibration    19          0.673              1.732              1.608
 Vibration    20          0.692              1.676              1.424
 Vibration    21          0.720              1.596              1.213
 Vibration    22          0.728              1.574              1.162
 Vibration    23          0.734              1.555              1.122
 Vibration    24          0.767              1.468              0.959
 Vibration    25          0.788              1.414              0.872
 Vibration    26          0.796              1.393              0.842
 Vibration    27          0.804              1.372              0.811
 Vibration    28          0.863              1.234              0.640
 Vibration    29          0.891              1.171              0.575
 Vibration    30          0.902              1.147              0.551

 Optimization completed.
    -- Stationary point found.
 Normal termination of Gaussian 16 at Tue May 23 17:26:48 2023.
