 Gaussian 16, Revision A.03,
 Gaussian 16:  ES64L-G16RevA.03 25-Dec-2016

 -----------------------------
 # opt freq b3lyp/6-31g(2df,p)
 -----------------------------

 -------------------
 Title Card Required
 -------------------
 Symbolic Z-matrix:
 Charge =  0 Multiplicity = 1

 SCF Done:  E(RB3LYP) =  -929.870048607     A.U. after   12 cycles
 SCF Done:  E(RB3LYP) =  -929.883054100     A.U. after   10 cycles
 SCF Done:  E(RB3LYP) =  -929.884859224     A.U. after   10 cycles
 SCF Done:  E(RB3LYP) =  -929.885558946     A.U. after   11 cycles
 SCF Done:  E(RB3LYP) =  -929.886217675     A.U. after   11 cycles
 SCF Done:  E(RB3LYP) =  -929.886604551     A.U. after   10 cycles
 SCF Done:  E(RB3LYP) =  -929.886900835     A.U. after    9 cycles
 SCF Done:  E(RB3LYP) =  -929.886945945     A.U. after    9 cycles
 SCF Done:  E(RB3LYP) =  -929.886972765     A.U. after    9 cycles
 SCF Done:  E(RB3LYP) =  -929.886976200     A.U. after    8 cycles
 SCF Done:  E(RB3LYP) =  -929.886977421     A.U. after    8 cycles
 SCF Done:  E(RB3LYP) =  -929.886977690     A.U. after    7 cycles
 SCF Done:  E(RB3LYP) =  -929.886977900     A.U. after    7 cycles
 SCF Done:  E(RB3LYP) =  -929.886977911     A.U. after    7 cycles
 Optimization completed.
    -- Stationary point found.
 Normal termination of Gaussian 16 at Wed May 24 14:40:50 2023.

 ----------------------------------------------------------------------
 #N Geom=AllCheck Guess=TCheck SCRF=Check GenChk RB3LYP/6-31G(2df,p) Fr
 eq
 ----------------------------------------------------------------------

 Structure from the checkpoint file:  "CCCCCC1CC1OCqOrCCCCCOCOC.chk"
 -------------------
 Title Card Required
 -------------------
 Charge =  0 Multiplicity = 1

                         Standard orientation:
 ---------------------------------------------------------------------
 Center     Atomic      Atomic             Coordinates (Angstroms)
 Number     Number       Type             X           Y           Z
 ---------------------------------------------------------------------
      1          6           0       -8.660869    2.929290   -0.251004
      2          6           0       -7.635301    1.907065   -0.748461
      3          6           0       -6.848982    1.240177    0.385181
      4          6           0       -5.820390    0.214681   -0.105165
      5          6           0       -5.045564   -0.440523    1.044730
      6          6           0       -3.998101   -1.473707    0.664050
      7          6           0       -4.125418   -2.442737   -0.498838
      8          6           0       -3.094628   -1.356361   -0.531835
      9          8           0       -1.753660   -1.755441   -0.438641
     10          6           0       -0.862246   -0.725635   -0.075170
     11          8           0       -1.050932   -0.296385    1.255090
     12          6           0        0.547145   -1.251067   -0.335973
     13          6           0        1.640714   -0.220799   -0.042599
     14          6           0        3.054652   -0.762534   -0.277890
     15          6           0        4.146667    0.272788    0.007952
     16          6           0        5.549030   -0.270896   -0.226060
     17          8           0        6.481624    0.752526    0.059672
     18          6           0        7.800563    0.354984   -0.127122
     19          8           0        8.584587    1.460836    0.189745
     20          6           0        9.961277    1.204145    0.044367
     21          1           0       -9.205420    3.388008   -1.082351
     22          1           0       -8.176173    3.733719    0.313536
     23          1           0       -9.397633    2.460807    0.411188
     24          1           0       -6.933063    2.397336   -1.435904
     25          1           0       -8.145038    1.133910   -1.338822
     26          1           0       -7.551076    0.749666    1.074083
     27          1           0       -6.338438    2.013284    0.976303
     28          1           0       -5.123739    0.712506   -0.792373
     29          1           0       -6.337502   -0.553995   -0.694348
     30          1           0       -5.767383   -0.912421    1.726316
     31          1           0       -4.547486    0.345308    1.629206
     32          1           0       -3.495285   -1.905290    1.524837
     33          1           0       -4.966677   -2.359892   -1.177894
     34          1           0       -3.767250   -3.454622   -0.345225
     35          1           0       -3.250594   -0.529088   -1.224015
     36          1           0       -1.062008    0.173928   -0.677190
     37          1           0       -0.861761   -1.051296    1.825836
     38          1           0        0.597895   -1.581603   -1.379541
     39          1           0        0.691146   -2.150768    0.279300
     40          1           0        1.541674    0.124367    0.993019
     41          1           0        1.483341    0.665798   -0.672131
     42          1           0        3.142254   -1.112545   -1.315941
     43          1           0        3.213191   -1.648168    0.353445
     44          1           0        4.075804    0.620219    1.045584
     45          1           0        4.005545    1.155875   -0.626670
     46          1           0        5.660373   -0.610110   -1.270766
     47          1           0        5.733748   -1.148538    0.417800
     48          1           0        7.973844    0.037945   -1.178713
     49          1           0        8.051725   -0.506661    0.529303
     50          1           0       10.489538    2.121124    0.312593
     51          1           0       10.221940    0.933769   -0.991277
     52          1           0       10.300272    0.391909    0.706910
 ---------------------------------------------------------------------

 SCF Done:  E(RB3LYP) =  -929.886977911     A.U. after    1 cycles

 The electronic state is 1-A.
 Alpha  occ. eigenvalues --  -19.14234 -19.14223 -19.14026 -19.14012 -10.27280
 Alpha  occ. eigenvalues --  -10.27209 -10.22853 -10.22746 -10.22614 -10.18236
 Alpha  occ. eigenvalues --  -10.18144 -10.17976 -10.17942 -10.17843 -10.17679
 Alpha  occ. eigenvalues --  -10.17654 -10.17564 -10.17537 -10.17389 -10.16944
 Alpha  occ. eigenvalues --   -1.06819  -1.06210  -1.01255  -0.99889  -0.84947
 Alpha  occ. eigenvalues --   -0.80687  -0.79566  -0.76692  -0.74689  -0.72159
 Alpha  occ. eigenvalues --   -0.68922  -0.67869  -0.64003  -0.62135  -0.61473
 Alpha  occ. eigenvalues --   -0.60102  -0.58954  -0.57776  -0.57456  -0.55411
 Alpha  occ. eigenvalues --   -0.52407  -0.50634  -0.50300  -0.49188  -0.48749
 Alpha  occ. eigenvalues --   -0.47287  -0.47126  -0.46489  -0.45171  -0.44136
 Alpha  occ. eigenvalues --   -0.43377  -0.42837  -0.41989  -0.41224  -0.41117
 Alpha  occ. eigenvalues --   -0.40806  -0.39773  -0.38807  -0.38159  -0.37756
 Alpha  occ. eigenvalues --   -0.37484  -0.36257  -0.35543  -0.34985  -0.34001
 Alpha  occ. eigenvalues --   -0.33842  -0.33338  -0.33180  -0.32592  -0.32486
 Alpha  occ. eigenvalues --   -0.32195  -0.31846  -0.31250  -0.31113  -0.30603
 Alpha  occ. eigenvalues --   -0.28771  -0.26958  -0.26818  -0.24844  -0.24018
 Alpha virt. eigenvalues --    0.07208   0.08450   0.08902   0.09291   0.09914
 Alpha virt. eigenvalues --    0.10361   0.10610   0.11288   0.11832   0.12626
 Alpha virt. eigenvalues --    0.12924   0.13298   0.14106   0.14444   0.14603

 Mulliken charges:
               1
     1  C   -0.378948
     2  C   -0.166738
     3  C   -0.157191
     4  C   -0.185552
     5  C   -0.218060
     6  C   -0.033644
     7  C   -0.337057
     8  C    0.127854
     9  O   -0.253738
    10  C    0.181569
    11  O   -0.404271
    12  C   -0.233163
    13  C   -0.177006
    14  C   -0.187095
    15  C   -0.199077
    16  C   -0.056912
    17  O   -0.233829
    18  C    0.064578
    19  O   -0.217136
    20  C   -0.232649
    21  H    0.109891
    22  H    0.113344
    23  H    0.112702
    24  H    0.093256
    25  H    0.092805
    26  H    0.091049
    27  H    0.092948
    28  H    0.095891
    29  H    0.095423
    30  H    0.093551
    31  H    0.105289
    32  H    0.077729
    33  H    0.112078
    34  H    0.116457
    35  H    0.083083
    36  H    0.076865
    37  H    0.277820
    38  H    0.107727
    39  H    0.092693
    40  H    0.106471
    41  H    0.096323
    42  H    0.094647
    43  H    0.092895
    44  H    0.109011
    45  H    0.108711
    46  H    0.086638
    47  H    0.086234
    48  H    0.064853
    49  H    0.064729
    50  H    0.133758
    51  H    0.106627
    52  H    0.106567
 Sum of Mulliken charges =  -0.00000

 Dipole moment (field-independent basis, Debye):
    X=              0.5485    Y=             -1.9582    Z=             -0.4757  Tot=              2.0885
 Quadrupole moment (field-independent basis, Debye-Ang):
   XX=           -109.0718   YY=           -129.8219   ZZ=           -123.8331
   XY=            -11.8277   XZ=             -3.3929   YZ=             -4.6656

  Exact polarizability: 251.832  -1.637 173.930   1.267   0.708 161.063
 Approx polarizability: 264.694   2.996 255.477   0.445   1.657 252.300

                      1                      2                      3
                      A                      A                      A
 Frequencies --     12.0377                18.3735                21.2011
 Red. masses --      3.9228                 3.5139                 2.6510
 Frc consts  --      0.0003                 0.0007                 0.0007
 IR Inten    --      0.4320                 1.0842                 2.2623

                      4                      5                      6
                      A                      A                      A
 Frequencies --     29.7098                39.0738                40.0399
 Red. masses --      2.2199                 2.6765                 2.6833
 Frc consts  --      0.0012                 0.0024                 0.0025
 IR Inten    --      0.0370                 0.7819                 2.1911

                      7                      8                      9
                      A                      A                      A
 Frequencies --     48.8840                66.4475                72.5155
 Red. masses --      3.5505                 3.6666                 2.1930
 Frc consts  --      0.0050                 0.0095                 0.0068
 IR Inten    --      0.1443                 0.1243                 1.4936

                     10                     11                     12
                      A                      A                      A
 Frequencies --     89.2141                97.9443               104.6532
 Red. masses --      3.3832                 2.7520                 3.6051
 Frc consts  --      0.0159                 0.0156                 0.0233
 IR Inten    --      0.3043                 0.0371                 1.1202

                     13                     14                     15
                      A                      A                      A
 Frequencies --    112.7306               124.3350               131.2914
 Red. masses --      2.6011                 2.0102                 2.3137
 Frc consts  --      0.0195                 0.0183                 0.0235
 IR Inten    --      0.4985                 0.6493                 0.4179

                     16                     17                     18
                      A                      A                      A
 Frequencies --    142.0719               151.8476               159.1451
 Red. masses --      2.1996                 4.8908                 2.6498
 Frc consts  --      0.0262                 0.0664                 0.0395
 IR Inten    --      0.0459                 0.2004                 1.0211

                     19                     20                     21
                      A                      A                      A
 Frequencies --    175.3840               201.7604               212.6618
 Red. masses --      2.8150                 3.2525                 3.5141
 Frc consts  --      0.0510                 0.0780                 0.0936
 IR Inten    --      0.9201                 0.0661                 0.8833

                     22                     23                     24
                      A                      A                      A
 Frequencies --    222.0690               247.7257               283.6066
 Red. masses --      1.1796                 1.1171                 3.6212
 Frc consts  --      0.0343                 0.0404                 0.1716
 IR Inten    --      2.3679                 0.0010                 0.1748

                     25                     26                     27
                      A                      A                      A
 Frequencies --    308.8321               324.7912               349.7925
 Red. masses --      2.6589                 2.2313                 2.3891
 Frc consts  --      0.1494                 0.1387                 0.1722
 IR Inten    --      8.3336                20.8754                36.0287

                     28                     29                     30
                      A                      A                      A
 Frequencies --    359.2882               365.7085               397.6596
 Red. masses --      2.3624                 2.8290                 3.0360
 Frc consts  --      0.1797                 0.2229                 0.2829
 IR Inten    --     30.4901                41.6448                13.0886

                     31                     32                     33
                      A                      A                      A
 Frequencies --    420.9862               463.9937               511.1027
 Red. masses --      2.6544                 3.4514                 3.0443
 Frc consts  --      0.2772                 0.4378                 0.4685
 IR Inten    --     16.3220                 5.6356                 4.7336

                     34                     35                     36
                      A                      A                      A
 Frequencies --    536.9815               558.6672               569.3538
 Red. masses --      3.2141                 2.6163                 3.3521
 Frc consts  --      0.5460                 0.4811                 0.6402
 IR Inten    --     11.7413                 6.3073                 4.7181

                     37                     38                     39
                      A                      A                      A
 Frequencies --    624.8991               732.3252               737.7337
 Red. masses --      4.1740                 1.0876                 1.0757
 Frc consts  --      0.9603                 0.3436                 0.3449
 IR Inten    --     20.9884                 3.0508                 2.7518

                     40                     41                     42
                      A                      A                      A
 Frequencies --    747.4307               769.3038               792.6110
 Red. masses --      1.1957                 1.1554                 1.6509
 Frc consts  --      0.3936                 0.4029                 0.6111
 IR Inten    --      1.0816                 0.0803                 4.5322

                     43                     44                     45
                      A                      A                      A
 Frequencies --    812.6821               839.3132               855.4280
 Red. masses --      1.9639                 1.3611                 1.5847
 Frc consts  --      0.7642                 0.5649                 0.6832
 IR Inten    --      2.0689                 2.3024                 3.2722

                     46                     47                     48
                      A                      A                      A
 Frequencies --    893.1217               905.0319               920.0060
 Red. masses --      1.6315                 1.8874                 1.9407
 Frc consts  --      0.7668                 0.9108                 0.9678
 IR Inten    --      2.7239                 0.9593                24.1920

                     49                     50                     51
                      A                      A                      A
 Frequencies --    952.3339               983.2923               990.9134
 Red. masses --      2.3383                 1.6188                 1.2941
 Frc consts  --      1.2495                 0.9222                 0.7487
 IR Inten    --      7.8326                16.3935                 0.0720

                     52                     53                     54
                      A                      A                      A
 Frequencies --    999.8311              1006.0083              1016.0156
 Red. masses --      3.8086                 2.4218                 2.9398
 Frc consts  --      2.2432                 1.4441                 1.7880
 IR Inten    --     18.0853                 9.7868                35.7035

                     55                     56                     57
                      A                      A                      A
 Frequencies --   1026.9772              1035.4496              1045.4133
 Red. masses --      3.4706                 3.3036                 2.1140
 Frc consts  --      2.1566                 2.0868                 1.3612
 IR Inten    --      1.6903                11.9981                 7.9578

                     58                     59                     60
                      A                      A                      A
 Frequencies --   1063.9210              1067.2639              1069.2844
 Red. masses --      2.4757                 2.5376                 2.2047
 Frc consts  --      1.6511                 1.7030                 1.4852
 IR Inten    --      4.9339                98.0559                 1.1339

                     61                     62                     63
                      A                      A                      A
 Frequencies --   1071.4098              1095.3115              1104.8663
 Red. masses --      2.2899                 2.0289                 1.8559
 Frc consts  --      1.5487                 1.4341                 1.3348
 IR Inten    --      0.6799                54.7258                61.4703

                     64                     65                     66
                      A                      A                      A
 Frequencies --   1109.1871              1120.6330              1127.5434
 Red. masses --      1.1918                 2.0810                 2.4668
 Frc consts  --      0.8639                 1.5397                 1.8478
 IR Inten    --      8.9572                16.0783                68.0671

                     67                     68                     69
                      A                      A                      A
 Frequencies --   1138.5559              1154.9698              1157.5121
 Red. masses --      2.6374                 1.4038                 2.0958
 Frc consts  --      2.0143                 1.1033                 1.6545
 IR Inten    --     21.9938                 4.5216                16.3775

                     70                     71                     72
                      A                      A                      A
 Frequencies --   1162.9260              1168.0105              1182.1702
 Red. masses --      1.7335                 3.5623                 5.8311
 Frc consts  --      1.3812                 2.8633                 4.8013
 IR Inten    --     19.0598               145.8102               482.5218

                     73                     74                     75
                      A                      A                      A
 Frequencies --   1189.0367              1197.1430              1208.3595
 Red. masses --      1.3322                 2.6390                 1.5699
 Frc consts  --      1.1097                 2.2283                 1.3506
 IR Inten    --      2.7195                66.6832                19.1963

                     76                     77                     78
                      A                      A                      A
 Frequencies --   1237.5198              1241.3215              1244.2935
 Red. masses --      1.5041                 1.3876                 1.6428
 Frc consts  --      1.3572                 1.2598                 1.4986
 IR Inten    --      4.4033                 8.8864                30.2411

                     79                     80                     81
                      A                      A                      A
 Frequencies --   1250.3376              1256.2414              1259.1647
 Red. masses --      1.1895                 1.9232                 1.2888
 Frc consts  --      1.0957                 1.7882                 1.2039
 IR Inten    --      0.0870                27.7662                 7.9509

                     82                     83                     84
                      A                      A                      A
 Frequencies --   1265.4404              1298.8643              1304.8705
 Red. masses --      1.3521                 1.2671                 1.2327
 Frc consts  --      1.2757                 1.2595                 1.2367
 IR Inten    --      9.2475                 4.3799                 1.5820

                     85                     86                     87
                      A                      A                      A
 Frequencies --   1305.4485              1317.8376              1327.1484
 Red. masses --      1.2621                 1.1093                 1.2107
 Frc consts  --      1.2673                 1.1351                 1.2564
 IR Inten    --      1.0718                 2.3280                18.1853

                     88                     89                     90
                      A                      A                      A
 Frequencies --   1330.0879              1333.0617              1338.5703
 Red. masses --      1.1217                 1.1319                 1.1404
 Frc consts  --      1.1692                 1.1851                 1.2039
 IR Inten    --      0.6129                 1.1227                 0.9124

                     91                     92                     93
                      A                      A                      A
 Frequencies --   1343.3272              1348.6024              1365.3521
 Red. masses --      1.2912                 1.3089                 1.3750
 Frc consts  --      1.3728                 1.4026                 1.5102
 IR Inten    --      3.6814                22.4107                17.2190

                     94                     95                     96
                      A                      A                      A
 Frequencies --   1390.5152              1397.4069              1403.1457
 Red. masses --      1.5284                 1.5306                 1.5981
 Frc consts  --      1.7412                 1.7610                 1.8538
 IR Inten    --     21.4744                 1.2131                10.5340

                     97                     98                     99
                      A                      A                      A
 Frequencies --   1408.0991              1414.4364              1417.4000
 Red. masses --      1.4831                 1.2967                 1.3697
 Frc consts  --      1.7325                 1.5285                 1.6213
 IR Inten    --      3.8330                 1.3332                93.1159

                    100                    101                    102
                      A                      A                      A
 Frequencies --   1430.3777              1439.2875              1462.5513
 Red. masses --      1.3316                 1.1948                 1.2119
 Frc consts  --      1.6052                 1.4583                 1.5274
 IR Inten    --     22.4266                26.2058                26.0088

                    103                    104                    105
                      A                      A                      A
 Frequencies --   1481.3822              1482.2396              1483.8943
 Red. masses --      1.0905                 1.0813                 1.0712
 Frc consts  --      1.4100                 1.3996                 1.3898
 IR Inten    --      2.4711                 1.7191                 0.1037

                    106                    107                    108
                      A                      A                      A
 Frequencies --   1486.7239              1486.7665              1490.2992
 Red. masses --      1.0458                 1.0758                 1.1120
 Frc consts  --      1.3620                 1.4012                 1.4551
 IR Inten    --      5.5291                 0.7817                 1.9357

                    109                    110                    111
                      A                      A                      A
 Frequencies --   1492.3914              1496.1737              1498.8924
 Red. masses --      1.1754                 1.1236                 1.4249
 Frc consts  --      1.5424                 1.4820                 1.8862
 IR Inten    --     23.5645                 0.1391                14.7089

                    112                    113                    114
                      A                      A                      A
 Frequencies --   1499.9540              1505.1016              1508.9123
 Red. masses --      1.0403                 1.1318                 1.0861
 Frc consts  --      1.3790                 1.5106                 1.4570
 IR Inten    --      5.0579                 3.4009                 0.0906

                    115                    116                    117
                      A                      A                      A
 Frequencies --   1513.8006              1514.4272              1531.3495
 Red. masses --      1.1072                 1.0971                 1.1323
 Frc consts  --      1.4949                 1.4825                 1.5645
 IR Inten    --      4.9925                 2.9906                 0.5568

                    118                    119                    120
                      A                      A                      A
 Frequencies --   1553.5912              2859.7729              2872.1609
 Red. masses --      1.0899                 1.0473                 1.1082
 Frc consts  --      1.5499                 5.0465                 5.3864
 IR Inten    --      0.5796                51.1992               115.2664

                    121                    122                    123
                      A                      A                      A
 Frequencies --   2946.1489              2970.1139              2970.3882
 Red. masses --      1.0539                 1.1049                 1.0379
 Frc consts  --      5.3894                 5.7427                 5.3953
 IR Inten    --     46.8750                46.7344                70.3723

                    124                    125                    126
                      A                      A                      A
 Frequencies --   2994.6349              2999.1838              3002.4833
 Red. masses --      1.0821                 1.0587                 1.0586
 Frc consts  --      5.7176                 5.6106                 5.6228
 IR Inten    --     19.8169                 7.3903                14.7021

                    127                    128                    129
                      A                      A                      A
 Frequencies --   3002.7364              3010.7301              3010.8182
 Red. masses --      1.0578                 1.0589                 1.0666
 Frc consts  --      5.6195                 5.6551                 5.6966
 IR Inten    --     13.2935                 1.2325                 2.9082

                    130                    131                    132
                      A                      A                      A
 Frequencies --   3013.0074              3019.4464              3021.5034
 Red. masses --      1.1030                 1.0596                 1.0681
 Frc consts  --      5.8998                 5.6916                 5.7455
 IR Inten    --     60.4776                87.2345                45.2469

                    133                    134                    135
                      A                      A                      A
 Frequencies --   3024.3950              3028.2528              3028.8276
 Red. masses --      1.0975                 1.0358                 1.1004
 Frc consts  --      5.9149                 5.5966                 5.9476
 IR Inten    --      2.3676                43.4286                 7.6428

                    136                    137                    138
                      A                      A                      A
 Frequencies --   3030.9857              3034.9355              3045.8323
 Red. masses --      1.0917                 1.0613                 1.1037
 Frc consts  --      5.9093                 5.7598                 6.0328
 IR Inten    --      9.9166                49.7627                 0.5020

                    139                    140                    141
                      A                      A                      A
 Frequencies --   3058.1913              3065.1322              3075.6071
 Red. masses --      1.0952                 1.1049                 1.1026
 Frc consts  --      6.0349                 6.1162                 6.1451
 IR Inten    --      0.2898                78.3167                 1.2755

                    142                    143                    144
                      A                      A                      A
 Frequencies --   3083.6020              3094.4204              3099.7760
 Red. masses --      1.1024                 1.1020                 1.1010
 Frc consts  --      6.1760                 6.2171                 6.2329
 IR Inten    --     95.5222                57.5235                37.9169

                    145                    146                    147
                      A                      A                      A
 Frequencies --   3102.3843              3124.0654              3136.3290
 Red. masses --      1.0866                 1.0953                 1.0550
 Frc consts  --      6.1617                 6.2982                 6.1141
 IR Inten    --     29.0683                25.8867                12.9457

                    148                    149                    150
                      A                      A                      A
 Frequencies --   3146.6370              3223.0602              3784.8479
 Red. masses --      1.0872                 1.1160                 1.0652
 Frc consts  --      6.3424                 6.8307                 8.9905
 IR Inten    --     18.1818                10.3776                14.2132

 - Thermochemistry -
 -------------------
 Temperature   298.150 Kelvin.  Pressure   1.00000 Atm.
 Atom     1 has atomic number  6 and mass  12.00000

 Molecular mass:   288.23006 amu.
 Principal axes and moments of inertia in atomic units:
                           1         2         3
     Eigenvalues --  2230.97673********************
           X            0.99997  -0.00834  -0.00044
           Y            0.00834   0.99994  -0.00733
           Z            0.00050   0.00733   0.99997
 This molecule is an asymmetric top.
 Rotational symmetry number  1.
 Warning -- assumption of classical behavior for rotation
           may cause significant error
 Rotational temperatures (Kelvin)      0.03882     0.00262     0.00250
 Rotational constants (GHZ):           0.80895     0.05449     0.05212
 Zero-point vibrational energy    1226669.5 (Joules/Mol)
                                  293.18105 (Kcal/Mol)
 Warning -- explicit consideration of  36 degrees of freedom as
           vibrations may cause significant error
 Vibrational temperatures:     17.32    26.44    30.50    42.75    56.22
          (Kelvin)             57.61    70.33    95.60   104.33   128.36
                              140.92   150.57   162.19   178.89   188.90
                              204.41   218.47   228.97   252.34   290.29
                              305.97   319.51   356.42   408.05   444.34
                              467.30   503.27   516.94   526.17   572.14
                              605.71   667.58   735.36   772.60   803.80
                              819.17   899.09  1053.65  1061.43  1075.39
                             1106.86  1140.39  1169.27  1207.58  1230.77
                             1285.00  1302.14  1323.68  1370.20  1414.74
                             1425.70  1438.53  1447.42  1461.82  1477.59
                             1489.78  1504.12  1530.74  1535.55  1538.46
                             1541.52  1575.91  1589.66  1595.87  1612.34
                             1622.28  1638.13  1661.74  1665.40  1673.19
                             1680.51  1700.88  1710.76  1722.42  1738.56
                             1780.52  1785.98  1790.26  1798.96  1807.45
                             1811.66  1820.69  1868.78  1877.42  1878.25
                             1896.07  1909.47  1913.70  1917.98  1925.90
                             1932.75  1940.34  1964.44  2000.64  2010.56
                             2018.81  2025.94  2035.06  2039.32  2057.99
                             2070.81  2104.29  2131.38  2132.61  2134.99
                             2139.06  2139.13  2144.21  2147.22  2152.66
                             2156.57  2158.10  2165.51  2170.99  2178.02
                             2178.92  2203.27  2235.27  4114.58  4132.40
                             4238.85  4273.33  4273.73  4308.61  4315.16
                             4319.90  4320.27  4331.77  4331.90  4335.05
                             4344.31  4347.27  4351.43  4356.98  4357.81
                             4360.91  4366.60  4382.27  4400.06  4410.04
                             4425.11  4436.62  4452.18  4459.89  4463.64
                             4494.83  4512.48  4527.31  4637.26  5445.55

 Zero-point correction=                           0.467214 (Hartree/Particle)
 Thermal correction to Energy=                    0.492691
 Thermal correction to Enthalpy=                  0.493636
 Thermal correction to Gibbs Free Energy=         0.405634
 Sum of electronic and zero-point Energies=           -929.419764
 Sum of electronic and thermal Energies=              -929.394286
 Sum of electronic and thermal Enthalpies=            -929.393342
 Sum of electronic and thermal Free Energies=         -929.481343

                     E (Thermal)             CV                S
                      KCal/Mol        Cal/Mol-Kelvin    Cal/Mol-Kelvin
 Total                  309.169             89.349            185.214
 Electronic               0.000              0.000              0.000
 Translational            0.889              2.981             42.873
 Rotational               0.889              2.981             36.191
 Vibrational            307.391             83.387            106.150
 Vibration     1          0.593              1.987              7.643
 Vibration     2          0.593              1.986              6.803
 Vibration     3          0.593              1.985              6.518
 Vibration     4          0.593              1.984              5.849
 Vibration     5          0.594              1.981              5.305
 Vibration     6          0.594              1.981              5.257
 Vibration     7          0.595              1.978              4.862
 Vibration     8          0.598              1.970              4.256
 Vibration     9          0.599              1.967              4.084
 Vibration    10          0.602              1.957              3.677
 Vibration    11          0.603              1.951              3.495
 Vibration    12          0.605              1.946              3.366
 Vibration    13          0.607              1.939              3.221
 Vibration    14          0.610              1.929              3.032
 Vibration    15          0.612              1.922              2.927
 Vibration    16          0.616              1.911              2.776
 Vibration    17          0.619              1.901              2.649
 Vibration    18          0.621              1.892              2.560
 Vibration    19          0.627              1.873              2.377
 Vibration    20          0.639              1.837              2.117
 Vibration    21          0.644              1.822              2.021
 Vibration    22          0.648              1.807              1.942
 Vibration    23          0.661              1.767              1.747
 Vibration    24          0.682              1.704              1.512
 Vibration    25          0.698              1.657              1.369
 Vibration    26          0.709              1.626              1.286
 Vibration    27          0.727              1.576              1.167
 Vibration    28          0.734              1.556              1.125
 Vibration    29          0.739              1.543              1.098
 Vibration    30          0.764              1.475              0.971
 Vibration    31          0.783              1.425              0.889
 Vibration    32          0.822              1.330              0.755
 Vibration    33          0.866              1.225              0.631
 Vibration    34          0.892              1.168              0.572
 Vibration    35          0.914              1.121              0.526
 Vibration    36          0.925              1.098              0.505

                           ! Non-Optimized Parameters !
 Normal termination of Gaussian 16 at Wed May 24 20:09:20 2023.
