 Gaussian 16, Revision A.03,
 Gaussian 16:  ES64L-G16RevA.03 25-Dec-2016

 -----------------------------
 # opt freq b3lyp/6-31g(2df,p)
 -----------------------------

 -------------------
 Title Card Required
 -------------------
 Symbolic Z-matrix:
 Charge =  0 Multiplicity = 1

 SCF Done:  E(RB3LYP) =  -661.407015478     A.U. after   14 cycles
 SCF Done:  E(RB3LYP) =  -661.426611665     A.U. after   13 cycles
 SCF Done:  E(RB3LYP) =  -661.435331183     A.U. after   12 cycles
 SCF Done:  E(RB3LYP) =  -661.436595445     A.U. after   11 cycles
 SCF Done:  E(RB3LYP) =  -661.436825287     A.U. after    9 cycles
 SCF Done:  E(RB3LYP) =  -661.436866656     A.U. after    9 cycles
 SCF Done:  E(RB3LYP) =  -661.436868868     A.U. after    7 cycles
 SCF Done:  E(RB3LYP) =  -661.436869017     A.U. after    6 cycles
 Optimization completed.
    -- Stationary point found.
 Normal termination of Gaussian 16 at Sun May 21 19:54:26 2023.

 ----------------------------------------------------------------------
 #N Geom=AllCheck Guess=TCheck SCRF=Check GenChk RB3LYP/6-31G(2df,p) Fr
 eq
 ----------------------------------------------------------------------

 Structure from the checkpoint file:  "CCCCCCCCCdCqCCCrOO.chk"
 -------------------
 Title Card Required
 -------------------
 Charge =  0 Multiplicity = 1

                         Standard orientation:
 ---------------------------------------------------------------------
 Center     Atomic      Atomic             Coordinates (Angstroms)
 Number     Number       Type             X           Y           Z
 ---------------------------------------------------------------------
      1          6           0       -7.936356   -0.125757    0.000008
      2          6           0       -6.596440    0.615098    0.000011
      3          6           0       -5.385858   -0.324611    0.000002
      4          6           0       -4.040449    0.408605    0.000005
      5          6           0       -2.830218   -0.531516   -0.000004
      6          6           0       -1.484721    0.202313   -0.000001
      7          6           0       -0.276327   -0.737887   -0.000010
      8          6           0        1.070060    0.000907   -0.000008
      9          6           0        2.231924   -0.966785   -0.000015
     10          6           0        3.551594   -0.749800   -0.000020
     11          6           0        4.368840    0.513211   -0.000003
     12          6           0        3.621533    1.850270   -0.000011
     13          6           0        4.597954    3.030840    0.000003
     14          8           0        4.284363   -1.937454   -0.000068
     15          8           0        5.712836   -1.677322    0.000099
     16          1           0       -8.780373    0.571278    0.000014
     17          1           0       -8.034283   -0.766779    0.883396
     18          1           0       -8.034286   -0.766767   -0.883388
     19          1           0       -6.542131    1.274401    0.876643
     20          1           0       -6.542134    1.274413   -0.876612
     21          1           0       -5.440183   -0.985137   -0.876974
     22          1           0       -5.440179   -0.985149    0.876969
     23          1           0       -3.987042    1.068954    0.877068
     24          1           0       -3.987045    1.068966   -0.877049
     25          1           0       -2.883324   -1.191738   -0.877031
     26          1           0       -2.883320   -1.191750    0.877014
     27          1           0       -1.431761    0.862755    0.877110
     28          1           0       -1.431765    0.862767   -0.877104
     29          1           0       -0.324200   -1.397410   -0.877351
     30          1           0       -0.324196   -1.397423    0.877321
     31          1           0        1.100466    0.662950    0.874829
     32          1           0        1.100463    0.662962   -0.874836
     33          1           0        1.952066   -2.019395   -0.000023
     34          1           0        5.040350    0.477504   -0.867587
     35          1           0        5.040323    0.477501    0.867602
     36          1           0        2.971219    1.918901    0.877681
     37          1           0        2.971242    1.918903   -0.877719
     38          1           0        5.245608    3.009900    0.883606
     39          1           0        4.063990    3.985896   -0.000002
     40          1           0        5.245630    3.009902   -0.883583
     41          1           0        6.008068   -2.597528    0.000007
 ---------------------------------------------------------------------

 SCF Done:  E(RB3LYP) =  -661.436869017     A.U. after    1 cycles

 The electronic state is 1-A.
 Alpha  occ. eigenvalues --  -19.20151 -19.19559 -10.22972 -10.18432 -10.18087
 Alpha  occ. eigenvalues --  -10.17730 -10.17389 -10.17298 -10.17198 -10.17176
 Alpha  occ. eigenvalues --  -10.17160 -10.17145 -10.17130 -10.16826 -10.15874
 Alpha  occ. eigenvalues --   -1.12138  -0.92565  -0.80699  -0.79609  -0.78425
 Alpha  occ. eigenvalues --   -0.75688  -0.72608  -0.69981  -0.67169  -0.63335
 Alpha  occ. eigenvalues --   -0.60138  -0.58478  -0.57105  -0.56744  -0.52556
 Alpha  occ. eigenvalues --   -0.51139  -0.48539  -0.47767  -0.46838  -0.45653
 Alpha  occ. eigenvalues --   -0.43349  -0.42787  -0.42433  -0.42194  -0.40792
 Alpha  occ. eigenvalues --   -0.39875  -0.39015  -0.38855  -0.37718  -0.37158
 Alpha  occ. eigenvalues --   -0.36334  -0.35485  -0.34980  -0.34630  -0.33289
 Alpha  occ. eigenvalues --   -0.33225  -0.32755  -0.32713  -0.31857  -0.31635
 Alpha  occ. eigenvalues --   -0.31479  -0.31472  -0.29523  -0.28874  -0.19439
 Alpha virt. eigenvalues --    0.02133   0.04096   0.08516   0.09062   0.09329
 Alpha virt. eigenvalues --    0.10115   0.11433   0.11637   0.12213   0.12855
 Alpha virt. eigenvalues --    0.13350   0.13650   0.14970   0.15092   0.16270

 Mulliken charges:
               1
     1  C   -0.378976
     2  C   -0.162602
     3  C   -0.158242
     4  C   -0.177512
     5  C   -0.180842
     6  C   -0.189170
     7  C   -0.187881
     8  C   -0.247340
     9  C   -0.161907
    10  C    0.378030
    11  C   -0.265787
    12  C   -0.186210
    13  C   -0.389579
    14  O   -0.215837
    15  O   -0.317876
    16  H    0.109198
    17  H    0.112266
    18  H    0.112266
    19  H    0.092541
    20  H    0.092541
    21  H    0.089578
    22  H    0.089578
    23  H    0.089792
    24  H    0.089792
    25  H    0.090834
    26  H    0.090834
    27  H    0.090324
    28  H    0.090324
    29  H    0.095763
    30  H    0.095763
    31  H    0.103822
    32  H    0.103822
    33  H    0.079722
    34  H    0.124108
    35  H    0.124112
    36  H    0.106706
    37  H    0.106706
    38  H    0.115666
    39  H    0.111506
    40  H    0.115666
    41  H    0.318501
 Sum of Mulliken charges =  -0.00000

 Dipole moment (field-independent basis, Debye):
    X=              0.5526    Y=              0.0933    Z=             -0.0001  Tot=              0.5604
 Quadrupole moment (field-independent basis, Debye-Ang):
   XX=            -90.1269   YY=            -92.4524   ZZ=            -95.7901
   XY=             -4.0350   XZ=             -0.0005   YZ=              0.0002

  Exact polarizability: 216.263  -1.398 145.104   0.001  -0.001 114.851
 Approx polarizability: 246.968  -1.594 203.651   0.001   0.001 185.079

 ******    3 imaginary frequencies (negative Signs) ******

                      1                      2                      3
                      A                      A                      A
 Frequencies --   -169.3923              -146.3271               -29.1219
 Red. masses --      1.0883                10.0660                 2.2632
 Frc consts  --      0.0184                 0.1270                 0.0011
 IR Inten    --    112.8151                 0.2750                 0.0087

                      4                      5                      6
                      A                      A                      A
 Frequencies --     25.6376                32.3044                40.2849
 Red. masses --      2.7060                 4.0350                 2.3484
 Frc consts  --      0.0010                 0.0025                 0.0022
 IR Inten    --      0.0151                 0.0163                 0.0200

                      7                      8                      9
                      A                      A                      A
 Frequencies --     53.7878                88.7649                89.6651
 Red. masses --      1.6241                 3.6942                 2.4435
 Frc consts  --      0.0028                 0.0171                 0.0116
 IR Inten    --      0.0004                 0.0026                 0.0214

                     10                     11                     12
                      A                      A                      A
 Frequencies --    104.2763               116.0605               140.9400
 Red. masses --      1.7461                 2.3352                 3.8544
 Frc consts  --      0.0112                 0.0185                 0.0451
 IR Inten    --      0.0119                 0.0007                 0.0756

                     13                     14                     15
                      A                      A                      A
 Frequencies --    148.3831               159.0930               184.4720
 Red. masses --      1.8585                 2.0873                 4.3432
 Frc consts  --      0.0241                 0.0311                 0.0871
 IR Inten    --      0.0593                 0.0069                 0.2004

                     16                     17                     18
                      A                      A                      A
 Frequencies --    192.3153               222.7733               247.7963
 Red. masses --      3.7711                 2.2490                 1.1206
 Frc consts  --      0.0822                 0.0658                 0.0405
 IR Inten    --      0.8109                 0.6686                 0.0003

                     19                     20                     21
                      A                      A                      A
 Frequencies --    251.9926               282.7712               335.2239
 Red. masses --      1.1826                 3.6457                 3.7485
 Frc consts  --      0.0442                 0.1718                 0.2482
 IR Inten    --      0.0534                 1.1188                 0.6167

                     22                     23                     24
                      A                      A                      A
 Frequencies --    350.9609               381.1906               444.5908
 Red. masses --      3.4741                 3.9849                 3.2005
 Frc consts  --      0.2521                 0.3412                 0.3727
 IR Inten    --      1.1983                 4.3136                 0.2314

                     25                     26                     27
                      A                      A                      A
 Frequencies --    466.6216               483.5562               543.2720
 Red. masses --      2.2669                 3.2888                 3.8548
 Frc consts  --      0.2908                 0.4531                 0.6703
 IR Inten    --      1.8165                 1.2188                 3.3017

                     28                     29                     30
                      A                      A                      A
 Frequencies --    589.2237               730.9870               732.3598
 Red. masses --      4.9090                 1.0590                 1.0769
 Frc consts  --      1.0042                 0.3334                 0.3403
 IR Inten    --      2.6431                 6.2311                 0.0267

                     31                     32                     33
                      A                      A                      A
 Frequencies --    745.9130               762.1135               786.1412
 Red. masses --      1.1135                 1.1387                 1.1955
 Frc consts  --      0.3650                 0.3897                 0.4353
 IR Inten    --      1.3194                 4.3240                 1.5585

                     34                     35                     36
                      A                      A                      A
 Frequencies --    834.3652               852.9225               876.0796
 Red. masses --      1.2882                 3.4750                 1.2707
 Frc consts  --      0.5284                 1.4895                 0.5746
 IR Inten    --      9.9735                 2.3402                 2.4145

                     37                     38                     39
                      A                      A                      A
 Frequencies --    886.1667               897.7712               929.4137
 Red. masses --      1.2325                 1.9638                 2.8784
 Frc consts  --      0.5702                 0.9325                 1.4649
 IR Inten    --      0.8984                 2.7859                41.7324

                     40                     41                     42
                      A                      A                      A
 Frequencies --    945.7273               950.4575               995.6308
 Red. masses --      3.7388                 1.2394                 4.4432
 Frc consts  --      1.9702                 0.6597                 2.5950
 IR Inten    --     10.7634                 0.7756                 0.1922

                     43                     44                     45
                      A                      A                      A
 Frequencies --   1018.1377              1026.2583              1046.3888
 Red. masses --      3.9388                 1.1495                 3.0471
 Frc consts  --      2.4056                 0.7133                 1.9657
 IR Inten    --      0.4379                 0.0011                 1.8601

                     46                     47                     48
                      A                      A                      A
 Frequencies --   1052.0573              1063.1686              1070.9291
 Red. masses --      2.7150                 2.8376                 2.2139
 Frc consts  --      1.7705                 1.8898                 1.4960
 IR Inten    --      0.0085                 6.9244                 0.0300

                     49                     50                     51
                      A                      A                      A
 Frequencies --   1072.1951              1095.8107              1121.0800
 Red. masses --      2.3280                 3.0950                 1.3257
 Frc consts  --      1.5768                 2.1897                 0.9817
 IR Inten    --      1.5082                25.8329                 0.1510

                     52                     53                     54
                      A                      A                      A
 Frequencies --   1122.9066              1134.5540              1138.7395
 Red. masses --      2.4070                 1.4928                 2.7834
 Frc consts  --      1.7882                 1.1322                 2.1266
 IR Inten    --      2.2621                 0.0205                 7.6674

                     55                     56                     57
                      A                      A                      A
 Frequencies --   1159.4421              1217.3167              1234.7761
 Red. masses --      2.8777                 1.7583                 1.2996
 Frc consts  --      2.2793                 1.5351                 1.1675
 IR Inten    --     25.1680                 0.0035                12.3359

                     58                     59                     60
                      A                      A                      A
 Frequencies --   1255.4991              1271.7043              1276.0466
 Red. masses --      1.4128                 1.2851                 1.2952
 Frc consts  --      1.3121                 1.2245                 1.2425
 IR Inten    --      0.0026                 0.1517                 1.9825

                     61                     62                     63
                      A                      A                      A
 Frequencies --   1297.8709              1307.7977              1322.0835
 Red. masses --      1.2681                 1.3038                 1.1109
 Frc consts  --      1.2585                 1.3139                 1.1441
 IR Inten    --      0.0506                 9.4510                 0.1135

                     64                     65                     66
                      A                      A                      A
 Frequencies --   1324.7774              1331.4813              1334.4795
 Red. masses --      1.0504                 1.1037                 1.3600
 Frc consts  --      1.0861                 1.1529                 1.4270
 IR Inten    --      0.1596                 0.0108                 0.2476

                     67                     68                     69
                      A                      A                      A
 Frequencies --   1335.3796              1338.8170              1361.0978
 Red. masses --      1.0717                 1.1078                 1.3682
 Frc consts  --      1.1260                 1.1699                 1.4934
 IR Inten    --      0.0716                 0.1000                 0.9304

                     70                     71                     72
                      A                      A                      A
 Frequencies --   1376.8079              1392.3682              1401.3115
 Red. masses --      1.3684                 1.5161                 1.6233
 Frc consts  --      1.5283                 1.7317                 1.8781
 IR Inten    --      7.9524                 0.3157                 0.3469

                     73                     74                     75
                      A                      A                      A
 Frequencies --   1402.7581              1410.8442              1413.3340
 Red. masses --      1.6086                 1.4377                 1.2603
 Frc consts  --      1.8650                 1.6860                 1.4833
 IR Inten    --      0.4141                 6.0627                 0.2820

                     76                     77                     78
                      A                      A                      A
 Frequencies --   1414.6209              1445.3937              1469.9132
 Red. masses --      1.3202                 1.3819                 1.0812
 Frc consts  --      1.5566                 1.7010                 1.3764
 IR Inten    --      1.6604               157.9604                 1.2638

                     79                     80                     81
                      A                      A                      A
 Frequencies --   1478.4856              1481.7041              1483.0879
 Red. masses --      1.0790                 1.0729                 1.0727
 Frc consts  --      1.3896                 1.3878                 1.3901
 IR Inten    --      2.9527                 0.0666                 0.6155

                     82                     83                     84
                      A                      A                      A
 Frequencies --   1485.8093              1492.2466              1495.9163
 Red. masses --      1.0713                 1.0723                 1.0541
 Frc consts  --      1.3934                 1.4068                 1.3898
 IR Inten    --      0.1241                 0.8360                 1.7866

                     85                     86                     87
                      A                      A                      A
 Frequencies --   1499.1595              1499.8340              1502.4016
 Red. masses --      1.0401                 1.0403                 1.0816
 Frc consts  --      1.3773                 1.3788                 1.4385
 IR Inten    --      5.2353                 4.8854                 0.1188

                     88                     89                     90
                      A                      A                      A
 Frequencies --   1509.7888              1512.3701              1516.0749
 Red. masses --      1.0881                 1.0896                 1.0965
 Frc consts  --      1.4613                 1.4684                 1.4849
 IR Inten    --      1.7024                 1.4736                 3.2403

                     91                     92                     93
                      A                      A                      A
 Frequencies --   1733.1129              2996.8930              2998.6180
 Red. masses --      8.3406                 1.0574                 1.0574
 Frc consts  --     14.7604                 5.5955                 5.6017
 IR Inten    --     85.4116                 0.5820                 0.1060

                     94                     95                     96
                      A                      A                      A
 Frequencies --   3000.1862              3004.3226              3008.0331
 Red. masses --      1.0582                 1.0579                 1.0592
 Frc consts  --      5.6122                 5.6261                 5.6465
 IR Inten    --      0.3158                 3.8148                 0.3321

                     97                     98                     99
                      A                      A                      A
 Frequencies --   3014.1320              3017.1672              3017.6698
 Red. masses --      1.0596                 1.0595                 1.0976
 Frc consts  --      5.6717                 5.6824                 5.8891
 IR Inten    --      1.0740               192.6846                 0.0249

                    100                    101                    102
                      A                      A                      A
 Frequencies --   3020.5358              3021.2555              3026.0318
 Red. masses --      1.0988                 1.0588                 1.1005
 Frc consts  --      5.9068                 5.6944                 5.9374
 IR Inten    --      0.4362                 8.4557                 0.5891

                    103                    104                    105
                      A                      A                      A
 Frequencies --   3027.6151              3029.1007              3033.1408
 Red. masses --      1.0356                 1.0365                 1.1030
 Frc consts  --      5.5932                 5.6034                 5.9790
 IR Inten    --     44.2755                27.8135                 0.3646

                    106                    107                    108
                      A                      A                      A
 Frequencies --   3044.2068              3045.7544              3050.3030
 Red. masses --      1.0993                 1.1041                 1.0590
 Frc consts  --      6.0020                 6.0344                 5.8052
 IR Inten    --      7.6493                 0.2916                35.4660

                    109                    110                    111
                      A                      A                      A
 Frequencies --   3056.6308              3064.6944              3080.2502
 Red. masses --      1.1054                 1.1052                 1.1012
 Frc consts  --      6.0849                 6.1157                 6.1560
 IR Inten    --      2.9362               163.2801                 0.6412

                    112                    113                    114
                      A                      A                      A
 Frequencies --   3093.7114              3098.9283              3104.4061
 Red. masses --      1.1020                 1.1010                 1.1005
 Frc consts  --      6.2143                 6.2294                 6.2487
 IR Inten    --     60.5361                40.2422                33.2281

                    115                    116                    117
                      A                      A                      A
 Frequencies --   3105.4853              3129.3714              3790.5268
 Red. masses --      1.1038                 1.0852                 1.0679
 Frc consts  --      6.2721                 6.2617                 9.0399
 IR Inten    --     62.5565                14.3792                69.8052

 - Thermochemistry -
 -------------------
 Temperature   298.150 Kelvin.  Pressure   1.00000 Atm.
 Atom     1 has atomic number  6 and mass  12.00000

 Molecular mass:   214.19328 amu.
 Principal axes and moments of inertia in atomic units:
                           1         2         3
     Eigenvalues --  1368.92861********************
           X            0.99994   0.01104  -0.00000
           Y           -0.01104   0.99994   0.00000
           Z            0.00000  -0.00000   1.00000
 This molecule is an asymmetric top.
 Rotational symmetry number  1.
 Warning -- assumption of classical behavior for rotation
           may cause significant error
 Rotational temperatures (Kelvin)      0.06327     0.00573     0.00530
 Rotational constants (GHZ):           1.31836     0.11944     0.11033
    3 imaginary frequencies ignored.
 Zero-point vibrational energy     972140.0 (Joules/Mol)
                                  232.34704 (Kcal/Mol)
 Warning -- explicit consideration of  25 degrees of freedom as
           vibrations may cause significant error
 Vibrational temperatures:     36.89    46.48    57.96    77.39   127.71
          (Kelvin)            129.01   150.03   166.99   202.78   213.49
                              228.90   265.41   276.70   320.52   356.52
                              362.56   406.84   482.31   504.95   548.45
                              639.67   671.36   695.73   781.65   847.76
                             1051.73  1053.70  1073.20  1096.51  1131.08
                             1200.47  1227.17  1260.48  1275.00  1291.69
                             1337.22  1360.69  1367.50  1432.49  1464.87
                             1476.56  1505.52  1513.68  1529.66  1540.83
                             1542.65  1576.63  1612.98  1615.61  1632.37
                             1638.39  1668.18  1751.45  1776.57  1806.38
                             1829.70  1835.95  1867.35  1881.63  1902.18
                             1906.06  1915.70  1920.02  1921.31  1926.26
                             1958.32  1980.92  2003.31  2016.17  2018.26
                             2029.89  2033.47  2035.32  2079.60  2114.88
                             2127.21  2131.84  2133.83  2137.75  2147.01
                             2152.29  2156.96  2157.93  2161.62  2172.25
                             2175.96  2181.29  2493.56  4311.86  4314.34
                             4316.60  4322.55  4327.89  4336.66  4341.03
                             4341.75  4345.88  4346.91  4353.78  4356.06
                             4358.20  4364.01  4379.93  4382.16  4388.71
                             4397.81  4409.41  4431.79  4451.16  4458.67
                             4466.55  4468.10  4502.47  5453.72

 Zero-point correction=                           0.370269 (Hartree/Particle)
 Thermal correction to Energy=                    0.388278
 Thermal correction to Enthalpy=                  0.389223
 Thermal correction to Gibbs Free Energy=         0.321741
 Sum of electronic and zero-point Energies=           -661.066600
 Sum of electronic and thermal Energies=              -661.048591
 Sum of electronic and thermal Enthalpies=            -661.047646
 Sum of electronic and thermal Free Energies=         -661.115128

                     E (Thermal)             CV                S
                      KCal/Mol        Cal/Mol-Kelvin    Cal/Mol-Kelvin
 Total                  243.648             64.900            142.026
 Electronic               0.000              0.000              0.000
 Translational            0.889              2.981             41.989
 Rotational               0.889              2.981             34.180
 Vibrational            241.871             58.938             65.858
 Vibration     1          0.593              1.985              6.141
 Vibration     2          0.594              1.983              5.683
 Vibration     3          0.594              1.981              5.245
 Vibration     4          0.596              1.976              4.673
 Vibration     5          0.602              1.957              3.687
 Vibration     6          0.602              1.956              3.667
 Vibration     7          0.605              1.946              3.373
 Vibration     8          0.608              1.936              3.165
 Vibration     9          0.615              1.912              2.791
 Vibration    10          0.618              1.904              2.693
 Vibration    11          0.621              1.892              2.561
 Vibration    12          0.631              1.861              2.283
 Vibration    13          0.634              1.851              2.205
 Vibration    14          0.648              1.806              1.936
 Vibration    15          0.661              1.766              1.746
 Vibration    16          0.664              1.759              1.717
 Vibration    17          0.682              1.706              1.517
 Vibration    18          0.716              1.605              1.235
 Vibration    19          0.728              1.573              1.162
 Vibration    20          0.751              1.510              1.034
 Vibration    21          0.804              1.373              0.812
 Vibration    22          0.824              1.324              0.747
 Vibration    23          0.840              1.287              0.701
 Vibration    24          0.898              1.154              0.558
 Vibration    25          0.946              1.055              0.469

 Optimization completed.
    -- Stationary point found.
 Normal termination of Gaussian 16 at Sun May 21 22:48:05 2023.
