 Gaussian 16, Revision A.03,
 Gaussian 16:  ES64L-G16RevA.03 25-Dec-2016

 -----------------------------
 # opt freq b3lyp/6-31g(2df,p)
 -----------------------------

 -------------------
 Title Card Required
 -------------------
 Symbolic Z-matrix:
 Charge =  0 Multiplicity = 1

 SCF Done:  E(RB3LYP) =  -626.825852713     A.U. after   12 cycles
 SCF Done:  E(RB3LYP) =  -626.836905626     A.U. after   10 cycles
 SCF Done:  E(RB3LYP) =  -626.838462389     A.U. after   10 cycles
 SCF Done:  E(RB3LYP) =  -626.841113469     A.U. after   10 cycles
 SCF Done:  E(RB3LYP) =  -626.841617139     A.U. after   10 cycles
 SCF Done:  E(RB3LYP) =  -626.842247152     A.U. after   10 cycles
 SCF Done:  E(RB3LYP) =  -626.842649725     A.U. after   10 cycles
 SCF Done:  E(RB3LYP) =  -626.842994893     A.U. after   10 cycles
 SCF Done:  E(RB3LYP) =  -626.843386291     A.U. after   11 cycles
 SCF Done:  E(RB3LYP) =  -626.843379578     A.U. after   10 cycles
 SCF Done:  E(RB3LYP) =  -626.845516610     A.U. after    6 cycles
 SCF Done:  E(RB3LYP) =  -626.845521756     A.U. after    9 cycles
 SCF Done:  E(RB3LYP) =  -626.845527986     A.U. after    8 cycles
 SCF Done:  E(RB3LYP) =  -626.845530928     A.U. after    8 cycles
 SCF Done:  E(RB3LYP) =  -626.845532106     A.U. after    7 cycles
 SCF Done:  E(RB3LYP) =  -626.845532632     A.U. after    6 cycles
 SCF Done:  E(RB3LYP) =  -626.845532745     A.U. after    6 cycles
 SCF Done:  E(RB3LYP) =  -626.845532778     A.U. after    5 cycles
 SCF Done:  E(RB3LYP) =  -626.845532784     A.U. after    5 cycles
 Optimization completed.
    -- Stationary point found.
 Normal termination of Gaussian 16 at Tue May 23 00:55:18 2023.

 ----------------------------------------------------------------------
 #N Geom=AllCheck Guess=TCheck SCRF=Check GenChk RB3LYP/6-31G(2df,p) Fr
 eq
 ----------------------------------------------------------------------

 Structure from the checkpoint file:  "CCCCCCCCCqCCrCqCrCO.chk"
 -------------------
 Title Card Required
 -------------------
 Charge =  0 Multiplicity = 1

                         Standard orientation:
 ---------------------------------------------------------------------
 Center     Atomic      Atomic             Coordinates (Angstroms)
 Number     Number       Type             X           Y           Z
 ---------------------------------------------------------------------
      1          6           0        7.634389   -0.359701    0.467707
      2          6           0        6.382979   -0.350630   -0.414409
      3          6           0        5.084900   -0.168036    0.379477
      4          6           0        3.827238   -0.157528   -0.495720
      5          6           0        2.529396    0.024750    0.298583
      6          6           0        1.271689    0.036158   -0.577184
      7          6           0       -0.025956    0.218804    0.217031
      8          6           0       -1.283764    0.215616   -0.662010
      9          6           0       -2.617939    0.425804    0.111428
     10          6           0       -3.180274    1.844649   -0.124225
     11          6           0       -2.231496    2.980875    0.276278
     12          6           0       -3.631166   -0.706329   -0.221088
     13          6           0       -3.143589   -2.061915    0.314946
     14          6           0       -5.054586   -0.437052    0.301900
     15          8           0       -5.952600   -1.513828    0.057252
     16          1           0        8.543769   -0.491584   -0.127132
     17          1           0        7.595782   -1.172948    1.201184
     18          1           0        7.733728    0.579468    1.023546
     19          1           0        6.329285   -1.287962   -0.984153
     20          1           0        6.466125    0.451024   -1.160427
     21          1           0        5.138557    0.769698    0.950538
     22          1           0        5.001510   -0.969994    1.126614
     23          1           0        3.774566   -1.095244   -1.066701
     24          1           0        3.911441    0.644630   -1.242446
     25          1           0        2.582204    0.962116    0.870033
     26          1           0        2.444701   -0.777759    1.044730
     27          1           0        1.218893   -0.901203   -1.148935
     28          1           0        1.356749    0.838478   -1.323793
     29          1           0        0.025615    1.155861    0.786656
     30          1           0       -0.110492   -0.581737    0.965039
     31          1           0       -1.315917   -0.731554   -1.212166
     32          1           0       -1.185526    0.990806   -1.433183
     33          1           0       -2.401694    0.342918    1.187743
     34          1           0       -4.107753    1.973739    0.442576
     35          1           0       -3.451681    1.952116   -1.184221
     36          1           0       -1.960552    2.912572    1.335917
     37          1           0       -2.707589    3.954059    0.119512
     38          1           0       -1.304265    2.973769   -0.304284
     39          1           0       -3.702537   -0.771683   -1.320062
     40          1           0       -3.038882   -2.023566    1.406191
     41          1           0       -2.174940   -2.349297   -0.102119
     42          1           0       -3.865539   -2.847221    0.082737
     43          1           0       -5.457270    0.490881   -0.123354
     44          1           0       -5.034834   -0.316201    1.392275
     45          1           0       -6.053578   -1.596349   -0.896608
 ---------------------------------------------------------------------

 SCF Done:  E(RB3LYP) =  -626.845532784     A.U. after    1 cycles

 The electronic state is 1-A.
 Alpha  occ. eigenvalues --  -19.13055 -10.21867 -10.18245 -10.18226 -10.17747
 Alpha  occ. eigenvalues --  -10.17470 -10.17337 -10.17313 -10.17283 -10.17256
 Alpha  occ. eigenvalues --  -10.17244 -10.17230 -10.17205 -10.16897 -10.16396
 Alpha  occ. eigenvalues --   -1.01050  -0.82194  -0.80304  -0.77892  -0.75606
 Alpha  occ. eigenvalues --   -0.74231  -0.70198  -0.67355  -0.66330  -0.62738
 Alpha  occ. eigenvalues --   -0.59450  -0.58252  -0.57287  -0.56847  -0.55362
 Alpha  occ. eigenvalues --   -0.48797  -0.48133  -0.46832  -0.46024  -0.44679
 Alpha  occ. eigenvalues --   -0.44131  -0.42653  -0.41938  -0.41419  -0.40398
 Alpha  occ. eigenvalues --   -0.39538  -0.39268  -0.38680  -0.38144  -0.36931
 Alpha  occ. eigenvalues --   -0.36332  -0.35625  -0.35130  -0.34703  -0.34485
 Alpha  occ. eigenvalues --   -0.33166  -0.32849  -0.32062  -0.31893  -0.31776
 Alpha  occ. eigenvalues --   -0.31715  -0.31583  -0.31027  -0.29890  -0.29088
 Alpha  occ. eigenvalues --   -0.25670
 Alpha virt. eigenvalues --    0.07574   0.08278   0.09280   0.09887   0.10420
 Alpha virt. eigenvalues --    0.10734   0.11429   0.12329   0.12781   0.13361
 Alpha virt. eigenvalues --    0.13813   0.15154   0.15553   0.15848   0.15901

 Mulliken charges:
               1
     1  C   -0.378976
     2  C   -0.162673
     3  C   -0.158206
     4  C   -0.177255
     5  C   -0.181340
     6  C   -0.181090
     7  C   -0.182916
     8  C   -0.206304
     9  C    0.045619
    10  C   -0.197388
    11  C   -0.390899
    12  C   -0.018846
    13  C   -0.389703
    14  C   -0.079722
    15  O   -0.419045
    16  H    0.109412
    17  H    0.112408
    18  H    0.112274
    19  H    0.092703
    20  H    0.092551
    21  H    0.089478
    22  H    0.089716
    23  H    0.090021
    24  H    0.089726
    25  H    0.090443
    26  H    0.090793
    27  H    0.090431
    28  H    0.089835
    29  H    0.095519
    30  H    0.093959
    31  H    0.090949
    32  H    0.088550
    33  H    0.064518
    34  H    0.099950
    35  H    0.089352
    36  H    0.114211
    37  H    0.110020
    38  H    0.119123
    39  H    0.056799
    40  H    0.109564
    41  H    0.109428
    42  H    0.122781
    43  H    0.088931
    44  H    0.106481
    45  H    0.278819
 Sum of Mulliken charges =  -0.00000

 Dipole moment (field-independent basis, Debye):
    X=              0.6624    Y=              0.7952    Z=             -1.1343  Tot=              1.5355
 Quadrupole moment (field-independent basis, Debye-Ang):
   XX=           -108.1971   YY=           -100.4297   ZZ=            -97.7017
   XY=             -4.9168   XZ=              6.9225   YZ=              2.1788

  Exact polarizability: 197.585   1.106 150.683   1.456   0.792 134.514
 Approx polarizability: 216.822   2.128 216.901   0.578   0.496 215.804

                      1                      2                      3
                      A                      A                      A
 Frequencies --     15.6998                31.2069                39.9399
 Red. masses --      3.8350                 2.7273                 1.8826
 Frc consts  --      0.0006                 0.0016                 0.0018
 IR Inten    --      0.1486                 0.1801                 0.1274

                      4                      5                      6
                      A                      A                      A
 Frequencies --     45.9628                63.8902                93.0951
 Red. masses --      3.3163                 3.2636                 2.1224
 Frc consts  --      0.0041                 0.0078                 0.0108
 IR Inten    --      0.0034                 0.4497                 1.2028

                      7                      8                      9
                      A                      A                      A
 Frequencies --    103.7592               105.0112               132.7303
 Red. masses --      1.7938                 2.5200                 2.8258
 Frc consts  --      0.0114                 0.0164                 0.0293
 IR Inten    --      0.8275                 0.7962                 0.0699

                     10                     11                     12
                      A                      A                      A
 Frequencies --    142.6864               150.7877               156.8785
 Red. masses --      1.9547                 3.3315                 1.7873
 Frc consts  --      0.0234                 0.0446                 0.0259
 IR Inten    --      0.5703                 0.1618                 0.0278

                     13                     14                     15
                      A                      A                      A
 Frequencies --    163.8087               202.6969               212.8591
 Red. masses --      2.0844                 2.9929                 1.3119
 Frc consts  --      0.0330                 0.0724                 0.0350
 IR Inten    --      0.1102                 0.2130                 0.1273

                     16                     17                     18
                      A                      A                      A
 Frequencies --    234.1702               247.6514               270.5850
 Red. masses --      1.5165                 1.1205                 1.5000
 Frc consts  --      0.0490                 0.0405                 0.0647
 IR Inten    --      2.0290                 0.0008                 0.0174

                     19                     20                     21
                      A                      A                      A
 Frequencies --    278.7119               299.2784               334.8009
 Red. masses --      2.6842                 1.2702                 2.7556
 Frc consts  --      0.1228                 0.0670                 0.1820
 IR Inten    --      2.1423                96.9495                 2.5851

                     22                     23                     24
                      A                      A                      A
 Frequencies --    343.5729               366.5979               375.0842
 Red. masses --      3.5445                 3.1713                 2.4053
 Frc consts  --      0.2465                 0.2511                 0.1994
 IR Inten    --      4.7407                 0.3662                 8.5666

                     25                     26                     27
                      A                      A                      A
 Frequencies --    424.3575               449.5507               485.5943
 Red. masses --      2.5675                 2.6078                 2.8343
 Frc consts  --      0.2724                 0.3105                 0.3938
 IR Inten    --      4.4900                 0.8527                 1.2770

                     28                     29                     30
                      A                      A                      A
 Frequencies --    524.8784               568.1292               728.8418
 Red. masses --      2.4241                 2.9075                 1.0710
 Frc consts  --      0.3935                 0.5529                 0.3352
 IR Inten    --      0.6282                 3.1782                 3.5809

                     31                     32                     33
                      A                      A                      A
 Frequencies --    731.7095               745.8589               783.5129
 Red. masses --      1.0681                 1.1216                 1.2138
 Frc consts  --      0.3369                 0.3676                 0.4390
 IR Inten    --      2.2671                 0.9232                 0.6522

                     34                     35                     36
                      A                      A                      A
 Frequencies --    792.2833               846.9477               852.6267
 Red. masses --      1.2720                 2.0286                 1.4792
 Frc consts  --      0.4704                 0.8573                 0.6336
 IR Inten    --      0.9074                 1.4987                 0.1758

                     37                     38                     39
                      A                      A                      A
 Frequencies --    881.5256               898.1895               908.2934
 Red. masses --      1.7496                 1.9309                 1.2942
 Frc consts  --      0.8011                 0.9178                 0.6291
 IR Inten    --      1.5578                 1.7829                 5.5146

                     40                     41                     42
                      A                      A                      A
 Frequencies --    937.4723               960.3178               973.7653
 Red. masses --      1.4723                 1.5226                 2.2428
 Frc consts  --      0.7624                 0.8273                 1.2530
 IR Inten    --      1.3087                 0.8416                 3.5566

                     43                     44                     45
                      A                      A                      A
 Frequencies --    993.1922              1020.0402              1023.5639
 Red. masses --      4.0025                 1.2635                 2.6079
 Frc consts  --      2.3262                 0.7746                 1.6098
 IR Inten    --      0.2557                 0.4159                 1.6290

                     46                     47                     48
                      A                      A                      A
 Frequencies --   1035.8042              1045.1408              1052.1066
 Red. masses --      2.0997                 2.5276                 2.3283
 Frc consts  --      1.3273                 1.6267                 1.5185
 IR Inten    --     25.0076                 4.9091                39.9243

                     49                     50                     51
                      A                      A                      A
 Frequencies --   1057.6972              1066.3621              1069.4300
 Red. masses --      3.1139                 1.7417                 2.2550
 Frc consts  --      2.0525                 1.1669                 1.5195
 IR Inten    --     56.5254                 2.9017                 0.4952

                     52                     53                     54
                      A                      A                      A
 Frequencies --   1071.8282              1089.2103              1113.4678
 Red. masses --      2.2398                 2.4560                 1.6683
 Frc consts  --      1.5160                 1.7167                 1.2186
 IR Inten    --      0.1827                 8.4310                 0.8333

                     55                     56                     57
                      A                      A                      A
 Frequencies --   1132.8508              1142.6088              1176.5523
 Red. masses --      1.8686                 2.6150                 2.0872
 Frc consts  --      1.4129                 2.0115                 1.7023
 IR Inten    --      0.7803                 0.8822                 0.3941

                     58                     59                     60
                      A                      A                      A
 Frequencies --   1188.9372              1210.7434              1219.9484
 Red. masses --      1.9585                 1.3602                 1.6858
 Frc consts  --      1.6312                 1.1748                 1.4782
 IR Inten    --      1.0270                 1.8378                 0.2717

                     61                     62                     63
                      A                      A                      A
 Frequencies --   1239.1460              1259.5780              1273.8581
 Red. masses --      1.3574                 1.3920                 1.3220
 Frc consts  --      1.2280                 1.3012                 1.2639
 IR Inten    --     11.2706                 0.0423                 0.2626

                     64                     65                     66
                      A                      A                      A
 Frequencies --   1284.4984              1297.9609              1303.5032
 Red. masses --      1.3318                 1.2837                 1.2493
 Frc consts  --      1.2947                 1.2742                 1.2507
 IR Inten    --      6.8835                 0.9829                 0.3863

                     67                     68                     69
                      A                      A                      A
 Frequencies --   1324.8471              1327.0437              1332.4770
 Red. masses --      1.0244                 1.1496                 1.2858
 Frc consts  --      1.0593                 1.1928                 1.3450
 IR Inten    --      0.0174                 1.1829                 2.1543

                     70                     71                     72
                      A                      A                      A
 Frequencies --   1335.9142              1338.9557              1352.3791
 Red. masses --      1.0741                 1.1120                 1.2025
 Frc consts  --      1.1294                 1.1746                 1.2958
 IR Inten    --      0.2773                 0.0302                 2.2911

                     73                     74                     75
                      A                      A                      A
 Frequencies --   1357.3841              1361.5631              1377.0328
 Red. masses --      1.3096                 1.3280                 1.3919
 Frc consts  --      1.4216                 1.4505                 1.5550
 IR Inten    --      0.3559                 1.1680                 0.4159

                     76                     77                     78
                      A                      A                      A
 Frequencies --   1381.4071              1395.2285              1399.8020
 Red. masses --      1.4241                 1.4630                 1.3361
 Frc consts  --      1.6011                 1.6780                 1.5425
 IR Inten    --      4.4300                 1.0230                 8.8137

                     79                     80                     81
                      A                      A                      A
 Frequencies --   1401.5208              1402.1879              1408.1967
 Red. masses --      1.5317                 1.5708                 1.2522
 Frc consts  --      1.7726                 1.8197                 1.4630
 IR Inten    --      3.8461                 0.6156                24.5948

                     82                     83                     84
                      A                      A                      A
 Frequencies --   1411.9508              1413.4419              1420.6613
 Red. masses --      1.2398                 1.2598                 1.2580
 Frc consts  --      1.4563                 1.4829                 1.4959
 IR Inten    --      1.2555                 0.5728                16.3172

                     85                     86                     87
                      A                      A                      A
 Frequencies --   1481.2801              1481.9163              1484.6063
 Red. masses --      1.0720                 1.0729                 1.0667
 Frc consts  --      1.3859                 1.3882                 1.3852
 IR Inten    --      0.9500                 0.3833                 0.4686

                     88                     89                     90
                      A                      A                      A
 Frequencies --   1485.9476              1488.3642              1492.0279
 Red. masses --      1.0661                 1.0678                 1.0552
 Frc consts  --      1.3869                 1.3937                 1.3840
 IR Inten    --      1.1962                 0.6227                 3.3635

                     91                     92                     93
                      A                      A                      A
 Frequencies --   1494.1707              1499.8432              1500.9399
 Red. masses --      1.0739                 1.0403                 1.0790
 Frc consts  --      1.4126                 1.3788                 1.4321
 IR Inten    --      0.9468                 4.8910                 0.8350

                     94                     95                     96
                      A                      A                      A
 Frequencies --   1502.1609              1507.4852              1508.7893
 Red. masses --      1.0524                 1.0791                 1.0769
 Frc consts  --      1.3991                 1.4448                 1.4444
 IR Inten    --      0.6923                 2.8435                 1.2876

                     97                     98                     99
                      A                      A                      A
 Frequencies --   1511.1063              1515.1361              1519.0795
 Red. masses --      1.0710                 1.0873                 1.0768
 Frc consts  --      1.4409                 1.4706                 1.4640
 IR Inten    --      2.7438                 0.4267                13.7885

                    100                    101                    102
                      A                      A                      A
 Frequencies --   2958.5465              2981.5436              2996.9284
 Red. masses --      1.0802                 1.0817                 1.0575
 Frc consts  --      5.5709                 5.6657                 5.5959
 IR Inten    --     14.5756                12.6607                 1.2996

                    103                    104                    105
                      A                      A                      A
 Frequencies --   2998.5993              3000.3683              3006.5101
 Red. masses --      1.0574                 1.0584                 1.0600
 Frc consts  --      5.6020                 5.6138                 5.6450
 IR Inten    --      0.1424                 0.0686                 5.8393

                    106                    107                    108
                      A                      A                      A
 Frequencies --   3007.5471              3011.0479              3012.9053
 Red. masses --      1.0639                 1.0614                 1.0632
 Frc consts  --      5.6701                 5.6696                 5.6866
 IR Inten    --     29.6281                 9.2188                38.6275

                    109                    110                    111
                      A                      A                      A
 Frequencies --   3016.0426              3017.6620              3021.2467
 Red. masses --      1.0599                 1.0974                 1.0976
 Frc consts  --      5.6808                 5.8878                 5.9029
 IR Inten    --     90.1704                 0.3645                 1.1491

                    112                    113                    114
                      A                      A                      A
 Frequencies --   3024.5181              3027.6744              3030.1358
 Red. masses --      1.0643                 1.0357                 1.0928
 Frc consts  --      5.7363                 5.5936                 5.9117
 IR Inten    --     84.8339                43.4066                 3.5387

                    115                    116                    117
                      A                      A                      A
 Frequencies --   3032.4507              3033.5933              3040.5395
 Red. masses --      1.0437                 1.0431                 1.0992
 Frc consts  --      5.6548                 5.6560                 5.9875
 IR Inten    --     18.3907                21.1277                 0.1449

                    118                    119                    120
                      A                      A                      A
 Frequencies --   3049.4109              3059.0496              3059.8461
 Red. masses --      1.1028                 1.1018                 1.1042
 Frc consts  --      6.0420                 6.0748                 6.0912
 IR Inten    --      2.0975                54.9496                21.2139

                    121                    122                    123
                      A                      A                      A
 Frequencies --   3067.7800              3069.4622              3093.7579
 Red. masses --      1.1034                 1.0944                 1.1020
 Frc consts  --      6.1186                 6.0750                 6.2145
 IR Inten    --    166.6172                15.4733                60.1635

                    124                    125                    126
                      A                      A                      A
 Frequencies --   3096.0909              3099.0917              3101.9763
 Red. masses --      1.1010                 1.1009                 1.0941
 Frc consts  --      6.2181                 6.2300                 6.2028
 IR Inten    --     36.2487                40.5248                33.0909

                    127                    128                    129
                      A                      A                      A
 Frequencies --   3108.1380              3131.1671              3811.3276
 Red. masses --      1.1005                 1.1000                 1.0661
 Frc consts  --      6.2636                 6.3540                 9.1242
 IR Inten    --     50.3818                21.7955                17.1694

 - Thermochemistry -
 -------------------
 Temperature   298.150 Kelvin.  Pressure   1.00000 Atm.
 Atom     1 has atomic number  6 and mass  12.00000

 Molecular mass:   214.22967 amu.
 Principal axes and moments of inertia in atomic units:
                           1         2         3
     Eigenvalues --  1363.36725********************
           X            0.99999  -0.00517   0.00136
           Y            0.00517   0.99998   0.00469
           Z           -0.00138  -0.00468   0.99999
 This molecule is an asymmetric top.
 Rotational symmetry number  1.
 Warning -- assumption of classical behavior for rotation
           may cause significant error
 Rotational temperatures (Kelvin)      0.06353     0.00635     0.00593
 Rotational constants (GHZ):           1.32374     0.13239     0.12363
 Zero-point vibrational energy    1103274.9 (Joules/Mol)
                                  263.68902 (Kcal/Mol)
 Warning -- explicit consideration of  29 degrees of freedom as
           vibrations may cause significant error
 Vibrational temperatures:     22.59    44.90    57.46    66.13    91.92
          (Kelvin)            133.94   149.29   151.09   190.97   205.29
                              216.95   225.71   235.68   291.64   306.26
                              336.92   356.32   389.31   401.00   430.59
                              481.70   494.32   527.45   539.66   610.56
                              646.80   698.66   755.18   817.41  1048.64
                             1052.77  1073.12  1127.30  1139.92  1218.57
                             1226.74  1268.32  1292.29  1306.83  1348.81
                             1381.68  1401.03  1428.98  1467.61  1472.68
                             1490.29  1503.72  1513.75  1521.79  1534.26
                             1538.67  1542.12  1567.13  1602.03  1629.92
                             1643.96  1692.80  1710.62  1741.99  1755.23
                             1782.85  1812.25  1832.80  1848.11  1867.48
                             1875.45  1906.16  1909.32  1917.14  1922.08
                             1926.46  1945.77  1952.97  1958.99  1981.24
                             1987.54  2007.42  2014.00  2016.48  2017.44
                             2026.08  2031.48  2033.63  2044.01  2131.23
                             2132.15  2136.02  2137.95  2141.42  2146.70
                             2149.78  2157.94  2159.52  2161.27  2168.93
                             2170.81  2174.14  2179.94  2185.62  4256.69
                             4289.78  4311.91  4314.32  4316.86  4325.70
                             4327.19  4332.23  4334.90  4339.41  4341.74
                             4346.90  4351.61  4356.15  4359.69  4363.02
                             4364.66  4374.66  4387.42  4401.29  4402.44
                             4413.85  4416.27  4451.23  4454.58  4458.90
                             4463.05  4471.92  4505.05  5483.65

 Zero-point correction=                           0.420215 (Hartree/Particle)
 Thermal correction to Energy=                    0.440437
 Thermal correction to Enthalpy=                  0.441381
 Thermal correction to Gibbs Free Energy=         0.369283
 Sum of electronic and zero-point Energies=           -626.425318
 Sum of electronic and thermal Energies=              -626.405096
 Sum of electronic and thermal Enthalpies=            -626.404152
 Sum of electronic and thermal Free Energies=         -626.476249

                     E (Thermal)             CV                S
                      KCal/Mol        Cal/Mol-Kelvin    Cal/Mol-Kelvin
 Total                  276.378             73.132            151.742
 Electronic               0.000              0.000              0.000
 Translational            0.889              2.981             41.989
 Rotational               0.889              2.981             33.961
 Vibrational            274.601             67.170             75.792
 Vibration     1          0.593              1.986              7.115
 Vibration     2          0.594              1.983              5.751
 Vibration     3          0.594              1.981              5.262
 Vibration     4          0.595              1.979              4.984
 Vibration     5          0.597              1.972              4.333
 Vibration     6          0.602              1.954              3.594
 Vibration     7          0.605              1.946              3.382
 Vibration     8          0.605              1.945              3.359
 Vibration     9          0.613              1.921              2.906
 Vibration    10          0.616              1.911              2.768
 Vibration    11          0.618              1.902              2.662
 Vibration    12          0.621              1.895              2.587
 Vibration    13          0.623              1.887              2.505
 Vibration    14          0.639              1.836              2.108
 Vibration    15          0.644              1.821              2.019
 Vibration    16          0.654              1.789              1.847
 Vibration    17          0.661              1.767              1.747
 Vibration    18          0.674              1.727              1.592
 Vibration    19          0.679              1.713              1.542
 Vibration    20          0.692              1.675              1.421
 Vibration    21          0.716              1.606              1.237
 Vibration    22          0.722              1.588              1.196
 Vibration    23          0.740              1.541              1.094
 Vibration    24          0.746              1.523              1.059
 Vibration    25          0.786              1.417              0.877
 Vibration    26          0.808              1.362              0.797
 Vibration    27          0.842              1.282              0.695
 Vibration    28          0.880              1.195              0.599
 Vibration    29          0.924              1.100              0.508

 Optimization completed.
    -- Stationary point found.
 Normal termination of Gaussian 16 at Tue May 23 04:07:49 2023.
