 Gaussian 16, Revision A.03,
 Gaussian 16:  ES64L-G16RevA.03 25-Dec-2016

 -----------------------------
 # opt freq b3lyp/6-31g(2df,p)
 -----------------------------

 -------------------
 Title Card Required
 -------------------
 Symbolic Z-matrix:
 Charge =  0 Multiplicity = 1

 SCF Done:  E(RB3LYP) =  -705.470132705     A.U. after   12 cycles
 SCF Done:  E(RB3LYP) =  -705.482945022     A.U. after   10 cycles
 SCF Done:  E(RB3LYP) =  -705.484632925     A.U. after   10 cycles
 SCF Done:  E(RB3LYP) =  -705.485000713     A.U. after   10 cycles
 SCF Done:  E(RB3LYP) =  -705.485074224     A.U. after    9 cycles
 SCF Done:  E(RB3LYP) =  -705.485090927     A.U. after    8 cycles
 SCF Done:  E(RB3LYP) =  -705.485097411     A.U. after    8 cycles
 SCF Done:  E(RB3LYP) =  -705.485099766     A.U. after    8 cycles
 SCF Done:  E(RB3LYP) =  -705.485100968     A.U. after    8 cycles
 SCF Done:  E(RB3LYP) =  -705.485103708     A.U. after    8 cycles
 SCF Done:  E(RB3LYP) =  -705.485105266     A.U. after    8 cycles
 SCF Done:  E(RB3LYP) =  -705.485105455     A.U. after    6 cycles
 SCF Done:  E(RB3LYP) =  -705.485105483     A.U. after    5 cycles
 Optimization completed.
    -- Stationary point found.
 Normal termination of Gaussian 16 at Mon May 22 14:23:11 2023.

 ----------------------------------------------------------------------
 #N Geom=AllCheck Guess=TCheck SCRF=Check GenChk RB3LYP/6-31G(2df,p) Fr
 eq
 ----------------------------------------------------------------------

 Structure from the checkpoint file:  "CCCCCCCCCqCrCCOCqCrCC.chk"
 -------------------
 Title Card Required
 -------------------
 Charge =  0 Multiplicity = 1

                         Standard orientation:
 ---------------------------------------------------------------------
 Center     Atomic      Atomic             Coordinates (Angstroms)
 Number     Number       Type             X           Y           Z
 ---------------------------------------------------------------------
      1          6           0        9.302855   -0.449904    0.390349
      2          6           0        7.980801   -0.832886   -0.280265
      3          6           0        6.766207   -0.123908    0.328586
      4          6           0        5.438565   -0.501720   -0.336548
      5          6           0        4.224188    0.207470    0.272488
      6          6           0        2.896703   -0.171771   -0.392642
      7          6           0        1.681299    0.536386    0.217584
      8          6           0        0.360099    0.148068   -0.457337
      9          6           0       -0.909571    0.748079    0.178823
     10          6           0       -0.942886    2.279930    0.056922
     11          6           0       -2.158784    0.092865   -0.438364
     12          6           0       -3.475697    0.451148    0.243305
     13          8           0       -4.493129   -0.338638   -0.338559
     14          6           0       -5.784521   -0.204588    0.245467
     15          6           0       -6.472897    1.086760   -0.207338
     16          6           0       -6.555010   -1.468801   -0.148051
     17          6           0       -7.925576   -1.611948    0.518925
     18          1           0       10.150176   -0.971633   -0.065781
     19          1           0        9.292913   -0.700720    1.457061
     20          1           0        9.491418    0.626436    0.307798
     21          1           0        7.836545   -1.919462   -0.212285
     22          1           0        8.033574   -0.602556   -1.352759
     23          1           0        6.910424    0.963758    0.261158
     24          1           0        6.713520   -0.353585    1.402288
     25          1           0        5.295302   -1.589357   -0.268757
     26          1           0        5.492156   -0.272107   -1.410092
     27          1           0        4.367131    1.295111    0.204129
     28          1           0        4.170752   -0.021737    1.346128
     29          1           0        2.754734   -1.259561   -0.325862
     30          1           0        2.949637    0.058803   -1.465980
     31          1           0        1.835606    1.620897    0.155445
     32          1           0        1.624367    0.298544    1.289405
     33          1           0        0.270990   -0.946575   -0.442516
     34          1           0        0.396167    0.431791   -1.519337
     35          1           0       -0.893041    0.493732    1.249975
     36          1           0       -0.978537    2.583789   -0.996588
     37          1           0       -0.058393    2.740101    0.506042
     38          1           0       -1.816732    2.709446    0.555366
     39          1           0       -2.056232   -0.997950   -0.396393
     40          1           0       -2.229720    0.355939   -1.501959
     41          1           0       -3.695355    1.522996    0.129982
     42          1           0       -3.410764    0.247913    1.327322
     43          1           0       -5.678471   -0.186136    1.344972
     44          1           0       -6.604524    1.082516   -1.294456
     45          1           0       -5.886225    1.969364    0.062407
     46          1           0       -7.455601    1.193581    0.261267
     47          1           0       -5.923857   -2.325885    0.110918
     48          1           0       -6.661209   -1.482644   -1.240004
     49          1           0       -7.843522   -1.574475    1.611298
     50          1           0       -8.384671   -2.569700    0.255984
     51          1           0       -8.618173   -0.822603    0.210882
 ---------------------------------------------------------------------

 SCF Done:  E(RB3LYP) =  -705.485105483     A.U. after    1 cycles

 The electronic state is 1-A.
 Alpha  occ. eigenvalues --  -19.12644 -10.22453 -10.21757 -10.18280 -10.17420
 Alpha  occ. eigenvalues --  -10.17273 -10.17244 -10.17242 -10.17224 -10.17205
 Alpha  occ. eigenvalues --  -10.17190 -10.17171 -10.17154 -10.17025 -10.16902
 Alpha  occ. eigenvalues --  -10.16882 -10.16858  -1.02020  -0.81556  -0.80147
 Alpha  occ. eigenvalues --   -0.78824  -0.77322  -0.74047  -0.72079  -0.70434
 Alpha  occ. eigenvalues --   -0.68705  -0.65450  -0.63686  -0.60897  -0.58258
 Alpha  occ. eigenvalues --   -0.57123  -0.56741  -0.56543  -0.54981  -0.49195
 Alpha  occ. eigenvalues --   -0.47875  -0.46878  -0.46142  -0.45628  -0.43734
 Alpha  occ. eigenvalues --   -0.43682  -0.42858  -0.42325  -0.41405  -0.41044
 Alpha  occ. eigenvalues --   -0.39859  -0.39744  -0.38392  -0.38253  -0.37861
 Alpha  occ. eigenvalues --   -0.37206  -0.36465  -0.36026  -0.35464  -0.35018
 Alpha  occ. eigenvalues --   -0.34429  -0.33855  -0.33128  -0.32887  -0.32273
 Alpha  occ. eigenvalues --   -0.31999  -0.31753  -0.31671  -0.31501  -0.31264
 Alpha  occ. eigenvalues --   -0.31064  -0.29790  -0.28622  -0.24398
 Alpha virt. eigenvalues --    0.08222   0.08896   0.09259   0.10279   0.10790
 Alpha virt. eigenvalues --    0.11126   0.12037   0.12187   0.12369   0.13115
 Alpha virt. eigenvalues --    0.13402   0.13808   0.14314   0.15169   0.15762

 Mulliken charges:
               1
     1  C   -0.378963
     2  C   -0.162631
     3  C   -0.158101
     4  C   -0.177692
     5  C   -0.181706
     6  C   -0.177250
     7  C   -0.195709
     8  C   -0.180141
     9  C    0.019163
    10  C   -0.390971
    11  C   -0.194053
    12  C   -0.078740
    13  O   -0.262620
    14  C    0.159368
    15  C   -0.398903
    16  C   -0.177901
    17  C   -0.389364
    18  H    0.109372
    19  H    0.112181
    20  H    0.112180
    21  H    0.092733
    22  H    0.092721
    23  H    0.089318
    24  H    0.089335
    25  H    0.090173
    26  H    0.090116
    27  H    0.089954
    28  H    0.089964
    29  H    0.090667
    30  H    0.090922
    31  H    0.095078
    32  H    0.089409
    33  H    0.088790
    34  H    0.089215
    35  H    0.066559
    36  H    0.111067
    37  H    0.114712
    38  H    0.113280
    39  H    0.099327
    40  H    0.098193
    41  H    0.087358
    42  H    0.078473
    43  H    0.057101
    44  H    0.119572
    45  H    0.115436
    46  H    0.115743
    47  H    0.100517
    48  H    0.100429
    49  H    0.113250
    50  H    0.114953
    51  H    0.118116
 Sum of Mulliken charges =  -0.00000

 Dipole moment (field-independent basis, Debye):
    X=             -0.0993    Y=              0.4799    Z=              0.6713  Tot=              0.8311
 Quadrupole moment (field-independent basis, Debye-Ang):
   XX=           -110.5219   YY=           -112.1119   ZZ=           -112.2873
   XY=             -1.6959   XZ=             -3.3868   YZ=             -1.1769

  Exact polarizability: 243.161   1.886 163.059  -0.229   0.865 152.327
 Approx polarizability: 250.339   1.535 242.211  -0.379  -0.048 242.313

                      1                      2                      3
                      A                      A                      A
 Frequencies --     12.3390                18.3363                26.4677
 Red. masses --      3.0950                 2.5072                 2.5057
 Frc consts  --      0.0003                 0.0005                 0.0010
 IR Inten    --      0.0878                 0.0330                 0.0207

                      4                      5                      6
                      A                      A                      A
 Frequencies --     35.2376                41.1332                64.3249
 Red. masses --      3.0875                 2.3433                 2.8960
 Frc consts  --      0.0023                 0.0023                 0.0071
 IR Inten    --      0.0178                 0.0970                 0.0272

                      7                      8                      9
                      A                      A                      A
 Frequencies --     67.1705                82.3540                88.8916
 Red. masses --      3.0449                 1.6329                 2.2410
 Frc consts  --      0.0081                 0.0065                 0.0104
 IR Inten    --      0.0178                 0.2906                 0.0435

                     10                     11                     12
                      A                      A                      A
 Frequencies --     97.7886               115.6241               129.4920
 Red. masses --      1.9276                 2.8935                 2.6053
 Frc consts  --      0.0109                 0.0228                 0.0257
 IR Inten    --      0.2522                 0.6682                 0.0819

                     13                     14                     15
                      A                      A                      A
 Frequencies --    134.0247               150.9699               153.1049
 Red. masses --      2.2644                 1.9207                 3.8425
 Frc consts  --      0.0240                 0.0258                 0.0531
 IR Inten    --      1.2097                 0.0408                 0.0986

                     16                     17                     18
                      A                      A                      A
 Frequencies --    163.6350               197.0834               205.2832
 Red. masses --      1.9735                 2.7379                 1.0701
 Frc consts  --      0.0311                 0.0627                 0.0266
 IR Inten    --      0.0127                 0.1385                 0.1242

                     19                     20                     21
                      A                      A                      A
 Frequencies --    234.8229               243.7566               247.5691
 Red. masses --      1.4431                 2.0377                 1.1209
 Frc consts  --      0.0469                 0.0713                 0.0405
 IR Inten    --      0.0186                 0.0149                 0.0010

                     22                     23                     24
                      A                      A                      A
 Frequencies --    258.1415               282.5973               313.1969
 Red. masses --      1.3512                 2.8535                 2.8966
 Frc consts  --      0.0531                 0.1343                 0.1674
 IR Inten    --      0.8397                 0.5048                 0.4133

                     25                     26                     27
                      A                      A                      A
 Frequencies --    342.6723               378.1773               416.4703
 Red. masses --      2.8288                 2.7876                 2.8263
 Frc consts  --      0.1957                 0.2349                 0.2888
 IR Inten    --      0.0518                 0.7663                 2.0308

                     28                     29                     30
                      A                      A                      A
 Frequencies --    420.7845               447.9125               467.2132
 Red. masses --      2.2813                 2.6209                 2.6209
 Frc consts  --      0.2380                 0.3098                 0.3371
 IR Inten    --      0.0573                 1.7563                 0.0483

                     31                     32                     33
                      A                      A                      A
 Frequencies --    493.4634               525.7059               559.2816
 Red. masses --      2.9209                 2.8392                 2.8176
 Frc consts  --      0.4191                 0.4623                 0.5193
 IR Inten    --      1.2279                 0.4441                 1.9825

                     34                     35                     36
                      A                      A                      A
 Frequencies --    731.2283               733.4874               749.4866
 Red. masses --      1.0595                 1.0804                 1.1275
 Frc consts  --      0.3338                 0.3425                 0.3732
 IR Inten    --      5.1380                 0.0150                 0.8862

                     37                     38                     39
                      A                      A                      A
 Frequencies --    778.7536               788.5267               794.9250
 Red. masses --      1.3267                 1.1710                 1.3167
 Frc consts  --      0.4740                 0.4290                 0.4902
 IR Inten    --      1.6198                 0.6486                 0.4096

                     40                     41                     42
                      A                      A                      A
 Frequencies --    834.1264               846.8726               870.1459
 Red. masses --      1.7105                 1.7215                 1.4633
 Frc consts  --      0.7012                 0.7274                 0.6528
 IR Inten    --      1.2210                 0.4757                 0.7925

                     43                     44                     45
                      A                      A                      A
 Frequencies --    897.8116               909.6315               931.9657
 Red. masses --      1.9491                 2.0435                 1.2933
 Frc consts  --      0.9257                 0.9962                 0.6619
 IR Inten    --      1.5824                 2.7781                 1.9012

                     46                     47                     48
                      A                      A                      A
 Frequencies --    944.2473               969.4287               973.9267
 Red. masses --      1.7445                 1.2289                 1.2991
 Frc consts  --      0.9164                 0.6804                 0.7260
 IR Inten    --      3.6681                 3.2405                 0.0978

                     49                     50                     51
                      A                      A                      A
 Frequencies --    989.5245               992.4347              1009.2277
 Red. masses --      1.8840                 4.2053                 1.6150
 Frc consts  --      1.0869                 2.4403                 0.9692
 IR Inten    --     14.9094                 0.6571                 0.7943

                     52                     53                     54
                      A                      A                      A
 Frequencies --   1022.8288              1036.1618              1042.4751
 Red. masses --      1.9149                 2.7953                 3.0396
 Frc consts  --      1.1803                 1.7682                 1.9462
 IR Inten    --      0.5694                 3.2628                 0.7089

                     55                     56                     57
                      A                      A                      A
 Frequencies --   1050.9650              1061.7557              1067.4889
 Red. masses --      2.5082                 1.2335                 2.5339
 Frc consts  --      1.6322                 0.8193                 1.7012
 IR Inten    --      1.1684                 0.2904                 0.0977

                     58                     59                     60
                      A                      A                      A
 Frequencies --   1071.5881              1076.8718              1106.7752
 Red. masses --      2.1807                 2.6713                 2.5971
 Frc consts  --      1.4754                 1.8252                 1.8744
 IR Inten    --      0.0560                 0.5745                38.6428

                     61                     62                     63
                      A                      A                      A
 Frequencies --   1119.8359              1146.1051              1148.4419
 Red. masses --      2.4596                 3.0398                 2.8064
 Frc consts  --      1.8173                 2.3526                 2.1808
 IR Inten    --     19.8276                26.9853               202.8346

                     64                     65                     66
                      A                      A                      A
 Frequencies --   1161.0646              1174.8802              1194.5403
 Red. masses --      2.4651                 1.9002                 1.8679
 Frc consts  --      1.9579                 1.5454                 1.5703
 IR Inten    --     27.2053                 4.3320                 7.7051

                     67                     68                     69
                      A                      A                      A
 Frequencies --   1203.6503              1218.8249              1232.4332
 Red. masses --      2.0691                 1.6909                 1.3218
 Frc consts  --      1.7662                 1.4799                 1.1829
 IR Inten    --      8.6420                 0.8409                 4.1829

                     70                     71                     72
                      A                      A                      A
 Frequencies --   1245.2269              1261.5910              1275.5560
 Red. masses --      1.3154                 1.3767                 1.2676
 Frc consts  --      1.2018                 1.2910                 1.2152
 IR Inten    --      1.6811                 0.5277                 0.4506

                     73                     74                     75
                      A                      A                      A
 Frequencies --   1286.0408              1296.5541              1302.5745
 Red. masses --      1.2483                 1.2862                 1.2246
 Frc consts  --      1.2164                 1.2739                 1.2242
 IR Inten    --      5.6238                 1.6015                 0.8917

                     76                     77                     78
                      A                      A                      A
 Frequencies --   1314.4445              1324.9335              1326.0450
 Red. masses --      1.1387                 1.0294                 1.1794
 Frc consts  --      1.1592                 1.0647                 1.2218
 IR Inten    --      0.4713                 0.1266                 0.1053

                     79                     80                     81
                      A                      A                      A
 Frequencies --   1328.1316              1334.6163              1336.2034
 Red. masses --      1.2498                 1.3021                 1.0949
 Frc consts  --      1.2989                 1.3664                 1.1518
 IR Inten    --      7.7222                 4.4075                 0.6987

                     82                     83                     84
                      A                      A                      A
 Frequencies --   1338.3878              1360.0202              1374.3167
 Red. masses --      1.1235                 1.3495                 1.2867
 Frc consts  --      1.1858                 1.4706                 1.4319
 IR Inten    --      0.2674                 4.7371                12.1074

                     85                     86                     87
                      A                      A                      A
 Frequencies --   1378.6261              1380.1813              1385.3342
 Red. masses --      1.3262                 1.4273                 1.5202
 Frc consts  --      1.4850                 1.6019                 1.7189
 IR Inten    --      3.7289                 5.5251                13.2628

                     88                     89                     90
                      A                      A                      A
 Frequencies --   1396.1001              1400.7564              1402.3258
 Red. masses --      1.5148                 1.6203                 1.5748
 Frc consts  --      1.7396                 1.8732                 1.8246
 IR Inten    --      0.3809                 0.1388                 0.4559

                     91                     92                     93
                      A                      A                      A
 Frequencies --   1406.1719              1413.2596              1413.2944
 Red. masses --      1.2991                 1.2408                 1.2420
 Frc consts  --      1.5135                 1.4601                 1.4616
 IR Inten    --     23.6102                 1.4397                 1.1744

                     94                     95                     96
                      A                      A                      A
 Frequencies --   1414.3261              1439.1014              1476.8569
 Red. masses --      1.2715                 1.4304                 1.0789
 Frc consts  --      1.4985                 1.7454                 1.3865
 IR Inten    --      6.1761                 5.1760                 0.3263

                     97                     98                     99
                      A                      A                      A
 Frequencies --   1481.6284              1482.9093              1483.3670
 Red. masses --      1.0734                 1.0725                 1.0655
 Frc consts  --      1.3883                 1.3895                 1.3813
 IR Inten    --      0.0645                 0.0604                 0.1583

                    100                    101                    102
                      A                      A                      A
 Frequencies --   1485.7955              1490.4744              1490.8339
 Red. masses --      1.0720                 1.0810                 1.0539
 Frc consts  --      1.3943                 1.4149                 1.3800
 IR Inten    --      0.3747                 0.0793                 3.4765

                    103                    104                    105
                      A                      A                      A
 Frequencies --   1494.1138              1497.9241              1499.0035
 Red. masses --      1.0808                 1.0456                 1.0611
 Frc consts  --      1.4216                 1.3822                 1.4048
 IR Inten    --      0.1346                 3.6819                 1.1955

                    106                    107                    108
                      A                      A                      A
 Frequencies --   1499.8074              1502.1323              1506.1379
 Red. masses --      1.0403                 1.0819                 1.0536
 Frc consts  --      1.3788                 1.4384                 1.4082
 IR Inten    --      4.8710                 0.1586                 6.5426

                    109                    110                    111
                      A                      A                      A
 Frequencies --   1508.1209              1510.9238              1511.3312
 Red. masses --      1.0597                 1.0705                 1.0817
 Frc consts  --      1.4201                 1.4399                 1.4558
 IR Inten    --      3.3427                 4.2307                 0.7712

                    112                    113                    114
                      A                      A                      A
 Frequencies --   1516.1169              1528.7184              2938.0346
 Red. masses --      1.0961                 1.0874                 1.0764
 Frc consts  --      1.4845                 1.4973                 5.4744
 IR Inten    --      4.6304                 4.2017                 9.6682

                    115                    116                    117
                      A                      A                      A
 Frequencies --   2946.1521              2982.1645              2996.8485
 Red. masses --      1.0716                 1.0804                 1.0586
 Frc consts  --      5.4800                 5.6610                 5.6017
 IR Inten    --     70.7604                12.1361                 0.8380

                    118                    119                    120
                      A                      A                      A
 Frequencies --   2997.8299              2998.2168              2999.3506
 Red. masses --      1.0598                 1.0860                 1.0603
 Frc consts  --      5.6118                 5.7519                 5.6200
 IR Inten    --      1.7997                24.1508                 6.1711

                    121                    122                    123
                      A                      A                      A
 Frequencies --   3000.8817              3006.2114              3012.6851
 Red. masses --      1.0588                 1.0605                 1.0624
 Frc consts  --      5.6176                 5.6468                 5.6815
 IR Inten    --      0.2705                 0.5327                15.8578

                    124                    125                    126
                      A                      A                      A
 Frequencies --   3016.5568              3017.8392              3022.1755
 Red. masses --      1.0611                 1.0970                 1.0937
 Frc consts  --      5.6889                 5.8863                 5.8857
 IR Inten    --    140.8502                 2.6502                 0.7377

                    127                    128                    129
                      A                      A                      A
 Frequencies --   3023.4795              3027.5961              3028.6697
 Red. masses --      1.0612                 1.0358                 1.0868
 Frc consts  --      5.7156                 5.5938                 5.8737
 IR Inten    --     47.1764                41.9635                18.2323

                    130                    131                    132
                      A                      A                      A
 Frequencies --   3030.6796              3030.7203              3033.4501
 Red. masses --      1.0531                 1.0509                 1.0440
 Frc consts  --      5.6989                 5.6873                 5.6600
 IR Inten    --     12.9257                 6.2836                41.9249

                    133                    134                    135
                      A                      A                      A
 Frequencies --   3034.3863              3039.8972              3046.1835
 Red. masses --      1.1028                 1.0366                 1.1041
 Frc consts  --      5.9824                 5.6441                 6.0361
 IR Inten    --      1.8553                14.1135                 2.3508

                    136                    137                    138
                      A                      A                      A
 Frequencies --   3057.7199              3065.2064              3069.0508
 Red. masses --      1.1046                 1.1044                 1.1009
 Frc consts  --      6.0850                 6.1137                 6.1093
 IR Inten    --     14.5495                64.0583                19.3867

                    139                    140                    141
                      A                      A                      A
 Frequencies --   3069.5571              3093.6742              3096.9285
 Red. masses --      1.1018                 1.1020                 1.0966
 Frc consts  --      6.1166                 6.2142                 6.1969
 IR Inten    --    136.9041                60.7647                31.9319

                    142                    143                    144
                      A                      A                      A
 Frequencies --   3098.8443              3099.0168              3105.9918
 Red. masses --      1.1007                 1.1009                 1.1013
 Frc consts  --      6.2274                 6.2296                 6.2598
 IR Inten    --     38.2890                41.4161                47.9134

                    145                    146                    147
                      A                      A                      A
 Frequencies --   3109.7229              3111.8658              3114.5371
 Red. masses --      1.1002                 1.1011                 1.1002
 Frc consts  --      6.2688                 6.2826                 6.2879
 IR Inten    --     51.7709                26.2515                27.1143

 - Thermochemistry -
 -------------------
 Temperature   298.150 Kelvin.  Pressure   1.00000 Atm.
 Atom     1 has atomic number  6 and mass  12.00000

 Molecular mass:   242.26097 amu.
 Principal axes and moments of inertia in atomic units:
                           1         2         3
     Eigenvalues --  1010.99660********************
           X            1.00000  -0.00081  -0.00060
           Y            0.00081   1.00000   0.00177
           Z            0.00060  -0.00177   1.00000
 This molecule is an asymmetric top.
 Rotational symmetry number  1.
 Warning -- assumption of classical behavior for rotation
           may cause significant error
 Rotational temperatures (Kelvin)      0.08567     0.00349     0.00341
 Rotational constants (GHZ):           1.78511     0.07278     0.07098
 Zero-point vibrational energy    1248422.3 (Joules/Mol)
                                  298.38008 (Kcal/Mol)
 Warning -- explicit consideration of  33 degrees of freedom as
           vibrations may cause significant error
 Vibrational temperatures:     17.75    26.38    38.08    50.70    59.18
          (Kelvin)             92.55    96.64   118.49   127.90   140.70
                              166.36   186.31   192.83   217.21   220.28
                              235.43   283.56   295.36   337.86   350.71
                              356.20   371.41   406.59   450.62   493.03
                              544.11   599.21   605.41   644.45   672.22
                              709.98   756.37   804.68  1052.07  1055.32
                             1078.34  1120.45  1134.51  1143.72  1200.12
                             1218.46  1251.95  1291.75  1308.76  1340.89
                             1358.56  1394.79  1401.26  1423.71  1427.89
                             1452.05  1471.62  1490.81  1499.89  1512.10
                             1527.63  1535.88  1541.78  1549.38  1592.40
                             1611.19  1648.99  1652.35  1670.51  1690.39
                             1718.68  1731.78  1753.62  1773.20  1791.60
                             1815.15  1835.24  1850.33  1865.45  1874.11
                             1891.19  1906.28  1907.88  1910.89  1920.22
                             1922.50  1925.64  1956.77  1977.34  1983.54
                             1985.77  1993.19  2008.68  2015.38  2017.63
                             2023.17  2033.37  2033.42  2034.90  2070.55
                             2124.87  2131.73  2133.58  2134.23  2137.73
                             2144.46  2144.98  2149.70  2155.18  2156.73
                             2157.89  2161.23  2167.00  2169.85  2173.88
                             2174.47  2181.35  2199.48  4227.18  4238.86
                             4290.67  4311.80  4313.21  4313.77  4315.40
                             4317.60  4325.27  4334.58  4340.15  4342.00
                             4348.24  4350.11  4356.04  4357.58  4360.47
                             4360.53  4364.46  4365.81  4373.73  4382.78
                             4399.38  4410.15  4415.68  4416.41  4451.11
                             4455.79  4458.55  4458.79  4468.83  4474.20
                             4477.28  4481.12

 Zero-point correction=                           0.475499 (Hartree/Particle)
 Thermal correction to Energy=                    0.498823
 Thermal correction to Enthalpy=                  0.499767
 Thermal correction to Gibbs Free Energy=         0.418464
 Sum of electronic and zero-point Energies=           -705.009607
 Sum of electronic and thermal Energies=              -704.986283
 Sum of electronic and thermal Enthalpies=            -704.985339
 Sum of electronic and thermal Free Energies=         -705.066642

                     E (Thermal)             CV                S
                      KCal/Mol        Cal/Mol-Kelvin    Cal/Mol-Kelvin
 Total                  313.016             82.851            171.117
 Electronic               0.000              0.000              0.000
 Translational            0.889              2.981             42.356
 Rotational               0.889              2.981             34.810
 Vibrational            311.238             76.889             93.952
 Vibration     1          0.593              1.987              7.593
 Vibration     2          0.593              1.986              6.807
 Vibration     3          0.593              1.985              6.078
 Vibration     4          0.594              1.982              5.510
 Vibration     5          0.594              1.981              5.204
 Vibration     6          0.597              1.971              4.320
 Vibration     7          0.598              1.970              4.235
 Vibration     8          0.600              1.961              3.834
 Vibration     9          0.602              1.957              3.684
 Vibration    10          0.603              1.951              3.498
 Vibration    11          0.608              1.936              3.172
 Vibration    12          0.612              1.924              2.954
 Vibration    13          0.613              1.919              2.887
 Vibration    14          0.618              1.902              2.660
 Vibration    15          0.619              1.899              2.633
 Vibration    16          0.623              1.887              2.507
 Vibration    17          0.636              1.844              2.160
 Vibration    18          0.640              1.832              2.085
 Vibration    19          0.655              1.788              1.842
 Vibration    20          0.659              1.773              1.775
 Vibration    21          0.661              1.767              1.748
 Vibration    22          0.667              1.749              1.674
 Vibration    23          0.682              1.706              1.518
 Vibration    24          0.701              1.649              1.345
 Vibration    25          0.722              1.590              1.200
 Vibration    26          0.748              1.517              1.046
 Vibration    27          0.780              1.434              0.904
 Vibration    28          0.783              1.425              0.889
 Vibration    29          0.807              1.365              0.802
 Vibration    30          0.824              1.323              0.745
 Vibration    31          0.849              1.265              0.675
 Vibration    32          0.881              1.193              0.597
 Vibration    33          0.915              1.119              0.525

                           ! Non-Optimized Parameters !
 Normal termination of Gaussian 16 at Mon May 22 18:46:44 2023.
