 Gaussian 16, Revision A.03,
 Gaussian 16:  ES64L-G16RevA.03 25-Dec-2016

 -----------------------------
 # opt freq b3lyp/6-31g(2df,p)
 -----------------------------

 -------------------
 Title Card Required
 -------------------
 Symbolic Z-matrix:
 Charge =  0 Multiplicity = 1

 SCF Done:  E(RB3LYP) =  -393.153708083     A.U. after   12 cycles
 SCF Done:  E(RB3LYP) =  -393.158062575     A.U. after   10 cycles
 SCF Done:  E(RB3LYP) =  -393.158494040     A.U. after    9 cycles
 SCF Done:  E(RB3LYP) =  -393.158548267     A.U. after    8 cycles
 SCF Done:  E(RB3LYP) =  -393.158552167     A.U. after    7 cycles
 SCF Done:  E(RB3LYP) =  -393.158552463     A.U. after    5 cycles
 Optimization completed.
    -- Stationary point found.
 Normal termination of Gaussian 16 at Sun May 28 05:50:30 2023.

 ----------------------------------------------------------------------
 #N Geom=AllCheck Guess=TCheck SCRF=Check GenChk RB3LYP/6-31G(2df,p) Fr
 eq
 ----------------------------------------------------------------------

 Structure from the checkpoint file:  "CCCCCC1CCCC1.chk"
 -------------------
 Title Card Required
 -------------------
 Charge =  0 Multiplicity = 1

                         Standard orientation:
 ---------------------------------------------------------------------
 Center     Atomic      Atomic             Coordinates (Angstroms)
 Number     Number       Type             X           Y           Z
 ---------------------------------------------------------------------
      1          6           0       -5.037939   -0.024573    0.164837
      2          6           0       -3.674161    0.531916   -0.253103
      3          6           0       -2.503460   -0.371741    0.148501
      4          6           0       -1.134189    0.177063   -0.266531
      5          6           0        0.032639   -0.732494    0.137690
      6          6           0        1.410596   -0.236948   -0.308820
      7          6           0        1.890313    1.076757    0.336330
      8          6           0        3.397787    1.127253    0.017378
      9          6           0        3.857091   -0.358952   -0.062668
     10          6           0        2.562455   -1.205325    0.026357
     11          1           0       -5.852640    0.641904   -0.135645
     12          1           0       -5.096918   -0.153110    1.251522
     13          1           0       -5.223090   -1.003254   -0.292101
     14          1           0       -3.532247    1.526211    0.191146
     15          1           0       -3.657566    0.682884   -1.340800
     16          1           0       -2.645713   -1.367599   -0.294784
     17          1           0       -2.519962   -0.523136    1.237187
     18          1           0       -0.996804    1.172904    0.174982
     19          1           0       -1.118055    0.324516   -1.355797
     20          1           0       -0.138349   -1.735266   -0.278323
     21          1           0        0.036185   -0.856493    1.230618
     22          1           0        1.390474   -0.090379   -1.400023
     23          1           0        1.731315    1.020155    1.422193
     24          1           0        1.355047    1.960824   -0.021699
     25          1           0        3.960495    1.701419    0.758770
     26          1           0        3.556294    1.622272   -0.946720
     27          1           0        4.553522   -0.613572    0.741275
     28          1           0        4.386481   -0.547912   -1.001387
     29          1           0        2.424178   -1.578938    1.049200
     30          1           0        2.580560   -2.081164   -0.629437
 ---------------------------------------------------------------------

 SCF Done:  E(RB3LYP) =  -393.158552463     A.U. after    1 cycles

 The electronic state is 1-A.
 Alpha  occ. eigenvalues --  -10.17473 -10.17402 -10.17154 -10.17119 -10.17092
 Alpha  occ. eigenvalues --  -10.17063 -10.17049 -10.16901 -10.16872 -10.16843
 Alpha  occ. eigenvalues --   -0.83023  -0.79383  -0.75289  -0.70475  -0.69814
 Alpha  occ. eigenvalues --   -0.65001  -0.59359  -0.57118  -0.55406  -0.54804
 Alpha  occ. eigenvalues --   -0.47512  -0.46627  -0.45469  -0.43253  -0.41599
 Alpha  occ. eigenvalues --   -0.40997  -0.40221  -0.39263  -0.36809  -0.35304
 Alpha  occ. eigenvalues --   -0.34793  -0.33381  -0.32858  -0.32545  -0.32252
 Alpha  occ. eigenvalues --   -0.31528  -0.30963  -0.30695  -0.30270  -0.29255
 Alpha virt. eigenvalues --    0.08334   0.09495   0.10032   0.11266   0.12172
 Alpha virt. eigenvalues --    0.13013   0.14223   0.14673   0.15730   0.16322
 Alpha virt. eigenvalues --    0.17632   0.17819   0.17954   0.18421   0.19155

 Mulliken charges:
               1
     1  C   -0.378804
     2  C   -0.163674
     3  C   -0.157196
     4  C   -0.184182
     5  C   -0.205217
     6  C    0.051577
     7  C   -0.196150
     8  C   -0.205557
     9  C   -0.206677
    10  C   -0.212069
    11  H    0.109204
    12  H    0.112219
    13  H    0.112221
    14  H    0.092663
    15  H    0.092461
    16  H    0.089183
    17  H    0.089490
    18  H    0.094860
    19  H    0.088850
    20  H    0.087001
    21  H    0.086885
    22  H    0.062140
    23  H    0.088923
    24  H    0.091363
    25  H    0.092484
    26  H    0.096028
    27  H    0.095560
    28  H    0.096020
    29  H    0.091138
    30  H    0.089254
 Sum of Mulliken charges =  -0.00000

 Dipole moment (field-independent basis, Debye):
    X=              0.0176    Y=              0.0368    Z=             -0.0672  Tot=              0.0786
 Quadrupole moment (field-independent basis, Debye-Ang):
   XX=            -67.7897   YY=            -66.6030   ZZ=            -65.1060
   XY=             -0.1627   XZ=              0.1919   YZ=              0.3441

  Exact polarizability: 133.215   0.079  98.978  -0.224  -0.117  92.291
 Approx polarizability: 146.811   0.067 144.697   0.210   0.214 146.594

                      1                      2                      3
                      A                      A                      A
 Frequencies --     20.5032                47.0227                58.1866
 Red. masses --      1.6481                 2.6109                 1.8691
 Frc consts  --      0.0004                 0.0034                 0.0037
 IR Inten    --      0.0003                 0.0053                 0.0006

                      4                      5                      6
                      A                      A                      A
 Frequencies --     75.9412               121.5785               139.9646
 Red. masses --      2.8883                 2.4864                 1.7445
 Frc consts  --      0.0098                 0.0217                 0.0201
 IR Inten    --      0.0046                 0.0099                 0.0002

                      7                      8                      9
                      A                      A                      A
 Frequencies --    170.6692               217.9686               247.8125
 Red. masses --      2.5156                 2.3904                 1.1218
 Frc consts  --      0.0432                 0.0669                 0.0406
 IR Inten    --      0.0077                 0.0005                 0.0008

                     10                     11                     12
                      A                      A                      A
 Frequencies --    268.4362               354.1244               429.7042
 Red. masses --      3.7544                 2.5869                 1.9628
 Frc consts  --      0.1594                 0.1911                 0.2135
 IR Inten    --      0.0314                 0.0250                 0.2929

                     13                     14                     15
                      A                      A                      A
 Frequencies --    470.7605               581.3517               628.1358
 Red. masses --      2.8799                 2.5512                 2.5868
 Frc consts  --      0.3760                 0.5080                 0.6013
 IR Inten    --      0.3386                 0.4838                 0.3428

                     16                     17                     18
                      A                      A                      A
 Frequencies --    732.2787               753.4782               768.6760
 Red. masses --      1.0709                 1.1831                 1.2014
 Frc consts  --      0.3383                 0.3957                 0.4182
 IR Inten    --      3.2678                 0.2606                 0.5680

                     19                     20                     21
                      A                      A                      A
 Frequencies --    811.3427               838.3051               875.9892
 Red. masses --      1.6246                 1.3453                 2.6038
 Frc consts  --      0.6301                 0.5570                 1.1772
 IR Inten    --      0.2816                 0.7696                 0.0610

                     22                     23                     24
                      A                      A                      A
 Frequencies --    894.4305               903.2600               936.7111
 Red. masses --      2.4781                 1.8955                 1.5671
 Frc consts  --      1.1680                 0.9112                 0.8101
 IR Inten    --      0.5200                 2.1511                 0.7715

                     25                     26                     27
                      A                      A                      A
 Frequencies --    955.6505               977.8744               987.8910
 Red. masses --      2.1574                 1.2582                 1.3789
 Frc consts  --      1.1609                 0.7089                 0.7929
 IR Inten    --      0.8493                 0.3596                 0.0943

                     28                     29                     30
                      A                      A                      A
 Frequencies --   1012.8296              1032.9634              1053.5064
 Red. masses --      2.8096                 2.5896                 2.5841
 Frc consts  --      1.6981                 1.6280                 1.6898
 IR Inten    --      0.0918                 0.0469                 0.3051

                     31                     32                     33
                      A                      A                      A
 Frequencies --   1057.7998              1068.3810              1098.1787
 Red. masses --      1.5241                 2.2233                 2.0732
 Frc consts  --      1.0048                 1.4952                 1.4731
 IR Inten    --      0.1816                 0.1272                 0.6539

                     34                     35                     36
                      A                      A                      A
 Frequencies --   1114.8512              1147.6360              1204.5809
 Red. masses --      1.6672                 2.6177                 1.4921
 Frc consts  --      1.2209                 2.0313                 1.2756
 IR Inten    --      0.3323                 0.6464                 0.6683

                     37                     38                     39
                      A                      A                      A
 Frequencies --   1212.2976              1224.1265              1242.1705
 Red. masses --      1.5762                 1.4608                 1.3707
 Frc consts  --      1.3649                 1.2897                 1.2461
 IR Inten    --      0.4160                 2.1823                 0.6172

                     40                     41                     42
                      A                      A                      A
 Frequencies --   1256.6539              1270.0482              1294.8425
 Red. masses --      1.3951                 1.2416                 1.2830
 Frc consts  --      1.2981                 1.1800                 1.2674
 IR Inten    --      2.3298                 3.3306                 0.1457

                     43                     44                     45
                      A                      A                      A
 Frequencies --   1299.3392              1316.7308              1324.0263
 Red. masses --      1.2573                 1.2637                 1.2187
 Frc consts  --      1.2506                 1.2909                 1.2588
 IR Inten    --      0.0393                 0.1781                 0.3994

                     46                     47                     48
                      A                      A                      A
 Frequencies --   1330.3571              1332.6615              1338.4735
 Red. masses --      1.0661                 1.2057                 1.2700
 Frc consts  --      1.1117                 1.2617                 1.3405
 IR Inten    --      0.2819                 0.1544                 0.1557

                     49                     50                     51
                      A                      A                      A
 Frequencies --   1347.7120              1359.6409              1385.5995
 Red. masses --      1.3127                 1.3748                 1.4629
 Frc consts  --      1.4048                 1.4974                 1.6548
 IR Inten    --      2.3099                 1.7799                 2.6245

                     52                     53                     54
                      A                      A                      A
 Frequencies --   1398.1065              1400.6388              1413.0474
 Red. masses --      1.5898                 1.6319                 1.2551
 Frc consts  --      1.8310                 1.8863                 1.4766
 IR Inten    --      0.2268                 0.2981                 0.5916

                     55                     56                     57
                      A                      A                      A
 Frequencies --   1480.2356              1483.3369              1485.9057
 Red. masses --      1.0776                 1.0703                 1.0786
 Frc consts  --      1.3911                 1.3875                 1.4031
 IR Inten    --      0.3367                 0.2022                 0.0325

                     58                     59                     60
                      A                      A                      A
 Frequencies --   1490.5477              1494.8993              1496.3244
 Red. masses --      1.0737                 1.0881                 1.0820
 Frc consts  --      1.4055                 1.4327                 1.4274
 IR Inten    --      0.3227                 0.3672                 2.7775

                     61                     62                     63
                      A                      A                      A
 Frequencies --   1499.7965              1504.0237              1513.9493
 Red. masses --      1.0403                 1.0801                 1.0924
 Frc consts  --      1.3788                 1.4396                 1.4752
 IR Inten    --      4.9189                 0.4657                 2.7258

                     64                     65                     66
                      A                      A                      A
 Frequencies --   1518.8396              2979.8367              2994.8808
 Red. masses --      1.1036                 1.0806                 1.0592
 Frc consts  --      1.4999                 5.6531                 5.5972
 IR Inten    --      0.3376                 8.1644                 4.5128

                     67                     68                     69
                      A                      A                      A
 Frequencies --   2998.9632              3006.6949              3013.2788
 Red. masses --      1.0580                 1.0610                 1.0682
 Frc consts  --      5.6065                 5.6513                 5.7147
 IR Inten    --      3.4983                10.8988                20.1835

                     70                     71                     72
                      A                      A                      A
 Frequencies --   3015.1971              3020.9616              3023.9752
 Red. masses --      1.0631                 1.0920                 1.0754
 Frc consts  --      5.6943                 5.8719                 5.7940
 IR Inten    --     68.2476                 3.4567                43.2107

                     73                     74                     75
                      A                      A                      A
 Frequencies --   3027.3292              3027.5592              3039.5965
 Red. masses --      1.0865                 1.0402                 1.0642
 Frc consts  --      5.8668                 5.6178                 5.7931
 IR Inten    --     14.3434                53.6196                22.5608

                     76                     77                     78
                      A                      A                      A
 Frequencies --   3044.2475              3053.8430              3060.9796
 Red. masses --      1.1026                 1.0644                 1.1043
 Frc consts  --      6.0206                 5.8485                 6.0961
 IR Inten    --      0.3193                53.5432                81.6908

                     79                     80                     81
                      A                      A                      A
 Frequencies --   3070.2424              3081.4790              3084.9344
 Red. masses --      1.0962                 1.0960                 1.0986
 Frc consts  --      6.0883                 6.1317                 6.1602
 IR Inten    --     44.8650                 8.3785                25.6740

                     82                     83                     84
                      A                      A                      A
 Frequencies --   3093.5753              3098.9483              3100.4462
 Red. masses --      1.1020                 1.1009                 1.1050
 Frc consts  --      6.2137                 6.2293                 6.2583
 IR Inten    --     59.4138                39.3408                85.1768

 - Thermochemistry -
 -------------------
 Temperature   298.150 Kelvin.  Pressure   1.00000 Atm.
 Atom     1 has atomic number  6 and mass  12.00000

 Molecular mass:   140.15650 amu.
 Principal axes and moments of inertia in atomic units:
                           1         2         3
     Eigenvalues --   402.350454500.173274743.86786
           X            1.00000   0.00034  -0.00060
           Y           -0.00034   0.99996  -0.00905
           Z            0.00060   0.00905   0.99996
 This molecule is an asymmetric top.
 Rotational symmetry number  1.
 Rotational temperatures (Kelvin)      0.21527     0.01925     0.01826
 Rotational constants (GHZ):           4.48550     0.40104     0.38044
 Zero-point vibrational energy     739352.4 (Joules/Mol)
                                  176.70947 (Kcal/Mol)
 Warning -- explicit consideration of  14 degrees of freedom as
           vibrations may cause significant error
 Vibrational temperatures:     29.50    67.66    83.72   109.26   174.92
          (Kelvin)            201.38   245.55   313.61   356.55   386.22
                              509.51   618.25   677.32   836.44   903.75
                             1053.59  1084.09  1105.95  1167.34  1206.13
                             1260.35  1286.89  1299.59  1347.72  1374.97
                             1406.94  1421.35  1457.24  1486.20  1515.76
                             1521.94  1537.16  1580.03  1604.02  1651.19
                             1733.12  1744.23  1761.24  1787.21  1808.04
                             1827.32  1862.99  1869.46  1894.48  1904.98
                             1914.09  1917.40  1925.76  1939.06  1956.22
                             1993.57  2011.56  2015.21  2033.06  2129.73
                             2134.19  2137.89  2144.57  2150.83  2152.88
                             2157.87  2163.95  2178.24  2185.27  4287.32
                             4308.97  4314.84  4325.96  4335.44  4338.20
                             4346.49  4350.83  4355.65  4355.98  4373.30
                             4379.99  4393.80  4404.07  4417.39  4433.56
                             4438.53  4450.96  4458.70  4460.85

 Zero-point correction=                           0.281604 (Hartree/Particle)
 Thermal correction to Energy=                    0.293667
 Thermal correction to Enthalpy=                  0.294612
 Thermal correction to Gibbs Free Energy=         0.241519
 Sum of electronic and zero-point Energies=           -392.876948
 Sum of electronic and thermal Energies=              -392.864885
 Sum of electronic and thermal Enthalpies=            -392.863941
 Sum of electronic and thermal Free Energies=         -392.917033

                     E (Thermal)             CV                S
                      KCal/Mol        Cal/Mol-Kelvin    Cal/Mol-Kelvin
 Total                  184.279             43.819            111.743
 Electronic               0.000              0.000              0.000
 Translational            0.889              2.981             40.724
 Rotational               0.889              2.981             30.530
 Vibrational            182.502             37.857             40.488
 Vibration     1          0.593              1.986              6.585
 Vibration     2          0.595              1.979              4.939
 Vibration     3          0.596              1.974              4.518
 Vibration     4          0.599              1.965              3.993
 Vibration     5          0.609              1.931              3.075
 Vibration     6          0.615              1.913              2.804
 Vibration     7          0.626              1.879              2.428
 Vibration     8          0.646              1.814              1.976
 Vibration     9          0.661              1.766              1.746
 Vibration    10          0.673              1.731              1.606
 Vibration    11          0.730              1.567              1.148
 Vibration    12          0.791              1.406              0.860
 Vibration    13          0.828              1.315              0.735
 Vibration    14          0.938              1.072              0.483

                           ! Non-Optimized Parameters !
 Normal termination of Gaussian 16 at Sun May 28 06:40:40 2023.
