 Gaussian 16, Revision A.03,
 Gaussian 16:  ES64L-G16RevA.03 25-Dec-2016

 -----------------------------
 # opt freq b3lyp/6-31g(2df,p)
 -----------------------------

 -------------------
 Title Card Required
 -------------------
 Symbolic Z-matrix:
 Charge =  0 Multiplicity = 1

 SCF Done:  E(RB3LYP) =  -680.943487846     A.U. after   12 cycles
 SCF Done:  E(RB3LYP) =  -680.960998559     A.U. after   11 cycles
 SCF Done:  E(RB3LYP) =  -680.965485040     A.U. after   10 cycles
 SCF Done:  E(RB3LYP) =  -680.967117617     A.U. after   10 cycles
 SCF Done:  E(RB3LYP) =  -680.969065225     A.U. after   10 cycles
 SCF Done:  E(RB3LYP) =  -680.969111743     A.U. after   11 cycles
 SCF Done:  E(RB3LYP) =  -680.970656966     A.U. after   11 cycles
 SCF Done:  E(RB3LYP) =  -680.970824945     A.U. after    8 cycles
 SCF Done:  E(RB3LYP) =  -680.970868651     A.U. after    8 cycles
 SCF Done:  E(RB3LYP) =  -680.970871703     A.U. after    8 cycles
 SCF Done:  E(RB3LYP) =  -680.970872388     A.U. after    7 cycles
 SCF Done:  E(RB3LYP) =  -680.970872517     A.U. after    6 cycles
 Optimization completed.
    -- Stationary point found.
 Normal termination of Gaussian 16 at Mon May 22 11:22:19 2023.

 ----------------------------------------------------------------------
 #N Geom=AllCheck Guess=TCheck SCRF=Check GenChk RB3LYP/6-31G(2df,p) Fr
 eq
 ----------------------------------------------------------------------

 Structure from the checkpoint file:  "CCCCCCC1CCCqCOrCCCN1.chk"
 -------------------
 Title Card Required
 -------------------
 Charge =  0 Multiplicity = 1

                         Standard orientation:
 ---------------------------------------------------------------------
 Center     Atomic      Atomic             Coordinates (Angstroms)
 Number     Number       Type             X           Y           Z
 ---------------------------------------------------------------------
      1          6           0       -6.961476    0.432748   -0.976775
      2          6           0       -5.883874    0.424553    0.110921
      3          6           0       -4.470153    0.208935   -0.439825
      4          6           0       -3.384348    0.200841    0.641428
      5          6           0       -1.973796   -0.023320    0.086654
      6          6           0       -0.888950   -0.018193    1.167805
      7          6           0        0.530367   -0.316372    0.644082
      8          6           0        1.563457    0.005140    1.745906
      9          6           0        3.059140   -0.244662    1.465603
     10          6           0        3.694135    0.356273    0.183976
     11          6           0        3.226607    1.792414   -0.105567
     12          8           0        3.997732    2.429206   -1.115744
     13          6           0        3.674512   -0.552047   -1.067176
     14          6           0        2.353913   -1.142708   -1.595579
     15          6           0        1.670881   -2.179640   -0.680657
     16          7           0        0.536254   -1.668265    0.094751
     17          1           0       -7.958796    0.588286   -0.553076
     18          1           0       -6.977239   -0.515753   -1.525391
     19          1           0       -6.781628    1.230746   -1.705972
     20          1           0       -6.109753   -0.360931    0.844562
     21          1           0       -5.915428    1.372244    0.665101
     22          1           0       -4.244594    0.993888   -1.175532
     23          1           0       -4.437324   -0.739685   -0.993984
     24          1           0       -3.613802   -0.582062    1.378442
     25          1           0       -3.416575    1.150979    1.193813
     26          1           0       -1.747543    0.757803   -0.653119
     27          1           0       -1.928480   -0.975318   -0.453136
     28          1           0       -1.138702   -0.758070    1.943938
     29          1           0       -0.880797    0.954779    1.675465
     30          1           0        0.705405    0.365592   -0.194795
     31          1           0        1.296942   -0.566142    2.646767
     32          1           0        1.429448    1.060487    2.019751
     33          1           0        3.266069   -1.320003    1.479849
     34          1           0        3.601761    0.163340    2.327969
     35          1           0        4.766081    0.457929    0.420189
     36          1           0        3.242491    2.378297    0.827755
     37          1           0        2.198923    1.815476   -0.478918
     38          1           0        4.910083    2.462053   -0.809632
     39          1           0        4.348554   -1.396270   -0.868146
     40          1           0        4.137772    0.022221   -1.877198
     41          1           0        2.603561   -1.648471   -2.535110
     42          1           0        1.642071   -0.360078   -1.877071
     43          1           0        2.449463   -2.644577   -0.052213
     44          1           0        1.275088   -2.990582   -1.305983
     45          1           0        0.278810   -2.335741    0.813595
 ---------------------------------------------------------------------

 SCF Done:  E(RB3LYP) =  -680.970872516     A.U. after    1 cycles

 The electronic state is 1-A.
 Alpha  occ. eigenvalues --  -19.13235 -14.30082 -10.22086 -10.20089 -10.19799
 Alpha  occ. eigenvalues --  -10.18424 -10.17860 -10.17511 -10.17309 -10.17238
 Alpha  occ. eigenvalues --  -10.17172 -10.17021 -10.16845 -10.16817 -10.16644
 Alpha  occ. eigenvalues --  -10.16403  -1.01248  -0.89397  -0.80386  -0.79852
 Alpha  occ. eigenvalues --   -0.78068  -0.75381  -0.71841  -0.70722  -0.67146
 Alpha  occ. eigenvalues --   -0.65921  -0.62210  -0.58872  -0.58259  -0.56732
 Alpha  occ. eigenvalues --   -0.56578  -0.53747  -0.48923  -0.48461  -0.46992
 Alpha  occ. eigenvalues --   -0.46544  -0.45707  -0.44305  -0.43366  -0.42406
 Alpha  occ. eigenvalues --   -0.41855  -0.41503  -0.41022  -0.39727  -0.38909
 Alpha  occ. eigenvalues --   -0.38487  -0.37654  -0.36877  -0.36158  -0.34750
 Alpha  occ. eigenvalues --   -0.34453  -0.34156  -0.33805  -0.32799  -0.32281
 Alpha  occ. eigenvalues --   -0.31649  -0.31606  -0.31424  -0.31087  -0.30296
 Alpha  occ. eigenvalues --   -0.29880  -0.28972  -0.26083  -0.20148
 Alpha virt. eigenvalues --    0.06496   0.07913   0.08692   0.09607   0.10376
 Alpha virt. eigenvalues --    0.11199   0.11991   0.12021   0.12735   0.13552
 Alpha virt. eigenvalues --    0.14286   0.14993   0.15349   0.15793   0.16249

 Mulliken charges:
               1
     1  C   -0.378682
     2  C   -0.162473
     3  C   -0.157306
     4  C   -0.178108
     5  C   -0.180981
     6  C   -0.192529
     7  C    0.027361
     8  C   -0.191466
     9  C   -0.253944
    10  C    0.010113
    11  C   -0.073129
    12  O   -0.419916
    13  C   -0.202409
    14  C   -0.196518
    15  C   -0.143063
    16  N   -0.287755
    17  H    0.108246
    18  H    0.112059
    19  H    0.112126
    20  H    0.091462
    21  H    0.091705
    22  H    0.089228
    23  H    0.090341
    24  H    0.086760
    25  H    0.086511
    26  H    0.084807
    27  H    0.108029
    28  H    0.081347
    29  H    0.087883
    30  H    0.078861
    31  H    0.081436
    32  H    0.092775
    33  H    0.099554
    34  H    0.089556
    35  H    0.057875
    36  H    0.084787
    37  H    0.114878
    38  H    0.278307
    39  H    0.086490
    40  H    0.105038
    41  H    0.096032
    42  H    0.110413
    43  H    0.076322
    44  H    0.091841
    45  H    0.206138
 Sum of Mulliken charges =  -0.00000

 Dipole moment (field-independent basis, Debye):
    X=              1.3100    Y=             -0.7452    Z=              1.5914  Tot=              2.1918
 Quadrupole moment (field-independent basis, Debye-Ang):
   XX=            -97.4085   YY=           -103.7472   ZZ=           -105.3307
   XY=             -0.6709   XZ=              3.1779   YZ=              2.0138

  Exact polarizability: 194.876   1.182 147.701  -1.642   3.903 148.007
 Approx polarizability: 226.470   1.015 225.032  -2.998   0.193 221.510

                      1                      2                      3
                      A                      A                      A
 Frequencies --     26.2102                38.9460                42.9537
 Red. masses --      4.1668                 2.0173                 2.3318
 Frc consts  --      0.0017                 0.0018                 0.0025
 IR Inten    --      0.0977                 0.1608                 0.4041

                      4                      5                      6
                      A                      A                      A
 Frequencies --     68.7768                96.6354               103.3701
 Red. masses --      3.5225                 3.5285                 3.0578
 Frc consts  --      0.0098                 0.0194                 0.0193
 IR Inten    --      0.0433                 0.2411                 2.9261

                      7                      8                      9
                      A                      A                      A
 Frequencies --    117.4199               124.5693               148.8172
 Red. masses --      2.3038                 1.8471                 2.0180
 Frc consts  --      0.0187                 0.0169                 0.0263
 IR Inten    --      0.5512                 0.1516                 1.1594

                     10                     11                     12
                      A                      A                      A
 Frequencies --    155.5423               165.0653               194.8482
 Red. masses --      2.7550                 2.3390                 3.4453
 Frc consts  --      0.0393                 0.0375                 0.0771
 IR Inten    --      0.5177                 0.2433                 0.1695

                     13                     14                     15
                      A                      A                      A
 Frequencies --    222.3757               237.6357               247.1100
 Red. masses --      2.8513                 3.1049                 1.1235
 Frc consts  --      0.0831                 0.1033                 0.0404
 IR Inten    --      1.3542                 1.5455                 0.0021

                     16                     17                     18
                      A                      A                      A
 Frequencies --    260.2918               287.4396               302.3459
 Red. masses --      2.4749                 2.6797                 2.6251
 Frc consts  --      0.0988                 0.1304                 0.1414
 IR Inten    --      6.0373                 0.6515                 0.2475

                     19                     20                     21
                      A                      A                      A
 Frequencies --    316.6900               349.5674               390.5893
 Red. masses --      1.1957                 2.8252                 2.2238
 Frc consts  --      0.0707                 0.2034                 0.1999
 IR Inten    --    100.3168                 2.7247                 2.0985

                     22                     23                     24
                      A                      A                      A
 Frequencies --    416.5876               436.0127               454.0583
 Red. masses --      2.0720                 2.1986                 3.0544
 Frc consts  --      0.2119                 0.2463                 0.3710
 IR Inten    --      0.3394                12.7677                 9.7912

                     25                     26                     27
                      A                      A                      A
 Frequencies --    476.6672               497.4743               586.4264
 Red. masses --      2.5759                 2.2682                 2.4597
 Frc consts  --      0.3448                 0.3307                 0.4984
 IR Inten    --      0.6671                 9.1390                19.0218

                     28                     29                     30
                      A                      A                      A
 Frequencies --    625.5041               650.6713               716.5586
 Red. masses --      2.3534                 1.9296                 2.7753
 Frc consts  --      0.5425                 0.4813                 0.8396
 IR Inten    --      7.3901                45.4720                15.2694

                     31                     32                     33
                      A                      A                      A
 Frequencies --    732.1368               743.6798               786.3037
 Red. masses --      1.0650                 1.1122                 1.2684
 Frc consts  --      0.3363                 0.3624                 0.4621
 IR Inten    --      4.3938                 0.3354                 1.3324

                     34                     35                     36
                      A                      A                      A
 Frequencies --    797.7094               826.2386               841.6491
 Red. masses --      1.5734                 2.1632                 1.9354
 Frc consts  --      0.5899                 0.8701                 0.8078
 IR Inten    --     14.8409                 0.4764                 0.2429

                     37                     38                     39
                      A                      A                      A
 Frequencies --    881.9291               896.9420               919.6587
 Red. masses --      1.3685                 1.9667                 1.9617
 Frc consts  --      0.6271                 0.9322                 0.9775
 IR Inten    --      0.9688                 1.0197                 2.2747

                     40                     41                     42
                      A                      A                      A
 Frequencies --    932.6998               950.1007               971.6198
 Red. masses --      1.7876                 2.0004                 1.4655
 Frc consts  --      0.9162                 1.0639                 0.8152
 IR Inten    --      3.9416                 7.6026                 2.5810

                     43                     44                     45
                      A                      A                      A
 Frequencies --    984.8333              1010.9791              1017.4780
 Red. masses --      2.8210                 2.7445                 2.0526
 Frc consts  --      1.6120                 1.6527                 1.2520
 IR Inten    --      2.0821                 0.3636                13.5971

                     46                     47                     48
                      A                      A                      A
 Frequencies --   1026.2028              1038.1483              1049.4114
 Red. masses --      1.7466                 2.1704                 2.1274
 Frc consts  --      1.0837                 1.3782                 1.3804
 IR Inten    --      4.5120                 1.5264                 4.5480

                     49                     50                     51
                      A                      A                      A
 Frequencies --   1063.1525              1065.2269              1072.9817
 Red. masses --      2.5446                 2.2363                 2.4099
 Frc consts  --      1.6946                 1.4951                 1.6347
 IR Inten    --      3.7872                33.9360                18.3650

                     52                     53                     54
                      A                      A                      A
 Frequencies --   1080.8826              1095.1098              1125.3085
 Red. masses --      2.6187                 2.2803                 2.0009
 Frc consts  --      1.8026                 1.6113                 1.4928
 IR Inten    --     47.9016                 2.2446                 3.7579

                     55                     56                     57
                      A                      A                      A
 Frequencies --   1134.0323              1151.9284              1158.6219
 Red. masses --      1.9774                 2.2666                 1.9652
 Frc consts  --      1.4983                 1.7720                 1.5543
 IR Inten    --     11.1104                 4.1332                16.0145

                     58                     59                     60
                      A                      A                      A
 Frequencies --   1171.1414              1196.1133              1206.2031
 Red. masses --      1.5069                 1.6281                 1.4997
 Frc consts  --      1.2177                 1.3724                 1.2856
 IR Inten    --     15.5659                13.8991                 1.3992

                     61                     62                     63
                      A                      A                      A
 Frequencies --   1224.9458              1234.8720              1255.5239
 Red. masses --      1.5929                 1.2352                 1.2983
 Frc consts  --      1.4082                 1.1098                 1.2058
 IR Inten    --      2.1434                 2.0681                 5.2216

                     64                     65                     66
                      A                      A                      A
 Frequencies --   1257.2424              1272.8158              1293.8192
 Red. masses --      1.2584                 1.3177                 1.2850
 Frc consts  --      1.1719                 1.2578                 1.2674
 IR Inten    --      5.4610                 0.5960                 2.7106

                     67                     68                     69
                      A                      A                      A
 Frequencies --   1301.6532              1307.4711              1318.5137
 Red. masses --      1.1760                 1.2403                 1.0930
 Frc consts  --      1.1739                 1.2493                 1.1195
 IR Inten    --      6.2522                 5.2662                 3.9293

                     70                     71                     72
                      A                      A                      A
 Frequencies --   1324.9937              1329.9194              1333.9048
 Red. masses --      1.2135                 1.1499                 1.1160
 Frc consts  --      1.2552                 1.1983                 1.1699
 IR Inten    --      2.6617                 2.4457                 4.1484

                     73                     74                     75
                      A                      A                      A
 Frequencies --   1340.4489              1363.6306              1372.4720
 Red. masses --      1.2741                 1.3487                 1.3732
 Frc consts  --      1.3488                 1.4776                 1.5240
 IR Inten    --      1.6161                 2.4638                 4.5692

                     76                     77                     78
                      A                      A                      A
 Frequencies --   1374.9650              1380.3961              1393.1476
 Red. masses --      1.3702                 1.3945                 1.4149
 Frc consts  --      1.5262                 1.5656                 1.6179
 IR Inten    --      3.3099                 2.5078                 1.9843

                     79                     80                     81
                      A                      A                      A
 Frequencies --   1396.4250              1398.0664              1400.1366
 Red. masses --      1.3092                 1.4445                 1.6019
 Frc consts  --      1.5042                 1.6635                 1.8503
 IR Inten    --      2.1369                 0.5629                 1.9480

                     82                     83                     84
                      A                      A                      A
 Frequencies --   1405.7108              1409.3390              1412.5035
 Red. masses --      1.3210                 1.3722                 1.2864
 Frc consts  --      1.5379                 1.6059                 1.5122
 IR Inten    --     12.6432                 6.0177                17.2934

                     85                     86                     87
                      A                      A                      A
 Frequencies --   1412.9974              1427.4940              1474.0877
 Red. masses --      1.2750                 1.2709                 1.0840
 Frc consts  --      1.4998                 1.5258                 1.3877
 IR Inten    --      5.3683                20.8026                 0.1570

                     88                     89                     90
                      A                      A                      A
 Frequencies --   1478.4529              1481.8582              1483.7497
 Red. masses --      1.0999                 1.0836                 1.0718
 Frc consts  --      1.4165                 1.4019                 1.3902
 IR Inten    --     10.6967                 3.3666                 0.0613

                     91                     92                     93
                      A                      A                      A
 Frequencies --   1485.4939              1492.7624              1494.4579
 Red. masses --      1.0726                 1.0877                 1.0865
 Frc consts  --      1.3945                 1.4281                 1.4297
 IR Inten    --      0.1275                 7.6989                 4.5703

                     94                     95                     96
                      A                      A                      A
 Frequencies --   1496.1537              1499.6201              1507.1642
 Red. masses --      1.0778                 1.0404                 1.0931
 Frc consts  --      1.4214                 1.3785                 1.4629
 IR Inten    --      0.3157                 4.8057                 0.5121

                     97                     98                     99
                      A                      A                      A
 Frequencies --   1507.4736              1514.8879              1520.3684
 Red. masses --      1.0878                 1.1123                 1.2142
 Frc consts  --      1.4565                 1.5039                 1.6537
 IR Inten    --      2.3866                 4.1138                 4.3422

                    100                    101                    102
                      A                      A                      A
 Frequencies --   1533.2410              2942.7161              2954.7477
 Red. masses --      1.0874                 1.0745                 1.0817
 Frc consts  --      1.5061                 5.4821                 5.5640
 IR Inten    --      6.5916                71.5831                35.0228

                    103                    104                    105
                      A                      A                      A
 Frequencies --   2971.7349              2989.2643              2996.1363
 Red. masses --      1.0720                 1.0641                 1.0582
 Frc consts  --      5.5777                 5.6023                 5.5967
 IR Inten    --     48.8098                 4.2597                 0.6829

                    106                    107                    108
                      A                      A                      A
 Frequencies --   2998.2003              3001.0093              3007.2104
 Red. masses --      1.0627                 1.0590                 1.0827
 Frc consts  --      5.6284                 5.6193                 5.7687
 IR Inten    --     32.8394                 1.1430                47.3827

                    109                    110                    111
                      A                      A                      A
 Frequencies --   3009.3344              3012.7080              3014.6759
 Red. masses --      1.0694                 1.0695                 1.0643
 Frc consts  --      5.7060                 5.7195                 5.6991
 IR Inten    --     11.4234                23.5352                79.2637

                    112                    113                    114
                      A                      A                      A
 Frequencies --   3019.6658              3024.2786              3027.2926
 Red. masses --      1.0924                 1.0682                 1.0497
 Frc consts  --      5.8687                 5.7563                 5.6681
 IR Inten    --     17.0186                71.5442                47.9511

                    115                    116                    117
                      A                      A                      A
 Frequencies --   3027.4818              3032.9670              3038.0891
 Red. masses --      1.0815                 1.0992                 1.0854
 Frc consts  --      5.8406                 5.9573                 5.9027
 IR Inten    --      2.7180                 6.0911                 6.7673

                    118                    119                    120
                      A                      A                      A
 Frequencies --   3042.3195              3053.8540              3055.9627
 Red. masses --      1.0713                 1.1014                 1.0911
 Frc consts  --      5.8420                 6.0520                 6.0035
 IR Inten    --     43.6792                56.8685                28.9613

                    121                    122                    123
                      A                      A                      A
 Frequencies --   3066.6856              3069.0655              3079.1785
 Red. masses --      1.0929                 1.0956                 1.0967
 Frc consts  --      6.0558                 6.0804                 6.1262
 IR Inten    --     22.4184                31.8488                 7.3140

                    124                    125                    126
                      A                      A                      A
 Frequencies --   3080.5560              3091.3065              3093.5699
 Red. masses --      1.0959                 1.0893                 1.1020
 Frc consts  --      6.1274                 6.1333                 6.2136
 IR Inten    --    102.0323                48.6229                63.5032

                    127                    128                    129
                      A                      A                      A
 Frequencies --   3098.2529              3522.2842              3807.9495
 Red. masses --      1.1010                 1.0733                 1.0660
 Frc consts  --      6.2268                 7.8458                 9.1071
 IR Inten    --     41.2197                 0.5404                16.0352

 - Thermochemistry -
 -------------------
 Temperature   298.150 Kelvin.  Pressure   1.00000 Atm.
 Atom     1 has atomic number  6 and mass  12.00000

 Molecular mass:   227.22491 amu.
 Principal axes and moments of inertia in atomic units:
                           1         2         3
     Eigenvalues --  1937.73228********************
           X            0.99997  -0.00657   0.00430
           Y            0.00627   0.99778   0.06633
           Z           -0.00472  -0.06630   0.99779
 This molecule is an asymmetric top.
 Rotational symmetry number  1.
 Warning -- assumption of classical behavior for rotation
           may cause significant error
 Rotational temperatures (Kelvin)      0.04470     0.00792     0.00771
 Rotational constants (GHZ):           0.93137     0.16498     0.16062
 Zero-point vibrational energy    1098933.1 (Joules/Mol)
                                  262.65130 (Kcal/Mol)
 Warning -- explicit consideration of  27 degrees of freedom as
           vibrations may cause significant error
 Vibrational temperatures:     37.71    56.03    61.80    98.95   139.04
          (Kelvin)            148.73   168.94   179.23   214.11   223.79
                              237.49   280.34   319.95   341.90   355.54
                              374.50   413.56   435.01   455.65   502.95
                              561.97   599.38   627.33   653.29   685.82
                              715.75   843.74   899.96   936.17  1030.97
                             1053.38  1069.99  1131.32  1147.73  1188.77
                             1210.95  1268.90  1290.50  1323.18  1341.95
                             1366.98  1397.94  1416.96  1454.57  1463.92
                             1476.48  1493.66  1509.87  1529.64  1532.62
                             1543.78  1555.15  1575.62  1619.07  1631.62
                             1657.37  1667.00  1685.01  1720.94  1735.46
                             1762.42  1776.71  1806.42  1808.89  1831.30
                             1861.52  1872.79  1881.16  1897.05  1906.37
                             1913.46  1919.19  1928.61  1961.96  1974.68
                             1978.27  1986.08  2004.43  2009.14  2011.51
                             2014.48  2022.50  2027.72  2032.28  2032.99
                             2053.85  2120.88  2127.16  2132.06  2134.78
                             2137.29  2147.75  2150.19  2152.63  2157.62
                             2168.47  2168.92  2179.59  2187.47  2205.99
                             4233.91  4251.22  4275.66  4300.88  4310.77
                             4313.74  4317.78  4326.71  4329.76  4334.61
                             4337.45  4344.63  4351.26  4355.60  4355.87
                             4363.76  4371.13  4377.22  4393.81  4396.85
                             4412.28  4415.70  4430.25  4432.23  4447.70
                             4450.96  4457.69  5067.78  5478.79

 Zero-point correction=                           0.418561 (Hartree/Particle)
 Thermal correction to Energy=                    0.437479
 Thermal correction to Enthalpy=                  0.438423
 Thermal correction to Gibbs Free Energy=         0.370565
 Sum of electronic and zero-point Energies=           -680.552311
 Sum of electronic and thermal Energies=              -680.533393
 Sum of electronic and thermal Enthalpies=            -680.532449
 Sum of electronic and thermal Free Energies=         -680.600308

                     E (Thermal)             CV                S
                      KCal/Mol        Cal/Mol-Kelvin    Cal/Mol-Kelvin
 Total                  274.522             71.395            142.821
 Electronic               0.000              0.000              0.000
 Translational            0.889              2.981             42.165
 Rotational               0.889              2.981             33.832
 Vibrational            272.745             65.434             66.825
 Vibration     1          0.593              1.985              6.097
 Vibration     2          0.594              1.981              5.312
 Vibration     3          0.595              1.980              5.118
 Vibration     4          0.598              1.969              4.188
 Vibration     5          0.603              1.952              3.521
 Vibration     6          0.605              1.947              3.390
 Vibration     7          0.608              1.935              3.142
 Vibration     8          0.610              1.928              3.028
 Vibration     9          0.618              1.904              2.687
 Vibration    10          0.620              1.896              2.603
 Vibration    11          0.623              1.885              2.491
 Vibration    12          0.636              1.847              2.181
 Vibration    13          0.648              1.807              1.940
 Vibration    14          0.656              1.783              1.821
 Vibration    15          0.661              1.768              1.751
 Vibration    16          0.668              1.745              1.660
 Vibration    17          0.685              1.697              1.489
 Vibration    18          0.694              1.669              1.404
 Vibration    19          0.704              1.642              1.327
 Vibration    20          0.727              1.576              1.168
 Vibration    21          0.758              1.490              0.998
 Vibration    22          0.780              1.434              0.904
 Vibration    23          0.796              1.392              0.839
 Vibration    24          0.813              1.352              0.784
 Vibration    25          0.833              1.302              0.719
 Vibration    26          0.853              1.256              0.664
 Vibration    27          0.943              1.061              0.474

                           ! Non-Optimized Parameters !
 Normal termination of Gaussian 16 at Mon May 22 16:03:38 2023.
