 Gaussian 16, Revision A.03,
 Gaussian 16:  ES64L-G16RevA.03 25-Dec-2016

 -----------------------------
 # opt freq b3lyp/6-31g(2df,p)
 -----------------------------

 -------------------
 Title Card Required
 -------------------
 Symbolic Z-matrix:
 Charge =  0 Multiplicity = 1

 SCF Done:  E(RB3LYP) =  -1419.79788414     A.U. after   12 cycles
 SCF Done:  E(RB3LYP) =  -1419.80988288     A.U. after   11 cycles
 SCF Done:  E(RB3LYP) =  -1419.81167196     A.U. after   12 cycles
 SCF Done:  E(RB3LYP) =  -1419.81635067     A.U. after   13 cycles
 SCF Done:  E(RB3LYP) =  -1419.81610415     A.U. after   13 cycles
 SCF Done:  E(RB3LYP) =  -1419.81300836     A.U. after   13 cycles
 SCF Done:  E(RB3LYP) =  -1419.81248825     A.U. after   12 cycles
 SCF Done:  E(RB3LYP) =  -1419.81681262     A.U. after   10 cycles
 SCF Done:  E(RB3LYP) =  -1419.81916037     A.U. after   11 cycles
 SCF Done:  E(RB3LYP) =  -1419.82030780     A.U. after   11 cycles
 SCF Done:  E(RB3LYP) =  -1419.82857434     A.U. after   11 cycles
 SCF Done:  E(RB3LYP) =  -1419.82864614     A.U. after   11 cycles
 SCF Done:  E(RB3LYP) =  -1419.82857014     A.U. after   10 cycles
 SCF Done:  E(RB3LYP) =  -1419.82865339     A.U. after   10 cycles
 SCF Done:  E(RB3LYP) =  -1419.82865372     A.U. after    8 cycles
 SCF Done:  E(RB3LYP) =  -1419.82865296     A.U. after    9 cycles
 SCF Done:  E(RB3LYP) =  -1419.82865386     A.U. after    8 cycles
 SCF Done:  E(RB3LYP) =  -1419.82865396     A.U. after    6 cycles
 SCF Done:  E(RB3LYP) =  -1419.82865403     A.U. after    6 cycles
 Optimization completed.
    -- Stationary point found.
 Normal termination of Gaussian 16 at Mon May 29 11:07:38 2023.

 ----------------------------------------------------------------------
 #N Geom=AllCheck Guess=TCheck SCRF=Check GenChk RB3LYP/6-31G(2df,p) Fr
 eq
 ----------------------------------------------------------------------

 Structure from the checkpoint file:  "CCCCCCCCSSCqCrOCCO.chk"
 -------------------
 Title Card Required
 -------------------
 Charge =  0 Multiplicity = 1

                         Standard orientation:
 ---------------------------------------------------------------------
 Center     Atomic      Atomic             Coordinates (Angstroms)
 Number     Number       Type             X           Y           Z
 ---------------------------------------------------------------------
      1          6           0       -9.007223   -0.837988   -0.510776
      2          6           0       -7.775998    0.068010   -0.596747
      3          6           0       -6.484948   -0.623124   -0.144922
      4          6           0       -5.247486    0.276706   -0.227949
      5          6           0       -3.957414   -0.416195    0.223950
      6          6           0       -2.720805    0.485559    0.139860
      7          6           0       -1.432775   -0.215462    0.593835
      8          6           0       -0.212103    0.703107    0.503699
      9         16           0        1.287175   -0.214644    1.057950
     10         16           0        2.775444    1.213531    1.031046
     11          6           0        3.538901    1.086092   -0.689876
     12          6           0        3.749996    2.488044   -1.242321
     13          8           0        4.777834    0.448725   -0.676621
     14          6           0        4.753032   -0.944557   -0.421568
     15          6           0        6.178604   -1.469413   -0.566747
     16          8           0        6.243290   -2.864703   -0.332852
     17          1           0       -9.911952   -0.317099   -0.839651
     18          1           0       -9.175471   -1.180907    0.516288
     19          1           0       -8.888597   -1.727858   -1.139130
     20          1           0       -7.938070    0.966002    0.014272
     21          1           0       -7.653554    0.423453   -1.628589
     22          1           0       -6.322441   -1.522348   -0.755777
     23          1           0       -6.606936   -0.979409    0.887696
     24          1           0       -5.410139    1.175449    0.383320
     25          1           0       -5.125854    0.632734   -1.260608
     26          1           0       -3.793488   -1.314558   -0.387171
     27          1           0       -4.077587   -0.771398    1.256742
     28          1           0       -2.881243    1.382992    0.752646
     29          1           0       -2.597674    0.840103   -0.892617
     30          1           0       -1.266369   -1.109206   -0.020959
     31          1           0       -1.549507   -0.566461    1.626723
     32          1           0       -0.327917    1.579661    1.146179
     33          1           0       -0.054379    1.044431   -0.523144
     34          1           0        2.803108    0.516575   -1.273918
     35          1           0        4.397289    3.069399   -0.579182
     36          1           0        2.796814    3.009610   -1.346449
     37          1           0        4.237053    2.421706   -2.219834
     38          1           0        4.085380   -1.460144   -1.127975
     39          1           0        4.379041   -1.140388    0.594910
     40          1           0        6.844312   -0.901843    0.099776
     41          1           0        6.527207   -1.310424   -1.591572
     42          1           0        6.049392   -3.019110    0.597248
 ---------------------------------------------------------------------

 SCF Done:  E(RB3LYP) =  -1419.82865403     A.U. after    1 cycles

 The electronic state is 1-A.
 Alpha  occ. eigenvalues --  -88.88639 -88.88135 -19.15517 -19.13736 -10.26656
 Alpha  occ. eigenvalues --  -10.22759 -10.22660 -10.21354 -10.19212 -10.18630
 Alpha  occ. eigenvalues --  -10.18616 -10.18114 -10.17864 -10.17821 -10.17682
 Alpha  occ. eigenvalues --  -10.17174  -7.94870  -7.94452  -5.91386  -5.90988
 Alpha  occ. eigenvalues --   -5.90951  -5.90543  -5.90376  -5.89983  -1.05191
 Alpha  occ. eigenvalues --   -1.01777  -0.82436  -0.80759  -0.79322  -0.77242
 Alpha  occ. eigenvalues --   -0.74510  -0.72058  -0.70298  -0.66022  -0.62727
 Alpha  occ. eigenvalues --   -0.61855  -0.59449  -0.58239  -0.57483  -0.57285
 Alpha  occ. eigenvalues --   -0.51221  -0.50900  -0.48920  -0.47187  -0.46861
 Alpha  occ. eigenvalues --   -0.45764  -0.43925  -0.43605  -0.43055  -0.42433
 Alpha  occ. eigenvalues --   -0.40521  -0.40287  -0.40104  -0.39359  -0.39165
 Alpha  occ. eigenvalues --   -0.39015  -0.36678  -0.36436  -0.35950  -0.34758
 Alpha  occ. eigenvalues --   -0.34109  -0.33678  -0.33442  -0.32711  -0.32521
 Alpha  occ. eigenvalues --   -0.32486  -0.32086  -0.31619  -0.30449  -0.27429
 Alpha  occ. eigenvalues --   -0.27122  -0.23859  -0.22925
 Alpha virt. eigenvalues --   -0.01555   0.03981   0.04256   0.07036   0.08246
 Alpha virt. eigenvalues --    0.08797   0.09746   0.10711   0.11212   0.11941
 Alpha virt. eigenvalues --    0.12283   0.13076   0.13354   0.13841   0.14464

 Mulliken charges:
               1
     1  C   -0.379373
     2  C   -0.163496
     3  C   -0.158951
     4  C   -0.179147
     5  C   -0.181021
     6  C   -0.190917
     7  C   -0.192404
     8  C   -0.194348
     9  S   -0.110806
    10  S   -0.134633
    11  C    0.115762
    12  C   -0.400494
    13  O   -0.240739
    14  C   -0.075754
    15  C   -0.082391
    16  O   -0.413759
    17  H    0.110594
    18  H    0.113133
    19  H    0.112989
    20  H    0.093540
    21  H    0.093269
    22  H    0.090857
    23  H    0.091164
    24  H    0.092076
    25  H    0.091404
    26  H    0.094197
    27  H    0.095016
    28  H    0.097827
    29  H    0.095673
    30  H    0.112560
    31  H    0.115945
    32  H    0.134381
    33  H    0.121831
    34  H    0.109096
    35  H    0.140582
    36  H    0.130231
    37  H    0.129584
    38  H    0.103503
    39  H    0.105250
    40  H    0.101414
    41  H    0.119427
    42  H    0.286930
 Sum of Mulliken charges =  -0.00000

 Dipole moment (field-independent basis, Debye):
    X=             -2.2189    Y=              0.9393    Z=             -0.7370  Tot=              2.5197
 Quadrupole moment (field-independent basis, Debye-Ang):
   XX=           -121.9962   YY=           -118.8545   ZZ=           -115.6985
   XY=              3.7142   XZ=              1.6729   YZ=             -5.2582

  Exact polarizability: 249.417   6.850 162.952  -6.685  -5.481 150.719
 Approx polarizability: 283.991  16.213 252.338 -10.283  -4.481 244.893

                      1                      2                      3
                      A                      A                      A
 Frequencies --     10.4688                17.9413                27.7961
 Red. masses --      5.8905                 4.3079                 1.6926
 Frc consts  --      0.0004                 0.0008                 0.0008
 IR Inten    --      0.0248                 0.0422                 0.0667

                      4                      5                      6
                      A                      A                      A
 Frequencies --     38.4621                44.2690                60.7746
 Red. masses --      3.8712                 4.1392                 3.2445
 Frc consts  --      0.0034                 0.0048                 0.0071
 IR Inten    --      0.0522                 0.2384                 2.2751

                      7                      8                      9
                      A                      A                      A
 Frequencies --     71.0302                77.2032                92.8138
 Red. masses --      2.1739                 2.0681                 2.3070
 Frc consts  --      0.0065                 0.0073                 0.0117
 IR Inten    --      3.5171                 0.4340                 0.3800

                     10                     11                     12
                      A                      A                      A
 Frequencies --    105.4026               120.4899               124.7779
 Red. masses --      3.9503                 3.7647                 2.2377
 Frc consts  --      0.0259                 0.0322                 0.0205
 IR Inten    --      0.6597                 0.5902                 0.1795

                     13                     14                     15
                      A                      A                      A
 Frequencies --    146.8616               154.5736               162.7009
 Red. masses --      3.6116                 2.5361                 1.9909
 Frc consts  --      0.0459                 0.0357                 0.0311
 IR Inten    --      0.6705                 0.9067                 0.1498

                     16                     17                     18
                      A                      A                      A
 Frequencies --    179.3539               185.5395               203.6744
 Red. masses --      3.3849                 3.0435                 4.1874
 Frc consts  --      0.0642                 0.0617                 0.1023
 IR Inten    --      3.6770                 0.2971                 0.3673

                     19                     20                     21
                      A                      A                      A
 Frequencies --    226.7990               247.8331               270.2224
 Red. masses --      1.3825                 1.1212                 3.6848
 Frc consts  --      0.0419                 0.0406                 0.1585
 IR Inten    --      0.6837                 0.0008                 2.3077

                     22                     23                     24
                      A                      A                      A
 Frequencies --    302.8190               309.8990               322.5416
 Red. masses --      2.2737                 1.7036                 2.4821
 Frc consts  --      0.1228                 0.0964                 0.1521
 IR Inten    --     23.3719                45.0937                53.1009

                     25                     26                     27
                      A                      A                      A
 Frequencies --    349.0882               376.4358               451.2672
 Red. masses --      3.6259                 4.9239                 3.1523
 Frc consts  --      0.2603                 0.4111                 0.3782
 IR Inten    --     11.5209                 7.7332                 0.2647

                     28                     29                     30
                      A                      A                      A
 Frequencies --    455.3274               481.8775               523.8608
 Red. masses --      5.0371                 3.2429                 7.6952
 Frc consts  --      0.6153                 0.4437                 1.2442
 IR Inten    --      0.8909                 0.3034                 1.1256

                     31                     32                     33
                      A                      A                      A
 Frequencies --    541.6508               620.9526               731.8260
 Red. masses --      4.6877                 3.6249                 1.0599
 Frc consts  --      0.8103                 0.8235                 0.3345
 IR Inten    --     12.6615                38.0586                 4.9535

                     34                     35                     36
                      A                      A                      A
 Frequencies --    735.5325               740.9496               751.8288
 Red. masses --      1.0740                 5.6666                 1.1109
 Frc consts  --      0.3423                 1.8330                 0.3700
 IR Inten    --      0.4048                 0.8915                 1.4221

                     37                     38                     39
                      A                      A                      A
 Frequencies --    793.5648               816.0057               861.5278
 Red. masses --      1.1712                 1.1027                 1.2222
 Frc consts  --      0.4346                 0.4326                 0.5345
 IR Inten    --      0.0082                 2.1177                 0.6114

                     40                     41                     42
                      A                      A                      A
 Frequencies --    898.5693               905.8995               941.5233
 Red. masses --      1.9377                 2.2110                 1.2272
 Frc consts  --      0.9218                 1.0691                 0.6409
 IR Inten    --      1.8046                36.3475                 0.0303

                     43                     44                     45
                      A                      A                      A
 Frequencies --    990.5717              1004.5435              1013.1846
 Red. masses --      4.7635                 1.6977                 3.8063
 Frc consts  --      2.7539                 1.0093                 2.3021
 IR Inten    --      0.5631                 3.0418                 0.0120

                     46                     47                     48
                      A                      A                      A
 Frequencies --   1017.8412              1043.4491              1047.4134
 Red. masses --      1.1662                 3.0445                 2.4466
 Frc consts  --      0.7118                 1.9530                 1.5814
 IR Inten    --      0.2825                 1.1172                34.0803

                     49                     50                     51
                      A                      A                      A
 Frequencies --   1057.6458              1065.9590              1071.9392
 Red. masses --      2.9133                 2.4280                 2.2494
 Frc consts  --      1.9201                 1.6255                 1.5228
 IR Inten    --      1.0577                 0.0597                 0.2287

                     52                     53                     54
                      A                      A                      A
 Frequencies --   1076.7756              1079.8476              1084.7369
 Red. masses --      1.0818                 2.7661                 2.4384
 Frc consts  --      0.7390                 1.9004                 1.6905
 IR Inten    --      1.0505                94.6816                32.3826

                     55                     56                     57
                      A                      A                      A
 Frequencies --   1107.8225              1135.3573              1148.8194
 Red. masses --      1.8749                 2.4800                 4.2663
 Frc consts  --      1.3558                 1.8835                 3.3175
 IR Inten    --      9.8826                 6.5048               164.0781

                     58                     59                     60
                      A                      A                      A
 Frequencies --   1156.1957              1212.0864              1214.1781
 Red. masses --      2.7965                 1.2278                 1.8071
 Frc consts  --      2.2026                 1.0628                 1.5697
 IR Inten    --    172.8238                 5.1361                 0.2663

                     61                     62                     63
                      A                      A                      A
 Frequencies --   1218.9332              1247.4756              1261.5857
 Red. masses --      1.2447                 1.4581                 1.2878
 Frc consts  --      1.0896                 1.3369                 1.2077
 IR Inten    --     19.2191                 0.1148                 1.2169

                     64                     65                     66
                      A                      A                      A
 Frequencies --   1266.5103              1288.2479              1300.1824
 Red. masses --      1.3384                 1.2856                 1.1358
 Frc consts  --      1.2649                 1.2570                 1.1313
 IR Inten    --     28.0956                 0.1171                 2.7998

                     67                     68                     69
                      A                      A                      A
 Frequencies --   1309.6316              1319.5915              1325.7920
 Red. masses --      1.3103                 1.1668                 1.0329
 Frc consts  --      1.3241                 1.1971                 1.0697
 IR Inten    --      8.2261                 0.1483                 0.2715

                     70                     71                     72
                      A                      A                      A
 Frequencies --   1333.6539              1336.7603              1338.5566
 Red. masses --      1.1798                 1.0849                 1.1068
 Frc consts  --      1.2363                 1.1423                 1.1684
 IR Inten    --     27.9878                 0.0709                 0.0689

                     73                     74                     75
                      A                      A                      A
 Frequencies --   1353.5827              1368.1907              1384.6424
 Red. masses --      1.3693                 1.2627                 1.4615
 Frc consts  --      1.4782                 1.3927                 1.6509
 IR Inten    --      0.5798                 7.8948                 4.5288

                     76                     77                     78
                      A                      A                      A
 Frequencies --   1400.1176              1401.9004              1402.0393
 Red. masses --      1.5667                 1.5903                 1.2318
 Frc consts  --      1.8095                 1.8415                 1.4267
 IR Inten    --      0.0350                 2.6215                39.2619

                     79                     80                     81
                      A                      A                      A
 Frequencies --   1407.6180              1413.7595              1439.7270
 Red. masses --      1.2680                 1.2591                 1.4628
 Frc consts  --      1.4802                 1.4827                 1.7865
 IR Inten    --      0.8137                 0.4992                10.6252

                     82                     83                     84
                      A                      A                      A
 Frequencies --   1476.9454              1477.5207              1482.2122
 Red. masses --      1.0884                 1.0439                 1.0722
 Frc consts  --      1.3988                 1.3426                 1.3879
 IR Inten    --      3.8300                 3.7454                 0.0690

                     85                     86                     87
                      A                      A                      A
 Frequencies --   1483.3665              1486.1209              1492.2541
 Red. masses --      1.0738                 1.0692                 1.0457
 Frc consts  --      1.3921                 1.3912                 1.3719
 IR Inten    --      0.6155                 1.4273                 2.0683

                     88                     89                     90
                      A                      A                      A
 Frequencies --   1492.6193              1499.9427              1501.7858
 Red. masses --      1.0780                 1.0402                 1.0835
 Frc consts  --      1.4151                 1.3789                 1.4398
 IR Inten    --      0.2202                 4.9885                 0.6103

                     91                     92                     93
                      A                      A                      A
 Frequencies --   1507.4399              1510.1326              1515.9371
 Red. masses --      1.0805                 1.0905                 1.0965
 Frc consts  --      1.4467                 1.4652                 1.4846
 IR Inten    --      0.6980                 0.1982                 3.9758

                     94                     95                     96
                      A                      A                      A
 Frequencies --   1522.5498              2983.4544              2999.2856
 Red. masses --      1.0893                 1.0548                 1.0574
 Frc consts  --      1.4878                 5.5319                 5.6046
 IR Inten    --      2.8162                17.6142                 0.4353

                     97                     98                     99
                      A                      A                      A
 Frequencies --   3001.2376              3001.4087              3005.3650
 Red. masses --      1.0577                 1.0720                 1.0582
 Frc consts  --      5.6135                 5.6900                 5.6312
 IR Inten    --      0.7135                39.4438                 0.6294

                    100                    101                    102
                      A                      A                      A
 Frequencies --   3010.2093              3011.5066              3016.8454
 Red. masses --      1.0846                 1.0591                 1.0596
 Frc consts  --      5.7904                 5.6592                 5.6817
 IR Inten    --     19.6420                 3.7791                83.4983

                    103                    104                    105
                      A                      A                      A
 Frequencies --   3020.2299              3024.5744              3024.6872
 Red. masses --      1.0979                 1.0757                 1.0848
 Frc consts  --      5.9008                 5.7978                 5.8473
 IR Inten    --      0.0979                35.4894                44.0894

                    106                    107                    108
                      A                      A                      A
 Frequencies --   3026.8124              3028.3368              3036.2240
 Red. masses --      1.0977                 1.0358                 1.1020
 Frc consts  --      5.9254                 5.5967                 5.9857
 IR Inten    --      2.3666                44.8630                 0.3826

                    109                    110                    111
                      A                      A                      A
 Frequencies --   3046.1871              3048.6067              3053.5580
 Red. masses --      1.0351                 1.1034                 1.0583
 Frc consts  --      5.6592                 6.0420                 5.8138
 IR Inten    --     14.8643                 0.5779                20.5630

                    112                    113                    114
                      A                      A                      A
 Frequencies --   3059.8670              3069.8851              3090.5097
 Red. masses --      1.1040                 1.1048                 1.0973
 Frc consts  --      6.0901                 6.1346                 6.1750
 IR Inten    --     34.1470                91.9568                33.0264

                    115                    116                    117
                      A                      A                      A
 Frequencies --   3094.4774              3100.1158              3111.8710
 Red. masses --      1.1020                 1.1010                 1.1089
 Frc consts  --      6.2176                 6.2341                 6.3270
 IR Inten    --     59.3098                39.3962                19.0566

                    118                    119                    120
                      A                      A                      A
 Frequencies --   3116.5133              3140.2587              3815.6214
 Red. masses --      1.1018                 1.1018                 1.0662
 Frc consts  --      6.3048                 6.4018                 9.1458
 IR Inten    --     13.7728                14.8854                17.1966

 - Thermochemistry -
 -------------------
 Temperature   298.150 Kelvin.  Pressure   1.00000 Atm.
 Atom     1 has atomic number  6 and mass  12.00000

 Molecular mass:   266.13742 amu.
 Principal axes and moments of inertia in atomic units:
                           1         2         3
     Eigenvalues --  1958.50985********************
           X            0.99999   0.00324  -0.00065
           Y           -0.00326   0.99921  -0.03951
           Z            0.00052   0.03952   0.99922
 This molecule is an asymmetric top.
 Rotational symmetry number  1.
 Warning -- assumption of classical behavior for rotation
           may cause significant error
 Rotational temperatures (Kelvin)      0.04422     0.00397     0.00382
 Rotational constants (GHZ):           0.92149     0.08267     0.07953
 Zero-point vibrational energy     972057.2 (Joules/Mol)
                                  232.32725 (Kcal/Mol)
 Warning -- explicit consideration of  31 degrees of freedom as
           vibrations may cause significant error
 Vibrational temperatures:     15.06    25.81    39.99    55.34    63.69
          (Kelvin)             87.44   102.20   111.08   133.54   151.65
                              173.36   179.53   211.30   222.40   234.09
                              258.05   266.95   293.04   326.31   356.58
                              388.79   435.69   445.88   464.07   502.26
                              541.61   649.27   655.11   693.31   753.72
                              779.31   893.41  1052.93  1058.27  1066.06
                             1081.71  1141.76  1174.05  1239.55  1292.84
                             1303.39  1354.64  1425.21  1445.31  1457.75
                             1464.45  1501.29  1506.99  1521.72  1533.68
                             1542.28  1549.24  1553.66  1560.69  1593.91
                             1633.53  1652.89  1663.51  1743.92  1746.93
                             1753.77  1794.84  1815.14  1822.23  1853.50
                             1870.67  1884.27  1898.60  1907.52  1918.83
                             1923.30  1925.88  1947.50  1968.52  1992.19
                             2014.46  2017.02  2017.22  2025.25  2034.08
                             2071.45  2125.00  2125.82  2132.57  2134.23
                             2138.20  2147.02  2147.55  2158.08  2160.73
                             2168.87  2172.74  2181.10  2190.61  4292.53
                             4315.30  4318.11  4318.36  4324.05  4331.02
                             4332.89  4340.57  4345.44  4351.69  4351.85
                             4354.91  4357.10  4368.45  4382.78  4386.27
                             4393.39  4402.47  4416.88  4446.55  4452.26
                             4460.38  4477.29  4483.97  4518.13  5489.83

 Zero-point correction=                           0.370237 (Hartree/Particle)
 Thermal correction to Energy=                    0.392575
 Thermal correction to Enthalpy=                  0.393519
 Thermal correction to Gibbs Free Energy=         0.313490
 Sum of electronic and zero-point Energies=          -1419.458417
 Sum of electronic and thermal Energies=             -1419.436079
 Sum of electronic and thermal Enthalpies=           -1419.435135
 Sum of electronic and thermal Free Energies=        -1419.515164

                     E (Thermal)             CV                S
                      KCal/Mol        Cal/Mol-Kelvin    Cal/Mol-Kelvin
 Total                  246.345             76.917            168.436
 Electronic               0.000              0.000              0.000
 Translational            0.889              2.981             42.636
 Rotational               0.889              2.981             35.227
 Vibrational            244.567             70.955             90.574
 Vibration     1          0.593              1.987              7.920
 Vibration     2          0.593              1.986              6.850
 Vibration     3          0.593              1.984              5.981
 Vibration     4          0.594              1.982              5.337
 Vibration     5          0.595              1.980              5.058
 Vibration     6          0.597              1.973              4.432
 Vibration     7          0.598              1.968              4.125
 Vibration     8          0.599              1.964              3.961
 Vibration     9          0.602              1.954              3.600
 Vibration    10          0.605              1.945              3.352
 Vibration    11          0.609              1.932              3.092
 Vibration    12          0.610              1.928              3.025
 Vibration    13          0.617              1.906              2.712
 Vibration    14          0.620              1.898              2.615
 Vibration    15          0.623              1.888              2.518
 Vibration    16          0.629              1.868              2.335
 Vibration    17          0.632              1.860              2.272
 Vibration    18          0.639              1.835              2.100
 Vibration    19          0.650              1.800              1.904
 Vibration    20          0.661              1.766              1.746
 Vibration    21          0.674              1.728              1.595
 Vibration    22          0.694              1.668              1.401
 Vibration    23          0.699              1.655              1.363
 Vibration    24          0.708              1.630              1.297
 Vibration    25          0.726              1.577              1.170
 Vibration    26          0.747              1.520              1.053
 Vibration    27          0.810              1.358              0.792
 Vibration    28          0.814              1.349              0.780
 Vibration    29          0.838              1.290              0.705
 Vibration    30          0.879              1.197              0.601
 Vibration    31          0.897              1.158              0.562

 Optimization completed.
    -- Stationary point found.
 Normal termination of Gaussian 16 at Mon May 29 13:49:42 2023.
