 Gaussian 16, Revision A.03,
 Gaussian 16:  ES64L-G16RevA.03 25-Dec-2016

 -----------------------------
 # opt freq b3lyp/6-31g(2df,p)
 -----------------------------

 -------------------
 Title Card Required
 -------------------
 Symbolic Z-matrix:
 Charge =  0 Multiplicity = 1

 SCF Done:  E(RB3LYP) =  -467.989070163     A.U. after   14 cycles
 SCF Done:  E(RB3LYP) =  -468.031084854     A.U. after   12 cycles
 SCF Done:  E(RB3LYP) =  -468.059864249     A.U. after   13 cycles
 SCF Done:  E(RB3LYP) =  -468.064276863     A.U. after   12 cycles
 SCF Done:  E(RB3LYP) =  -468.067083317     A.U. after   11 cycles
 SCF Done:  E(RB3LYP) =  -468.067706547     A.U. after   11 cycles
 SCF Done:  E(RB3LYP) =  -468.067910883     A.U. after   10 cycles
 SCF Done:  E(RB3LYP) =  -468.068128848     A.U. after    9 cycles
 SCF Done:  E(RB3LYP) =  -468.068076377     A.U. after   12 cycles
 SCF Done:  E(RB3LYP) =  -468.070318177     A.U. after   12 cycles
 SCF Done:  E(RB3LYP) =  -468.072170453     A.U. after   11 cycles
 SCF Done:  E(RB3LYP) =  -468.071231031     A.U. after   11 cycles
 SCF Done:  E(RB3LYP) =  -468.073208347     A.U. after    9 cycles
 SCF Done:  E(RB3LYP) =  -468.073467982     A.U. after   10 cycles
 SCF Done:  E(RB3LYP) =  -468.073538157     A.U. after    9 cycles
 SCF Done:  E(RB3LYP) =  -468.073600303     A.U. after    9 cycles
 SCF Done:  E(RB3LYP) =  -468.073612333     A.U. after    9 cycles
 SCF Done:  E(RB3LYP) =  -468.073613203     A.U. after    7 cycles
 SCF Done:  E(RB3LYP) =  -468.073613337     A.U. after    6 cycles
 Optimization completed.
    -- Stationary point found.
 Normal termination of Gaussian 16 at Sun May 28 02:28:30 2023.

 ----------------------------------------------------------------------
 #N Geom=AllCheck Guess=TCheck SCRF=Check GenChk RB3LYP/6-31G(2df,p) Fr
 eq
 ----------------------------------------------------------------------

 Structure from the checkpoint file:  "CCCC12CdCC1dCCCqCrC2.chk"
 -------------------
 Title Card Required
 -------------------
 Charge =  0 Multiplicity = 1

                         Standard orientation:
 ---------------------------------------------------------------------
 Center     Atomic      Atomic             Coordinates (Angstroms)
 Number     Number       Type             X           Y           Z
 ---------------------------------------------------------------------
      1          6           0       -3.288341   -1.672145   -0.335558
      2          6           0       -1.849037   -1.146520   -0.348894
      3          6           0       -1.689675    0.124397    0.494914
      4          6           0       -0.275610    0.746511    0.581392
      5          6           0       -0.383825    2.221960    1.026794
      6          6           0       -0.085550    2.715654   -0.191800
      7          6           0        0.239426    1.382813   -0.721235
      8          6           0        1.043743    0.787153   -1.597248
      9          6           0        1.505903   -0.612918   -1.245871
     10          6           0        1.911573   -0.653308    0.254826
     11          6           0        2.467904   -2.022031    0.659909
     12          6           0        0.762761   -0.214035    1.215353
     13          1           0       -3.390249   -2.572236   -0.950034
     14          1           0       -3.987166   -0.922840   -0.723863
     15          1           0       -3.608942   -1.924971    0.681449
     16          1           0       -1.548275   -0.930884   -1.380790
     17          1           0       -1.178033   -1.934263    0.014176
     18          1           0       -2.024383   -0.084754    1.522244
     19          1           0       -2.374586    0.886259    0.103261
     20          1           0       -0.651285    2.674407    1.975276
     21          1           0       -0.018946    3.715250   -0.603834
     22          1           0        1.506113    1.320920   -2.422607
     23          1           0        2.372553   -0.888805   -1.856370
     24          1           0        0.739678   -1.372023   -1.448069
     25          1           0        2.719470    0.082599    0.357555
     26          1           0        1.712183   -2.806822    0.534175
     27          1           0        2.779919   -2.029390    1.710055
     28          1           0        3.336602   -2.296041    0.051469
     29          1           0        1.211751    0.249614    2.101284
     30          1           0        0.247969   -1.111212    1.579126
 ---------------------------------------------------------------------

 SCF Done:  E(RB3LYP) =  -468.073613337     A.U. after    1 cycles

 The electronic state is 1-A.
 Alpha  occ. eigenvalues --  -10.19020 -10.18679 -10.18580 -10.18242 -10.17685
 Alpha  occ. eigenvalues --  -10.17510 -10.17356 -10.17309 -10.17304 -10.16888
 Alpha  occ. eigenvalues --  -10.16824 -10.16710  -0.87405  -0.80054  -0.77874
 Alpha  occ. eigenvalues --   -0.74200  -0.71029  -0.66957  -0.65202  -0.60637
 Alpha  occ. eigenvalues --   -0.57623  -0.57146  -0.54890  -0.48742  -0.47496
 Alpha  occ. eigenvalues --   -0.45690  -0.44948  -0.43859  -0.42094  -0.40417
 Alpha  occ. eigenvalues --   -0.39925  -0.38633  -0.38297  -0.36995  -0.36309
 Alpha  occ. eigenvalues --   -0.35729  -0.34275  -0.33551  -0.32763  -0.32229
 Alpha  occ. eigenvalues --   -0.30819  -0.29202  -0.28341  -0.27299  -0.20855
 Alpha virt. eigenvalues --   -0.01045   0.06633   0.08361   0.10252   0.11566
 Alpha virt. eigenvalues --    0.12710   0.13169   0.13583   0.14233   0.14875
 Alpha virt. eigenvalues --    0.15223   0.15948   0.16922   0.17379   0.18008

 Mulliken charges:
               1
     1  C   -0.380473
     2  C   -0.178361
     3  C   -0.214965
     4  C    0.205414
     5  C   -0.170529
     6  C   -0.200667
     7  C    0.296540
     8  C   -0.249368
     9  C   -0.254988
    10  C    0.059338
    11  C   -0.404707
    12  C   -0.305343
    13  H    0.109238
    14  H    0.114045
    15  H    0.111630
    16  H    0.108423
    17  H    0.095965
    18  H    0.085837
    19  H    0.092113
    20  H    0.102466
    21  H    0.105105
    22  H    0.084044
    23  H    0.093061
    24  H    0.103867
    25  H    0.074390
    26  H    0.111837
    27  H    0.110014
    28  H    0.108038
    29  H    0.096702
    30  H    0.091334
 Sum of Mulliken charges =  -0.00000

 Dipole moment (field-independent basis, Debye):
    X=              0.1479    Y=              0.1231    Z=              0.4122  Tot=              0.4549
 Quadrupole moment (field-independent basis, Debye-Ang):
   XX=            -75.3733   YY=            -73.2079   ZZ=            -73.8008
   XY=             -0.1666   XZ=             -1.2040   YZ=              0.3335

  Exact polarizability: 121.729  -6.880 130.542 -12.386   3.039 118.223
 Approx polarizability: 167.945 -13.130 186.995 -29.153   9.831 205.128

                      1                      2                      3
                      A                      A                      A
 Frequencies --     48.9949                97.2139               112.8951
 Red. masses --      3.0444                 2.6422                 1.7407
 Frc consts  --      0.0043                 0.0147                 0.0131
 IR Inten    --      0.0416                 0.0536                 0.0579

                      4                      5                      6
                      A                      A                      A
 Frequencies --    143.7617               194.6530               236.8687
 Red. masses --      2.6910                 2.1911                 2.3183
 Frc consts  --      0.0328                 0.0489                 0.0766
 IR Inten    --      0.0312                 0.2877                 0.7013

                      7                      8                      9
                      A                      A                      A
 Frequencies --    248.5995               252.3770               276.5268
 Red. masses --      1.1597                 1.1679                 2.5263
 Frc consts  --      0.0422                 0.0438                 0.1138
 IR Inten    --      0.1365                 0.0183                 0.2852

                     10                     11                     12
                      A                      A                      A
 Frequencies --    309.4980               323.9175               350.1446
 Red. masses --      2.5393                 2.4425                 2.4237
 Frc consts  --      0.1433                 0.1510                 0.1751
 IR Inten    --      0.4935                 0.1674                 0.5899

                     13                     14                     15
                      A                      A                      A
 Frequencies --    396.0183               415.5028               443.6922
 Red. masses --      2.3873                 2.8313                 3.8517
 Frc consts  --      0.2206                 0.2880                 0.4468
 IR Inten    --      2.3283                 0.6003                 1.9253

                     16                     17                     18
                      A                      A                      A
 Frequencies --    458.1526               555.8517               680.2025
 Red. masses --      2.7516                 3.4986                 3.2442
 Frc consts  --      0.3403                 0.6369                 0.8844
 IR Inten    --      1.0542                 0.6189                 8.5480

                     19                     20                     21
                      A                      A                      A
 Frequencies --    734.7993               757.7166               763.8137
 Red. masses --      2.0550                 2.6239                 1.6060
 Frc consts  --      0.6537                 0.8876                 0.5520
 IR Inten    --      4.5999                 3.0917                 8.3781

                     22                     23                     24
                      A                      A                      A
 Frequencies --    782.6233               803.1113               841.0728
 Red. masses --      1.4096                 1.6727                 1.7070
 Frc consts  --      0.5087                 0.6357                 0.7114
 IR Inten    --     24.0475                 7.5055                 1.3121

                     25                     26                     27
                      A                      A                      A
 Frequencies --    847.5829               880.4158               907.3372
 Red. masses --      1.9590                 1.3679                 1.8092
 Frc consts  --      0.8292                 0.6247                 0.8775
 IR Inten    --     17.2677                 0.7328                 5.7698

                     28                     29                     30
                      A                      A                      A
 Frequencies --    917.4655               924.9252               932.8843
 Red. masses --      1.6143                 1.4719                 1.8873
 Frc consts  --      0.8006                 0.7419                 0.9677
 IR Inten    --      3.3596                 2.0154                 0.0475

                     31                     32                     33
                      A                      A                      A
 Frequencies --    982.8961              1020.2760              1028.9402
 Red. masses --      2.0605                 1.7524                 2.0304
 Frc consts  --      1.1728                 1.0748                 1.2665
 IR Inten    --      0.5029                 1.2034                 3.0217

                     34                     35                     36
                      A                      A                      A
 Frequencies --   1042.8281              1057.9398              1081.9783
 Red. masses --      2.0491                 2.6587                 2.0622
 Frc consts  --      1.3129                 1.7532                 1.4224
 IR Inten    --      0.3322                 1.4359                 0.7283

                     37                     38                     39
                      A                      A                      A
 Frequencies --   1089.4795              1103.1813              1132.4759
 Red. masses --      1.6323                 2.1454                 2.3190
 Frc consts  --      1.1415                 1.5383                 1.7523
 IR Inten    --      0.6813                 1.2032                 1.5014

                     40                     41                     42
                      A                      A                      A
 Frequencies --   1141.0129              1169.3068              1198.8308
 Red. masses --      2.0415                 3.0430                 1.6262
 Frc consts  --      1.5660                 2.4514                 1.3770
 IR Inten    --      3.1330                 1.3808                 7.3406

                     43                     44                     45
                      A                      A                      A
 Frequencies --   1216.9153              1276.2730              1276.9545
 Red. masses --      1.9284                 1.3003                 1.4066
 Frc consts  --      1.6826                 1.2479                 1.3514
 IR Inten    --      0.6991                 0.8188                 1.1210

                     46                     47                     48
                      A                      A                      A
 Frequencies --   1296.7914              1310.2515              1315.9013
 Red. masses --      1.4686                 1.3504                 1.3635
 Frc consts  --      1.4551                 1.3659                 1.3910
 IR Inten    --      3.0808                 1.6932                 2.2264

                     49                     50                     51
                      A                      A                      A
 Frequencies --   1321.7299              1330.9364              1353.6897
 Red. masses --      1.3415                 1.3174                 1.5353
 Frc consts  --      1.3808                 1.3749                 1.6576
 IR Inten    --      2.3778                 0.4066                 4.0462

                     52                     53                     54
                      A                      A                      A
 Frequencies --   1371.3630              1381.2606              1389.9712
 Red. masses --      1.2853                 1.3951                 1.5019
 Frc consts  --      1.4242                 1.5682                 1.7097
 IR Inten    --      2.3079                 1.4776                 0.3965

                     55                     56                     57
                      A                      A                      A
 Frequencies --   1408.6875              1411.3923              1476.0327
 Red. masses --      1.2332                 1.2282                 1.0779
 Frc consts  --      1.4418                 1.4415                 1.3837
 IR Inten    --      1.8679                 0.2801                 0.2000

                     58                     59                     60
                      A                      A                      A
 Frequencies --   1485.4730              1490.1352              1496.1969
 Red. masses --      1.0885                 1.0738                 1.0492
 Frc consts  --      1.4152                 1.4049                 1.3838
 IR Inten    --      0.8520                 3.7243                 0.8585

                     61                     62                     63
                      A                      A                      A
 Frequencies --   1497.7987              1499.5889              1499.7691
 Red. masses --      1.0515                 1.0410                 1.0538
 Frc consts  --      1.3898                 1.3793                 1.3966
 IR Inten    --      2.2195                 5.8089                 3.5038

                     64                     65                     66
                      A                      A                      A
 Frequencies --   1512.9872              1578.2361              1748.2262
 Red. masses --      1.0887                 5.6299                 8.6523
 Frc consts  --      1.4684                 8.2622                15.5803
 IR Inten    --      1.4748                 0.5652                 5.7021

                     67                     68                     69
                      A                      A                      A
 Frequencies --   2994.2479              3009.7965              3019.3480
 Red. masses --      1.0651                 1.0821                 1.0412
 Frc consts  --      5.6261                 5.7755                 5.5925
 IR Inten    --     24.3647                 4.7971                13.4045

                     70                     71                     72
                      A                      A                      A
 Frequencies --   3024.0095              3024.7933              3027.2857
 Red. masses --      1.0579                 1.0598                 1.0369
 Frc consts  --      5.6999                 5.7132                 5.5989
 IR Inten    --     37.4205                12.8736                47.6005

                     73                     74                     75
                      A                      A                      A
 Frequencies --   3031.2970              3044.5663              3059.6609
 Red. masses --      1.0596                 1.0920                 1.1021
 Frc consts  --      5.7363                 5.9637                 6.0786
 IR Inten    --     51.6079                15.1069                23.1669

                     76                     77                     78
                      A                      A                      A
 Frequencies --   3066.0230              3067.8006              3087.8901
 Red. masses --      1.0995                 1.1020                 1.1003
 Frc consts  --      6.0897                 6.1104                 6.1816
 IR Inten    --     19.5648                14.8428                54.7494

                     79                     80                     81
                      A                      A                      A
 Frequencies --   3093.1303              3096.5135              3099.5301
 Red. masses --      1.1013                 1.1026                 1.1010
 Frc consts  --      6.2080                 6.2289                 6.2318
 IR Inten    --     27.1420                56.6328                34.2686

                     82                     83                     84
                      A                      A                      A
 Frequencies --   3162.2555              3182.8710              3215.9368
 Red. masses --      1.0911                 1.0850                 1.1132
 Frc consts  --      6.4282                 6.4759                 6.7830
 IR Inten    --     22.7873                 6.4319                25.3375

 - Thermochemistry -
 -------------------
 Temperature   298.150 Kelvin.  Pressure   1.00000 Atm.
 Atom     1 has atomic number  6 and mass  12.00000

 Molecular mass:   162.14085 amu.
 Principal axes and moments of inertia in atomic units:
                           1         2         3
     Eigenvalues --  1743.950412147.429902931.48862
           X            0.99998   0.00405   0.00530
           Y           -0.00405   0.99999   0.00061
           Z           -0.00530  -0.00063   0.99999
 This molecule is an asymmetric top.
 Rotational symmetry number  1.
 Warning -- assumption of classical behavior for rotation
           may cause significant error
 Rotational temperatures (Kelvin)      0.04967     0.04033     0.02955
 Rotational constants (GHZ):           1.03486     0.84042     0.61564
 Zero-point vibrational energy     705445.5 (Joules/Mol)
                                  168.60553 (Kcal/Mol)
 Warning -- explicit consideration of  17 degrees of freedom as
           vibrations may cause significant error
 Vibrational temperatures:     70.49   139.87   162.43   206.84   280.06
          (Kelvin)            340.80   357.68   363.11   397.86   445.30
                              466.05   503.78   569.78   597.82   638.37
                              659.18   799.75   978.66  1057.21  1090.19
                             1098.96  1126.02  1155.50  1210.12  1219.48
                             1266.72  1305.46  1320.03  1330.76  1342.21
                             1414.17  1467.95  1480.42  1500.40  1522.14
                             1556.73  1567.52  1587.23  1629.38  1641.66
                             1682.37  1724.85  1750.87  1836.27  1837.25
                             1865.79  1885.16  1893.29  1901.67  1914.92
                             1947.66  1973.09  1987.33  1999.86  2026.79
                             2030.68  2123.68  2137.26  2143.97  2152.69
                             2155.00  2157.57  2157.83  2176.85  2270.73
                             2515.31  4308.05  4330.43  4344.17  4350.88
                             4352.00  4355.59  4361.36  4380.45  4402.17
                             4411.32  4413.88  4442.79  4450.32  4455.19
                             4459.53  4549.78  4579.44  4627.02

 Zero-point correction=                           0.268690 (Hartree/Particle)
 Thermal correction to Energy=                    0.280903
 Thermal correction to Enthalpy=                  0.281848
 Thermal correction to Gibbs Free Energy=         0.231056
 Sum of electronic and zero-point Energies=           -467.804923
 Sum of electronic and thermal Energies=              -467.792710
 Sum of electronic and thermal Enthalpies=            -467.791766
 Sum of electronic and thermal Free Energies=         -467.842557

                     E (Thermal)             CV                S
                      KCal/Mol        Cal/Mol-Kelvin    Cal/Mol-Kelvin
 Total                  176.270             48.329            106.899
 Electronic               0.000              0.000              0.000
 Translational            0.889              2.981             41.159
 Rotational               0.889              2.981             30.774
 Vibrational            174.492             42.368             34.966
 Vibration     1          0.595              1.978              4.858
 Vibration     2          0.603              1.951              3.509
 Vibration     3          0.607              1.939              3.219
 Vibration     4          0.616              1.909              2.753
 Vibration     5          0.635              1.847              2.183
 Vibration     6          0.656              1.784              1.826
 Vibration     7          0.662              1.765              1.740
 Vibration     8          0.664              1.759              1.714
 Vibration     9          0.678              1.717              1.555
 Vibration    10          0.699              1.656              1.365
 Vibration    11          0.708              1.628              1.290
 Vibration    12          0.727              1.575              1.166
 Vibration    13          0.763              1.479              0.977
 Vibration    14          0.779              1.437              0.907
 Vibration    15          0.803              1.375              0.815
 Vibration    16          0.816              1.343              0.772
 Vibration    17          0.911              1.127              0.532

 Optimization completed.
    -- Stationary point found.
 Normal termination of Gaussian 16 at Sun May 28 04:05:39 2023.
