 Gaussian 16, Revision A.03,
 Gaussian 16:  ES64L-G16RevA.03 25-Dec-2016

 -----------------------------
 # opt freq b3lyp/6-31g(2df,p)
 -----------------------------

 -------------------
 Title Card Required
 -------------------
 Symbolic Z-matrix:
 Charge =  0 Multiplicity = 1

 SCF Done:  E(RB3LYP) =  -660.249376551     A.U. after   12 cycles
 SCF Done:  E(RB3LYP) =  -660.264262456     A.U. after   11 cycles
 SCF Done:  E(RB3LYP) =  -660.266364059     A.U. after   10 cycles
 SCF Done:  E(RB3LYP) =  -660.267499471     A.U. after   10 cycles
 SCF Done:  E(RB3LYP) =  -660.267898226     A.U. after   10 cycles
 SCF Done:  E(RB3LYP) =  -660.268313105     A.U. after   10 cycles
 SCF Done:  E(RB3LYP) =  -660.268451889     A.U. after   10 cycles
 SCF Done:  E(RB3LYP) =  -660.268491868     A.U. after    9 cycles
 SCF Done:  E(RB3LYP) =  -660.268544992     A.U. after    9 cycles
 SCF Done:  E(RB3LYP) =  -660.268596636     A.U. after    9 cycles
 SCF Done:  E(RB3LYP) =  -660.276799362     A.U. after   10 cycles
 SCF Done:  E(RB3LYP) =  -660.276983185     A.U. after   10 cycles
 SCF Done:  E(RB3LYP) =  -660.277040199     A.U. after   10 cycles
 SCF Done:  E(RB3LYP) =  -660.277095383     A.U. after    9 cycles
 SCF Done:  E(RB3LYP) =  -660.277108926     A.U. after    9 cycles
 SCF Done:  E(RB3LYP) =  -660.277114558     A.U. after    8 cycles
 SCF Done:  E(RB3LYP) =  -660.277115893     A.U. after    7 cycles
 SCF Done:  E(RB3LYP) =  -660.277116214     A.U. after    6 cycles
 SCF Done:  E(RB3LYP) =  -660.277116325     A.U. after    6 cycles
 Optimization completed.
    -- Stationary point found.
 Normal termination of Gaussian 16 at Mon May 22 15:24:34 2023.

 ----------------------------------------------------------------------
 #N Geom=AllCheck Guess=TCheck SCRF=Check GenChk RB3LYP/6-31G(2df,p) Fr
 eq
 ----------------------------------------------------------------------

 Structure from the checkpoint file:  "CCCCC1CCCOCCC1C1CO1.chk"
 -------------------
 Title Card Required
 -------------------
 Charge =  0 Multiplicity = 1

                         Standard orientation:
 ---------------------------------------------------------------------
 Center     Atomic      Atomic             Coordinates (Angstroms)
 Number     Number       Type             X           Y           Z
 ---------------------------------------------------------------------
      1          6           0        5.274076   -0.492455   -0.442095
      2          6           0        4.141723    0.015615    0.454436
      3          6           0        2.746502   -0.306587   -0.093519
      4          6           0        1.611226    0.221427    0.790932
      5          6           0        0.187887   -0.118787    0.289568
      6          6           0       -0.123675   -1.623747    0.485536
      7          6           0       -0.834644   -2.284867   -0.705489
      8          6           0       -2.109900   -1.576678   -1.163618
      9          8           0       -3.044446   -1.445823   -0.102316
     10          6           0       -3.247527   -0.134048    0.386095
     11          6           0       -2.214946    0.347630    1.418020
     12          6           0       -0.831168    0.871237    0.944941
     13          6           0       -1.048821    2.127077    0.108407
     14          6           0       -0.148473    2.659766   -0.923276
     15          8           0       -1.352673    1.978816   -1.286252
     16          1           0        6.255902   -0.248519   -0.024362
     17          1           0        5.217936   -0.047304   -1.441839
     18          1           0        5.225131   -1.580361   -0.563563
     19          1           0        4.237515    1.101729    0.586242
     20          1           0        4.244461   -0.419560    1.457358
     21          1           0        2.655578   -1.393315   -0.220768
     22          1           0        2.646546    0.120477   -1.102047
     23          1           0        1.717725    1.310726    0.875130
     24          1           0        1.727596   -0.168471    1.812730
     25          1           0        0.169959    0.066797   -0.791167
     26          1           0       -0.715030   -1.780672    1.391273
     27          1           0        0.813566   -2.164575    0.654358
     28          1           0       -1.079105   -3.321496   -0.444448
     29          1           0       -0.150319   -2.330651   -1.564272
     30          1           0       -2.587537   -2.169121   -1.955596
     31          1           0       -1.878311   -0.592280   -1.589508
     32          1           0       -4.223456   -0.163353    0.884607
     33          1           0       -3.325965    0.580101   -0.445691
     34          1           0       -2.083656   -0.443285    2.163441
     35          1           0       -2.685217    1.181781    1.958047
     36          1           0       -0.358521    1.229773    1.871689
     37          1           0       -1.690479    2.862424    0.600035
     38          1           0        0.772467    2.141342   -1.178253
     39          1           0       -0.143401    3.730368   -1.124496
 ---------------------------------------------------------------------

 SCF Done:  E(RB3LYP) =  -660.277116325     A.U. after    1 cycles

 The electronic state is 1-A.
 Alpha  occ. eigenvalues --  -19.15376 -19.12260 -10.23863 -10.23465 -10.21676
 Alpha  occ. eigenvalues --  -10.21100 -10.19349 -10.18389 -10.17942 -10.17935
 Alpha  occ. eigenvalues --  -10.17772 -10.17744 -10.17251 -10.17173 -10.17107
 Alpha  occ. eigenvalues --   -1.07105  -1.01446  -0.82479  -0.79041  -0.78044
 Alpha  occ. eigenvalues --   -0.73649  -0.71169  -0.68623  -0.66549  -0.63736
 Alpha  occ. eigenvalues --   -0.61605  -0.59511  -0.57864  -0.57237  -0.53303
 Alpha  occ. eigenvalues --   -0.50392  -0.49004  -0.47970  -0.47176  -0.46609
 Alpha  occ. eigenvalues --   -0.44901  -0.43078  -0.42289  -0.42102  -0.41751
 Alpha  occ. eigenvalues --   -0.40050  -0.39365  -0.38742  -0.38247  -0.37034
 Alpha  occ. eigenvalues --   -0.36144  -0.35298  -0.34488  -0.34171  -0.33177
 Alpha  occ. eigenvalues --   -0.32897  -0.32362  -0.31444  -0.30970  -0.30461
 Alpha  occ. eigenvalues --   -0.29894  -0.28227  -0.26827  -0.23577
 Alpha virt. eigenvalues --    0.07810   0.08107   0.09245   0.10194   0.10321
 Alpha virt. eigenvalues --    0.10908   0.11824   0.12413   0.12868   0.13952
 Alpha virt. eigenvalues --    0.14156   0.15139   0.15400   0.15822   0.16761

 Mulliken charges:
               1
     1  C   -0.380539
     2  C   -0.161832
     3  C   -0.176553
     4  C   -0.210530
     5  C    0.011381
     6  C   -0.221610
     7  C   -0.205968
     8  C   -0.077276
     9  O   -0.252566
    10  C   -0.075697
    11  C   -0.253462
    12  C   -0.038544
    13  C    0.102531
    14  C   -0.203529
    15  O   -0.231390
    16  H    0.110975
    17  H    0.112940
    18  H    0.114119
    19  H    0.092410
    20  H    0.094879
    21  H    0.098769
    22  H    0.090287
    23  H    0.088231
    24  H    0.090979
    25  H    0.083023
    26  H    0.103596
    27  H    0.089015
    28  H    0.096756
    29  H    0.089661
    30  H    0.089678
    31  H    0.118811
    32  H    0.097776
    33  H    0.112805
    34  H    0.107490
    35  H    0.090144
    36  H    0.078719
    37  H    0.087835
    38  H    0.122333
    39  H    0.114351
 Sum of Mulliken charges =   0.00000

 Dipole moment (field-independent basis, Debye):
    X=              1.7898    Y=              1.3807    Z=              0.9779  Tot=              2.4629
 Quadrupole moment (field-independent basis, Debye-Ang):
   XX=            -99.3730   YY=            -92.4594   ZZ=            -94.6106
   XY=             -2.7413   XZ=             -2.9184   YZ=              2.2990

  Exact polarizability: 163.596  -0.487 141.900  -5.820   2.211 126.147
 Approx polarizability: 202.859   1.273 202.574  -6.218  -0.341 202.033

                      1                      2                      3
                      A                      A                      A
 Frequencies --     36.5892                51.7484                67.0886
 Red. masses --      3.5517                 3.7757                 1.6026
 Frc consts  --      0.0028                 0.0060                 0.0042
 IR Inten    --      0.2760                 0.0499                 0.2407

                      4                      5                      6
                      A                      A                      A
 Frequencies --     86.1806                98.0648               122.6236
 Red. masses --      3.2511                 4.1497                 3.4768
 Frc consts  --      0.0142                 0.0235                 0.0308
 IR Inten    --      2.4063                 1.3862                 1.2831

                      7                      8                      9
                      A                      A                      A
 Frequencies --    139.8754               175.5894               191.7701
 Red. masses --      2.7381                 3.4906                 2.5492
 Frc consts  --      0.0316                 0.0634                 0.0552
 IR Inten    --      0.3170                 1.8109                 2.4136

                     10                     11                     12
                      A                      A                      A
 Frequencies --    218.8939               232.7183               245.7373
 Red. masses --      2.6833                 2.8411                 1.1676
 Frc consts  --      0.0758                 0.0907                 0.0415
 IR Inten    --      0.2874                 0.2001                 0.0239

                     13                     14                     15
                      A                      A                      A
 Frequencies --    271.0201               312.6652               318.9819
 Red. masses --      3.5304                 2.7024                 2.9467
 Frc consts  --      0.1528                 0.1557                 0.1767
 IR Inten    --      1.6812                 3.1758                 2.1185

                     16                     17                     18
                      A                      A                      A
 Frequencies --    334.5444               397.0132               419.8235
 Red. masses --      2.3759                 2.7565                 2.3840
 Frc consts  --      0.1567                 0.2560                 0.2476
 IR Inten    --      0.2318                 0.4552                 2.7454

                     19                     20                     21
                      A                      A                      A
 Frequencies --    454.7004               462.7147               487.0508
 Red. masses --      2.5196                 2.5394                 2.3420
 Frc consts  --      0.3069                 0.3203                 0.3273
 IR Inten    --      2.0593                 0.6938                 8.5468

                     22                     23                     24
                      A                      A                      A
 Frequencies --    519.7501               545.3183               656.8644
 Red. masses --      2.5746                 2.3671                 2.7945
 Frc consts  --      0.4098                 0.4147                 0.7104
 IR Inten    --      0.0518                 0.6980                 2.8241

                     25                     26                     27
                      A                      A                      A
 Frequencies --    733.1778               757.0482               771.9787
 Red. masses --      1.0851                 2.0663                 2.0174
 Frc consts  --      0.3437                 0.6977                 0.7084
 IR Inten    --      2.7307                 4.3222                 3.5080

                     28                     29                     30
                      A                      A                      A
 Frequencies --    781.9702               789.0033               848.6556
 Red. masses --      1.6658                 1.8134                 3.3063
 Frc consts  --      0.6001                 0.6651                 1.4030
 IR Inten    --      1.0808                 1.5387                 5.0257

                     31                     32                     33
                      A                      A                      A
 Frequencies --    860.3749               863.8937               903.1080
 Red. masses --      2.2405                 2.3342                 1.9293
 Frc consts  --      0.9772                 1.0264                 0.9271
 IR Inten    --      6.0091                15.4940                 2.9934

                     34                     35                     36
                      A                      A                      A
 Frequencies --    919.5001               926.4807               965.1816
 Red. masses --      1.8999                 2.0967                 2.7581
 Frc consts  --      0.9464                 1.0604                 1.5138
 IR Inten    --      5.5336                 2.7466                28.2663

                     37                     38                     39
                      A                      A                      A
 Frequencies --    972.6766               986.6207              1015.0421
 Red. masses --      1.9907                 1.9589                 2.0951
 Frc consts  --      1.1097                 1.1235                 1.2718
 IR Inten    --      8.1405                 1.3915                14.0685

                     40                     41                     42
                      A                      A                      A
 Frequencies --   1024.7532              1038.1216              1062.6354
 Red. masses --      2.2897                 2.1010                 2.2518
 Frc consts  --      1.4166                 1.3341                 1.4981
 IR Inten    --      4.4636                 8.9743                 3.0891

                     43                     44                     45
                      A                      A                      A
 Frequencies --   1069.1772              1071.7550              1088.0678
 Red. masses --      1.9452                 1.7081                 1.5149
 Frc consts  --      1.3101                 1.1560                 1.0567
 IR Inten    --      1.9390                 1.0903                 3.6638

                     46                     47                     48
                      A                      A                      A
 Frequencies --   1102.2972              1110.9475              1133.1819
 Red. masses --      2.0255                 1.6353                 2.3394
 Frc consts  --      1.4501                 1.1891                 1.7700
 IR Inten    --      1.7634                 4.8098                 1.4791

                     49                     50                     51
                      A                      A                      A
 Frequencies --   1143.3904              1150.3667              1163.1240
 Red. masses --      3.2295                 2.5450                 1.4172
 Frc consts  --      2.4876                 1.9843                 1.1296
 IR Inten    --     52.2786                52.2901                 2.0980

                     52                     53                     54
                      A                      A                      A
 Frequencies --   1173.5765              1184.6939              1215.3171
 Red. masses --      1.8245                 1.5740                 1.2794
 Frc consts  --      1.4805                 1.3016                 1.1134
 IR Inten    --     18.7680                 1.1071                 0.0996

                     55                     56                     57
                      A                      A                      A
 Frequencies --   1235.3748              1251.2666              1265.1903
 Red. masses --      1.4079                 1.2566                 1.2960
 Frc consts  --      1.2660                 1.1591                 1.2223
 IR Inten    --      1.2633                 4.7219                 5.6864

                     58                     59                     60
                      A                      A                      A
 Frequencies --   1283.0666              1292.5463              1305.6204
 Red. masses --      1.3327                 1.4911                 1.2994
 Frc consts  --      1.2927                 1.4678                 1.3051
 IR Inten    --      5.8202                 4.2781                 3.0301

                     61                     62                     63
                      A                      A                      A
 Frequencies --   1312.1771              1320.1879              1327.0610
 Red. masses --      1.3261                 1.1910                 1.1988
 Frc consts  --      1.3453                 1.2230                 1.2439
 IR Inten    --      6.0538                 2.1733                 3.0680

                     64                     65                     66
                      A                      A                      A
 Frequencies --   1331.7769              1341.8923              1346.4195
 Red. masses --      1.0991                 1.1925                 1.2328
 Frc consts  --      1.1486                 1.2651                 1.3168
 IR Inten    --      0.5124                 8.8093                 1.3532

                     67                     68                     69
                      A                      A                      A
 Frequencies --   1373.6215              1384.6219              1389.6229
 Red. masses --      1.3866                 1.4398                 1.3643
 Frc consts  --      1.5415                 1.6264                 1.5522
 IR Inten    --      0.6597                 4.8704                 0.5924

                     70                     71                     72
                      A                      A                      A
 Frequencies --   1396.7569              1402.0361              1409.2689
 Red. masses --      1.5231                 1.4542                 1.3292
 Frc consts  --      1.7507                 1.6842                 1.5554
 IR Inten    --      6.0486                 1.5939                 3.2193

                     73                     74                     75
                      A                      A                      A
 Frequencies --   1413.5992              1417.4363              1433.4371
 Red. masses --      1.2448                 1.2484                 1.5520
 Frc consts  --      1.4656                 1.4777                 1.8789
 IR Inten    --      0.2545                13.6564                 6.2834

                     76                     77                     78
                      A                      A                      A
 Frequencies --   1436.1121              1468.2790              1476.8583
 Red. masses --      1.2647                 1.0933                 1.0911
 Frc consts  --      1.5368                 1.3887                 1.4022
 IR Inten    --      3.1401                 3.9124                 3.7836

                     79                     80                     81
                      A                      A                      A
 Frequencies --   1483.1188              1487.1736              1494.3323
 Red. masses --      1.0739                 1.0716                 1.0863
 Frc consts  --      1.3917                 1.3964                 1.4292
 IR Inten    --      0.5454                 2.2333                 1.5464

                     82                     83                     84
                      A                      A                      A
 Frequencies --   1499.6004              1499.9034              1506.6972
 Red. masses --      1.0675                 1.0467                 1.0822
 Frc consts  --      1.4144                 1.3874                 1.4474
 IR Inten    --      2.9439                 3.4926                 5.8681

                     85                     86                     87
                      A                      A                      A
 Frequencies --   1513.3593              1516.2692              1530.5261
 Red. masses --      1.0902                 1.0931                 1.3060
 Frc consts  --      1.4711                 1.4807                 1.8025
 IR Inten    --      2.6920                 6.6447                 5.3531

                     88                     89                     90
                      A                      A                      A
 Frequencies --   2983.8521              2997.6026              3001.5380
 Red. masses --      1.0802                 1.0628                 1.0602
 Frc consts  --      5.6663                 5.6269                 5.6274
 IR Inten    --      9.5018                 0.5272                15.9595

                     91                     92                     93
                      A                      A                      A
 Frequencies --   3002.7761              3005.6978              3013.7321
 Red. masses --      1.0614                 1.0643                 1.0667
 Frc consts  --      5.6388                 5.6653                 5.7083
 IR Inten    --      4.3689                33.9099                53.8343

                     94                     95                     96
                      A                      A                      A
 Frequencies --   3014.4473              3017.0519              3025.2430
 Red. masses --      1.0624                 1.0634                 1.0866
 Frc consts  --      5.6880                 5.7030                 5.8591
 IR Inten    --     64.5382                16.4808                22.8016

                     97                     98                     99
                      A                      A                      A
 Frequencies --   3027.9317              3030.0318              3039.7751
 Red. masses --      1.0456                 1.0758                 1.0993
 Frc consts  --      5.6480                 5.8193                 5.9846
 IR Inten    --     18.2028                53.0397                 2.1406

                    100                    101                    102
                      A                      A                      A
 Frequencies --   3044.3737              3048.9490              3057.3491
 Red. masses --      1.0962                 1.0771                 1.1008
 Frc consts  --      5.9863                 5.8992                 6.0623
 IR Inten    --      7.3805                15.1678                35.6279

                    103                    104                    105
                      A                      A                      A
 Frequencies --   3059.5518              3065.4398              3073.0717
 Red. masses --      1.1005                 1.1001                 1.0930
 Frc consts  --      6.0694                 6.0909                 6.0816
 IR Inten    --     52.1636                70.0060                28.6901

                    106                    107                    108
                      A                      A                      A
 Frequencies --   3075.7039              3091.7385              3094.5063
 Red. masses --      1.0856                 1.0553                 1.1016
 Frc consts  --      6.0507                 5.9432                 6.2153
 IR Inten    --     47.7131                29.9216                68.0686

                    109                    110                    111
                      A                      A                      A
 Frequencies --   3095.0651              3100.3545              3179.0588
 Red. masses --      1.0937                 1.1009                 1.1169
 Frc consts  --      6.1730                 6.2350                 6.6508
 IR Inten    --     31.5925                39.1536                26.8919

 - Thermochemistry -
 -------------------
 Temperature   298.150 Kelvin.  Pressure   1.00000 Atm.
 Atom     1 has atomic number  6 and mass  12.00000

 Molecular mass:   212.17763 amu.
 Principal axes and moments of inertia in atomic units:
                           1         2         3
     Eigenvalues --  2118.135655234.394056278.38416
           X            0.99996  -0.00689  -0.00606
           Y            0.00703   0.99972   0.02251
           Z            0.00590  -0.02255   0.99973
 This molecule is an asymmetric top.
 Rotational symmetry number  1.
 Warning -- assumption of classical behavior for rotation
           may cause significant error
 Rotational temperatures (Kelvin)      0.04089     0.01655     0.01380
 Rotational constants (GHZ):           0.85204     0.34479     0.28745
 Zero-point vibrational energy     932868.9 (Joules/Mol)
                                  222.96101 (Kcal/Mol)
 Warning -- explicit consideration of  23 degrees of freedom as
           vibrations may cause significant error
 Vibrational temperatures:     52.64    74.45    96.53   123.99   141.09
          (Kelvin)            176.43   201.25   252.63   275.91   314.94
                              334.83   353.56   389.94   449.86   458.94
                              481.33   571.21   604.03   654.21   665.74
                              700.76   747.80   784.59   945.08  1054.88
                             1089.22  1110.71  1125.08  1135.20  1221.03
                             1237.89  1242.95  1299.37  1322.96  1333.00
                             1388.68  1399.46  1419.53  1460.42  1474.39
                             1493.63  1528.90  1538.31  1542.02  1565.49
                             1585.96  1598.41  1630.40  1645.08  1655.12
                             1673.48  1688.51  1704.51  1748.57  1777.43
                             1800.29  1820.33  1846.05  1859.69  1878.50
                             1887.93  1899.46  1909.34  1916.13  1930.68
                             1937.20  1976.33  1992.16  1999.36  2009.62
                             2017.22  2027.62  2033.85  2039.37  2062.40
                             2066.24  2112.53  2124.87  2133.88  2139.71
                             2150.01  2157.59  2158.03  2167.80  2177.39
                             2181.57  2202.09  4293.10  4312.88  4318.54
                             4320.33  4324.53  4336.09  4337.12  4340.86
                             4352.65  4356.52  4359.54  4373.56  4380.17
                             4386.76  4398.84  4402.01  4410.48  4421.46
                             4425.25  4448.32  4452.30  4453.11  4460.72
                             4573.96

 Zero-point correction=                           0.355311 (Hartree/Particle)
 Thermal correction to Energy=                    0.371287
 Thermal correction to Enthalpy=                  0.372231
 Thermal correction to Gibbs Free Energy=         0.311704
 Sum of electronic and zero-point Energies=           -659.921805
 Sum of electronic and thermal Energies=              -659.905830
 Sum of electronic and thermal Enthalpies=            -659.904885
 Sum of electronic and thermal Free Energies=         -659.965412

                     E (Thermal)             CV                S
                      KCal/Mol        Cal/Mol-Kelvin    Cal/Mol-Kelvin
 Total                  232.986             61.440            127.389
 Electronic               0.000              0.000              0.000
 Translational            0.889              2.981             41.960
 Rotational               0.889              2.981             32.609
 Vibrational            231.208             55.479             52.819
 Vibration     1          0.594              1.982              5.436
 Vibration     2          0.596              1.977              4.749
 Vibration     3          0.598              1.970              4.237
 Vibration     4          0.601              1.959              3.745
 Vibration     5          0.604              1.951              3.492
 Vibration     6          0.610              1.930              3.059
 Vibration     7          0.615              1.913              2.806
 Vibration     8          0.628              1.872              2.375
 Vibration     9          0.634              1.851              2.211
 Vibration    10          0.647              1.812              1.968
 Vibration    11          0.653              1.791              1.858
 Vibration    12          0.660              1.770              1.761
 Vibration    13          0.675              1.727              1.590
 Vibration    14          0.701              1.650              1.348
 Vibration    15          0.705              1.637              1.315
 Vibration    16          0.716              1.607              1.238
 Vibration    17          0.764              1.477              0.974
 Vibration    18          0.783              1.427              0.893
 Vibration    19          0.813              1.350              0.782
 Vibration    20          0.820              1.333              0.758
 Vibration    21          0.843              1.279              0.691
 Vibration    22          0.875              1.206              0.611
 Vibration    23          0.900              1.150              0.554

 Optimization completed.
    -- Stationary point found.
 Normal termination of Gaussian 16 at Mon May 22 19:10:42 2023.
