 Gaussian 16, Revision A.03,
 Gaussian 16:  ES64L-G16RevA.03 25-Dec-2016

 -----------------------------
 # opt freq b3lyp/6-31g(2df,p)
 -----------------------------

 -------------------
 Title Card Required
 -------------------
 Symbolic Z-matrix:
 Charge =  0 Multiplicity = 1

 SCF Done:  E(RB3LYP) =  -787.365005249     A.U. after   14 cycles
 SCF Done:  E(RB3LYP) =  -787.377511769     A.U. after   12 cycles
 SCF Done:  E(RB3LYP) =  -787.380542372     A.U. after   12 cycles
 SCF Done:  E(RB3LYP) =  -787.381631105     A.U. after   12 cycles
 SCF Done:  E(RB3LYP) =  -787.382384661     A.U. after   12 cycles
 SCF Done:  E(RB3LYP) =  -787.382640063     A.U. after   11 cycles
 SCF Done:  E(RB3LYP) =  -787.382878375     A.U. after   11 cycles
 SCF Done:  E(RB3LYP) =  -787.383012315     A.U. after   10 cycles
 SCF Done:  E(RB3LYP) =  -787.382809370     A.U. after   10 cycles
 SCF Done:  E(RB3LYP) =  -787.383380154     A.U. after   11 cycles
 SCF Done:  E(RB3LYP) =  -787.402418596     A.U. after   11 cycles
 SCF Done:  E(RB3LYP) =  -787.402483116     A.U. after   10 cycles
 SCF Done:  E(RB3LYP) =  -787.402523672     A.U. after   10 cycles
 SCF Done:  E(RB3LYP) =  -787.402532761     A.U. after    9 cycles
 SCF Done:  E(RB3LYP) =  -787.402537742     A.U. after    9 cycles
 SCF Done:  E(RB3LYP) =  -787.402540168     A.U. after    9 cycles
 SCF Done:  E(RB3LYP) =  -787.402540655     A.U. after    8 cycles
 SCF Done:  E(RB3LYP) =  -787.402540699     A.U. after    6 cycles
 SCF Done:  E(RB3LYP) =  -787.402540712     A.U. after    6 cycles
 Optimization completed.
    -- Stationary point found.
 Normal termination of Gaussian 16 at Sun May 28 18:12:10 2023.

 ----------------------------------------------------------------------
 #N Geom=AllCheck Guess=TCheck SCRF=Check GenChk RB3LYP/6-31G(2df,p) Fr
 eq
 ----------------------------------------------------------------------

 Structure from the checkpoint file:  "CCCCqCrCOCC1ON1CqdOrCOC.chk"
 -------------------
 Title Card Required
 -------------------
 Charge =  0 Multiplicity = 1

                         Standard orientation:
 ---------------------------------------------------------------------
 Center     Atomic      Atomic             Coordinates (Angstroms)
 Number     Number       Type             X           Y           Z
 ---------------------------------------------------------------------
      1          6           0       -6.626526    1.631377   -0.123060
      2          6           0       -5.655745    0.489134    0.190182
      3          6           0       -4.203227    0.834485   -0.160094
      4          6           0       -3.174340   -0.248446    0.211388
      5          6           0       -3.374079   -1.558859   -0.562342
      6          6           0       -1.761235    0.294210   -0.001555
      7          8           0       -0.820339   -0.649531    0.484425
      8          6           0        0.514872   -0.253848    0.297340
      9          6           0        1.375332   -1.370925    0.837799
     10          8           0        1.817097   -2.352675   -0.061077
     11          7           0        2.783291   -1.446101    0.565631
     12          6           0        3.374812   -0.525592   -0.362904
     13          8           0        3.354211   -0.639155   -1.553930
     14          6           0        4.173362    0.517094    0.414648
     15          8           0        4.446530    1.599225   -0.421317
     16          6           0        5.274887    2.563773    0.188757
     17          1           0       -7.655606    1.362577    0.134826
     18          1           0       -6.606631    1.886741   -1.188467
     19          1           0       -6.368179    2.536978    0.437245
     20          1           0       -5.968145   -0.408920   -0.355010
     21          1           0       -5.718724    0.236121    1.256998
     22          1           0       -3.935490    1.770319    0.350429
     23          1           0       -4.132064    1.046372   -1.236927
     24          1           0       -3.270972   -0.460835    1.285619
     25          1           0       -3.353635   -1.377719   -1.644154
     26          1           0       -4.330764   -2.029066   -0.320164
     27          1           0       -2.577655   -2.267727   -0.325209
     28          1           0       -1.633179    1.252911    0.528662
     29          1           0       -1.581524    0.485687   -1.073286
     30          1           0        0.729860    0.678802    0.850254
     31          1           0        0.751374   -0.088139   -0.763067
     32          1           0        1.078756   -1.732109    1.823949
     33          1           0        5.095251    0.025237    0.773302
     34          1           0        3.613512    0.815994    1.318758
     35          1           0        5.434281    3.358346   -0.542985
     36          1           0        6.249485    2.139288    0.475315
     37          1           0        4.808355    2.994518    1.088719
 ---------------------------------------------------------------------

 SCF Done:  E(RB3LYP) =  -787.402540712     A.U. after    1 cycles

 The electronic state is 1-A.
 Alpha  occ. eigenvalues --  -19.19373 -19.15662 -19.15463 -19.13968 -14.40564
 Alpha  occ. eigenvalues --  -10.29912 -10.29084 -10.25334 -10.24890 -10.23624
 Alpha  occ. eigenvalues --  -10.23248 -10.18921 -10.18147 -10.18116 -10.17419
 Alpha  occ. eigenvalues --  -10.16892  -1.14470  -1.06411  -1.04909  -1.04329
 Alpha  occ. eigenvalues --   -0.83575  -0.81854  -0.77405  -0.74811  -0.74150
 Alpha  occ. eigenvalues --   -0.68054  -0.67373  -0.66164  -0.63417  -0.59402
 Alpha  occ. eigenvalues --   -0.56978  -0.55718  -0.52692  -0.51895  -0.50264
 Alpha  occ. eigenvalues --   -0.49736  -0.49392  -0.47832  -0.46463  -0.45758
 Alpha  occ. eigenvalues --   -0.45205  -0.43514  -0.42603  -0.42367  -0.41800
 Alpha  occ. eigenvalues --   -0.40776  -0.39525  -0.38621  -0.38249  -0.36876
 Alpha  occ. eigenvalues --   -0.36753  -0.36483  -0.34234  -0.33799  -0.33679
 Alpha  occ. eigenvalues --   -0.32688  -0.32310  -0.31878  -0.31258  -0.28550
 Alpha  occ. eigenvalues --   -0.27311  -0.26891  -0.25376
 Alpha virt. eigenvalues --   -0.01793   0.03777   0.06329   0.07152   0.08448
 Alpha virt. eigenvalues --    0.09892   0.10975   0.11227   0.11968   0.12121
 Alpha virt. eigenvalues --    0.13310   0.13984   0.14554   0.15224   0.15623

 Mulliken charges:
               1
     1  C   -0.379366
     2  C   -0.176840
     3  C   -0.166096
     4  C    0.002420
     5  C   -0.391485
     6  C   -0.060306
     7  O   -0.259052
     8  C   -0.103128
     9  C    0.099507
    10  O   -0.217487
    11  N   -0.129320
    12  C    0.378575
    13  O   -0.275613
    14  C   -0.155382
    15  O   -0.214417
    16  C   -0.227191
    17  H    0.112229
    18  H    0.114673
    19  H    0.112724
    20  H    0.102465
    21  H    0.094684
    22  H    0.087755
    23  H    0.092945
    24  H    0.079282
    25  H    0.109667
    26  H    0.114410
    27  H    0.132885
    28  H    0.084291
    29  H    0.093696
    30  H    0.095811
    31  H    0.134736
    32  H    0.123537
    33  H    0.129969
    34  H    0.103715
    35  H    0.137896
    36  H    0.111523
    37  H    0.106287
 Sum of Mulliken charges =  -0.00000

 Dipole moment (field-independent basis, Debye):
    X=             -0.8350    Y=              3.1518    Z=              3.1844  Tot=              4.5575
 Quadrupole moment (field-independent basis, Debye-Ang):
   XX=            -88.8227   YY=           -100.3615   ZZ=           -100.3774
   XY=              8.9812   XZ=             11.4932   YZ=             -0.1487

  Exact polarizability: 175.883   4.986 134.119  -2.450   0.222 119.680
 Approx polarizability: 198.759   8.812 191.819  -3.556   1.318 200.719

                      1                      2                      3
                      A                      A                      A
 Frequencies --     18.7621                22.1827                28.1985
 Red. masses --      3.3607                 3.2607                 4.1235
 Frc consts  --      0.0007                 0.0009                 0.0019
 IR Inten    --      0.6273                 1.0621                 1.2551

                      4                      5                      6
                      A                      A                      A
 Frequencies --     51.6954                58.1572                71.0326
 Red. masses --      4.3998                 2.3021                 1.8214
 Frc consts  --      0.0069                 0.0046                 0.0054
 IR Inten    --      0.0789                 7.8125                 0.5887

                      7                      8                      9
                      A                      A                      A
 Frequencies --     81.3378                92.9886               106.6491
 Red. masses --      2.9655                 3.3771                 3.9487
 Frc consts  --      0.0116                 0.0172                 0.0265
 IR Inten    --      0.0334                 0.4921                 1.7849

                     10                     11                     12
                      A                      A                      A
 Frequencies --    125.5264               145.7357               149.0263
 Red. masses --      2.6265                 3.0894                 3.7511
 Frc consts  --      0.0244                 0.0387                 0.0491
 IR Inten    --      2.2189                 1.3078                 1.3114

                     13                     14                     15
                      A                      A                      A
 Frequencies --    168.7084               231.0693               232.7906
 Red. masses --      3.5248                 1.1958                 1.1311
 Frc consts  --      0.0591                 0.0376                 0.0361
 IR Inten    --      1.7402                 1.8931                 1.0178

                     16                     17                     18
                      A                      A                      A
 Frequencies --    246.9345               256.8544               268.5918
 Red. masses --      1.2189                 2.8134                 4.8355
 Frc consts  --      0.0438                 0.1094                 0.2055
 IR Inten    --      0.2095                 0.2554                 0.1457

                     19                     20                     21
                      A                      A                      A
 Frequencies --    288.2243               322.8983               354.2746
 Red. masses --      3.9964                 2.8107                 5.1256
 Frc consts  --      0.1956                 0.1727                 0.3790
 IR Inten    --      1.0864                 0.4143                 5.9873

                     22                     23                     24
                      A                      A                      A
 Frequencies --    380.9758               398.5263               440.6941
 Red. masses --      3.0830                 4.2006                 2.2931
 Frc consts  --      0.2636                 0.3931                 0.2624
 IR Inten    --      2.4258                 1.5445                 2.9748

                     25                     26                     27
                      A                      A                      A
 Frequencies --    455.0283               506.9203               553.5734
 Red. masses --      4.1441                 3.2249                 2.9164
 Frc consts  --      0.5055                 0.4883                 0.5266
 IR Inten    --      5.6259                10.4352                 3.6534

                     28                     29                     30
                      A                      A                      A
 Frequencies --    635.1450               673.7655               744.9516
 Red. masses --      3.1308                 5.0864                 1.1128
 Frc consts  --      0.7441                 1.3604                 0.3638
 IR Inten    --      3.7937                13.3303                 2.5976

                     31                     32                     33
                      A                      A                      A
 Frequencies --    786.7570               841.0468               854.2782
 Red. masses --      7.6821                 2.0741                 4.3748
 Frc consts  --      2.8016                 0.8644                 1.8811
 IR Inten    --     34.4950                 0.4031                 4.2036

                     34                     35                     36
                      A                      A                      A
 Frequencies --    871.1058               902.6482               925.8682
 Red. masses --      1.3870                 2.0720                 2.2124
 Frc consts  --      0.6201                 0.9946                 1.1174
 IR Inten    --      0.3898                 3.7405                25.6912

                     37                     38                     39
                      A                      A                      A
 Frequencies --    932.3973               966.2968               993.9256
 Red. masses --      1.3934                 1.8437                 4.4654
 Frc consts  --      0.7137                 1.0143                 2.5991
 IR Inten    --      2.8603                13.4416                 9.4690

                     40                     41                     42
                      A                      A                      A
 Frequencies --   1008.0395              1022.0728              1025.4514
 Red. masses --      3.4572                 1.3438                 2.7243
 Frc consts  --      2.0698                 0.8271                 1.6879
 IR Inten    --     41.2184                 1.3568                 4.7775

                     43                     44                     45
                      A                      A                      A
 Frequencies --   1034.4031              1052.3249              1084.0472
 Red. masses --      3.6649                 2.4171                 2.2433
 Frc consts  --      2.3104                 1.5771                 1.5532
 IR Inten    --     10.3977                 2.5260                 1.5624

                     46                     47                     48
                      A                      A                      A
 Frequencies --   1098.4774              1119.2451              1159.1045
 Red. masses --      3.2634                 2.5806                 2.2795
 Frc consts  --      2.3200                 1.9047                 1.8044
 IR Inten    --    275.1455                 7.4010                 2.8282

                     49                     50                     51
                      A                      A                      A
 Frequencies --   1161.5757              1174.2782              1178.5206
 Red. masses --      6.2908                 2.6026                 2.1669
 Frc consts  --      5.0010                 2.1145                 1.7732
 IR Inten    --    251.8363                67.8699                10.2059

                     52                     53                     54
                      A                      A                      A
 Frequencies --   1183.1070              1184.2963              1195.7829
 Red. masses --      1.3888                 1.3615                 1.8999
 Frc consts  --      1.1454                 1.1251                 1.6006
 IR Inten    --     23.6860                12.9614                 2.8850

                     55                     56                     57
                      A                      A                      A
 Frequencies --   1237.0075              1250.0829              1254.3199
 Red. masses --      1.9560                 1.2178                 1.2619
 Frc consts  --      1.7635                 1.1213                 1.1698
 IR Inten    --     45.7839                 5.1143                 5.9060

                     58                     59                     60
                      A                      A                      A
 Frequencies --   1265.6866              1282.4652              1293.1712
 Red. masses --      1.1765                 1.2235                 1.1929
 Frc consts  --      1.1105                 1.1856                 1.1753
 IR Inten    --      3.0573                 1.7410                 2.6800

                     61                     62                     63
                      A                      A                      A
 Frequencies --   1314.8445              1332.1485              1344.6065
 Red. masses --      1.8153                 1.1125                 1.3281
 Frc consts  --      1.8490                 1.1632                 1.4148
 IR Inten    --     74.2744                 0.4074                 3.6162

                     64                     65                     66
                      A                      A                      A
 Frequencies --   1368.3934              1381.8013              1396.8135
 Red. masses --      1.3737                 1.3438                 1.4233
 Frc consts  --      1.5155                 1.5118                 1.6362
 IR Inten    --     58.1789                 2.7801                 1.2176

                     67                     68                     69
                      A                      A                      A
 Frequencies --   1406.6002              1409.1692              1414.4547
 Red. masses --      1.3809                 1.5045                 1.2651
 Frc consts  --      1.6098                 1.7602                 1.4913
 IR Inten    --      2.3817                 1.4685                 1.9762

                     70                     71                     72
                      A                      A                      A
 Frequencies --   1427.4210              1470.5128              1472.2899
 Red. masses --      1.4916                 1.4598                 1.3350
 Frc consts  --      1.7907                 1.8599                 1.7050
 IR Inten    --      7.6020                25.7434                11.2766

                     73                     74                     75
                      A                      A                      A
 Frequencies --   1481.0063              1486.5827              1491.0920
 Red. masses --      1.0873                 1.0470                 1.0967
 Frc consts  --      1.4051                 1.3632                 1.4367
 IR Inten    --      1.7956                 6.5359                 7.4185

                     76                     77                     78
                      A                      A                      A
 Frequencies --   1493.4529              1495.4801              1499.8095
 Red. masses --      1.0592                 1.0616                 1.0433
 Frc consts  --      1.3919                 1.3988                 1.3827
 IR Inten    --      4.7053                 6.5974                 4.9265

                     79                     80                     81
                      A                      A                      A
 Frequencies --   1500.6374              1506.5981              1511.4859
 Red. masses --      1.0898                 1.0533                 1.0816
 Frc consts  --      1.4460                 1.4086                 1.4559
 IR Inten    --      2.4329                 3.0747                 3.9240

                     82                     83                     84
                      A                      A                      A
 Frequencies --   1514.9650              1525.7433              1852.2723
 Red. masses --      1.0962                 1.0993                12.5140
 Frc consts  --      1.4823                 1.5077                25.2962
 IR Inten    --      5.0603                 6.5217               170.1695

                     85                     86                     87
                      A                      A                      A
 Frequencies --   2940.7544              2946.4799              2953.8726
 Red. masses --      1.0649                 1.0539                 1.0561
 Frc consts  --      5.4258                 5.3909                 5.4292
 IR Inten    --     43.2506                36.1039                43.8345

                     88                     89                     90
                      A                      A                      A
 Frequencies --   2968.8256              2974.5097              2981.8666
 Red. masses --      1.1011                 1.0382                 1.1020
 Frc consts  --      5.7179                 5.4119                 5.7729
 IR Inten    --     39.4067                55.4751                27.3871

                     91                     92                     93
                      A                      A                      A
 Frequencies --   2997.0305              3009.3088              3019.0098
 Red. masses --      1.0593                 1.0848                 1.0677
 Frc consts  --      5.6060                 5.7879                 5.7334
 IR Inten    --     21.1866                13.7178                26.9140

                     94                     95                     96
                      A                      A                      A
 Frequencies --   3020.4560              3028.4492              3031.1709
 Red. masses --      1.1032                 1.0366                 1.0650
 Frc consts  --      5.9301                 5.6017                 5.7655
 IR Inten    --     52.4538                36.0997                 6.8316

                     97                     98                     99
                      A                      A                      A
 Frequencies --   3032.4447              3033.8194              3062.0177
 Red. masses --      1.0893                 1.0712                 1.0998
 Frc consts  --      5.9019                 5.8088                 6.0754
 IR Inten    --     11.9763                49.0339                29.6565

                    100                    101                    102
                      A                      A                      A
 Frequencies --   3095.7618              3101.2672              3103.2356
 Red. masses --      1.1023                 1.1004                 1.0951
 Frc consts  --      6.2240                 6.2355                 6.2137
 IR Inten    --     60.8256                17.4456                45.8080

                    103                    104                    105
                      A                      A                      A
 Frequencies --   3112.1649              3124.9878              3128.7526
 Red. masses --      1.0881                 1.0961                 1.1007
 Frc consts  --      6.2094                 6.3068                 6.3486
 IR Inten    --     28.1369                22.8078                21.6306

 - Thermochemistry -
 -------------------
 Temperature   298.150 Kelvin.  Pressure   1.00000 Atm.
 Atom     1 has atomic number  6 and mass  12.00000

 Molecular mass:   231.14706 amu.
 Principal axes and moments of inertia in atomic units:
                           1         2         3
     Eigenvalues --  1789.78853********************
           X            0.99996   0.00516   0.00722
           Y           -0.00523   0.99994   0.01012
           Z           -0.00716  -0.01016   0.99992
 This molecule is an asymmetric top.
 Rotational symmetry number  1.
 Warning -- assumption of classical behavior for rotation
           may cause significant error
 Rotational temperatures (Kelvin)      0.04839     0.00733     0.00668
 Rotational constants (GHZ):           1.00835     0.15275     0.13909
 Zero-point vibrational energy     832680.9 (Joules/Mol)
                                  199.01550 (Kcal/Mol)
 Warning -- explicit consideration of  27 degrees of freedom as
           vibrations may cause significant error
 Vibrational temperatures:     26.99    31.92    40.57    74.38    83.68
          (Kelvin)            102.20   117.03   133.79   153.44   180.60
                              209.68   214.42   242.73   332.46   334.93
                              355.28   369.56   386.44   414.69   464.58
                              509.72   548.14   573.39   634.06   654.68
                              729.35   796.47   913.83   969.40  1071.82
                             1131.97  1210.08  1229.12  1253.33  1298.71
                             1332.12  1341.51  1390.29  1430.04  1450.34
                             1470.53  1475.40  1488.28  1514.06  1559.70
                             1580.46  1610.34  1667.69  1671.25  1689.52
                             1695.63  1702.23  1703.94  1720.46  1779.78
                             1798.59  1804.69  1821.04  1845.18  1860.58
                             1891.77  1916.66  1934.59  1968.81  1988.10
                             2009.70  2023.78  2027.48  2035.08  2053.74
                             2115.74  2118.30  2130.84  2138.86  2145.35
                             2148.75  2151.66  2157.89  2159.08  2167.66
                             2174.69  2179.70  2195.20  2665.01  4231.09
                             4239.33  4249.96  4271.48  4279.66  4290.24
                             4312.06  4329.72  4343.68  4345.76  4357.26
                             4361.18  4363.01  4364.99  4405.56  4454.11
                             4462.03  4464.86  4477.71  4496.16  4501.58

 Zero-point correction=                           0.317151 (Hartree/Particle)
 Thermal correction to Energy=                    0.336612
 Thermal correction to Enthalpy=                  0.337556
 Thermal correction to Gibbs Free Energy=         0.265510
 Sum of electronic and zero-point Energies=           -787.085389
 Sum of electronic and thermal Energies=              -787.065929
 Sum of electronic and thermal Enthalpies=            -787.064984
 Sum of electronic and thermal Free Energies=         -787.137030

                     E (Thermal)             CV                S
                      KCal/Mol        Cal/Mol-Kelvin    Cal/Mol-Kelvin
 Total                  211.227             67.569            151.634
 Electronic               0.000              0.000              0.000
 Translational            0.889              2.981             42.216
 Rotational               0.889              2.981             33.972
 Vibrational            209.450             61.608             75.446
 Vibration     1          0.593              1.986              6.761
 Vibration     2          0.593              1.985              6.429
 Vibration     3          0.593              1.984              5.952
 Vibration     4          0.596              1.977              4.751
 Vibration     5          0.596              1.974              4.519
 Vibration     6          0.598              1.968              4.125
 Vibration     7          0.600              1.962              3.858
 Vibration     8          0.602              1.954              3.596
 Vibration     9          0.606              1.944              3.329
 Vibration    10          0.610              1.928              3.013
 Vibration    11          0.617              1.907              2.727
 Vibration    12          0.618              1.904              2.685
 Vibration    13          0.625              1.881              2.450
 Vibration    14          0.653              1.793              1.871
 Vibration    15          0.654              1.791              1.857
 Vibration    16          0.661              1.768              1.752
 Vibration    17          0.666              1.751              1.683
 Vibration    18          0.673              1.731              1.605
 Vibration    19          0.685              1.696              1.484
 Vibration    20          0.708              1.630              1.295
 Vibration    21          0.730              1.566              1.147
 Vibration    22          0.751              1.511              1.035
 Vibration    23          0.765              1.473              0.968
 Vibration    24          0.801              1.381              0.824
 Vibration    25          0.813              1.350              0.781
 Vibration    26          0.862              1.235              0.641
 Vibration    27          0.909              1.132              0.537

 Optimization completed.
    -- Stationary point found.
 Normal termination of Gaussian 16 at Sun May 28 20:38:56 2023.
