 Gaussian 16, Revision A.03,
 Gaussian 16:  ES64L-G16RevA.03 25-Dec-2016

 -----------------------------
 # opt freq b3lyp/6-31g(2df,p)
 -----------------------------

 -------------------
 Title Card Required
 -------------------
 Symbolic Z-matrix:
 Charge =  0 Multiplicity = 1

 SCF Done:  E(RB3LYP) =  -561.733366763     A.U. after   12 cycles
 SCF Done:  E(RB3LYP) =  -561.751497463     A.U. after   11 cycles
 SCF Done:  E(RB3LYP) =  -561.754396002     A.U. after   10 cycles
 SCF Done:  E(RB3LYP) =  -561.755155103     A.U. after   10 cycles
 SCF Done:  E(RB3LYP) =  -561.756451841     A.U. after   10 cycles
 SCF Done:  E(RB3LYP) =  -561.756934319     A.U. after   10 cycles
 SCF Done:  E(RB3LYP) =  -561.757086199     A.U. after   10 cycles
 SCF Done:  E(RB3LYP) =  -561.757112542     A.U. after    9 cycles
 SCF Done:  E(RB3LYP) =  -561.757122483     A.U. after    8 cycles
 SCF Done:  E(RB3LYP) =  -561.757140865     A.U. after   10 cycles
 SCF Done:  E(RB3LYP) =  -561.757151172     A.U. after   10 cycles
 SCF Done:  E(RB3LYP) =  -561.757162778     A.U. after    8 cycles
 SCF Done:  E(RB3LYP) =  -561.757177621     A.U. after   10 cycles
 SCF Done:  E(RB3LYP) =  -561.757178906     A.U. after    8 cycles
 SCF Done:  E(RB3LYP) =  -561.757179577     A.U. after    7 cycles
 SCF Done:  E(RB3LYP) =  -561.757179946     A.U. after    9 cycles
 SCF Done:  E(RB3LYP) =  -561.757180048     A.U. after    8 cycles
 SCF Done:  E(RB3LYP) =  -561.757180054     A.U. after    6 cycles
 Optimization completed.
    -- Stationary point found.
 Normal termination of Gaussian 16 at Sat May 27 15:14:41 2023.

 ----------------------------------------------------------------------
 #N Geom=AllCheck Guess=TCheck SCRF=Check GenChk RB3LYP/6-31G(2df,p) Fr
 eq
 ----------------------------------------------------------------------

 Structure from the checkpoint file:  "CCCCCC1NC1OC1CC1C.chk"
 -------------------
 Title Card Required
 -------------------
 Charge =  0 Multiplicity = 1

                         Standard orientation:
 ---------------------------------------------------------------------
 Center     Atomic      Atomic             Coordinates (Angstroms)
 Number     Number       Type             X           Y           Z
 ---------------------------------------------------------------------
      1          6           0        5.974469    0.915671    0.340895
      2          6           0        4.820427    0.208544   -0.374756
      3          6           0        3.461904    0.440064    0.295654
      4          6           0        2.302686   -0.265147   -0.415303
      5          6           0        0.942067   -0.027661    0.256409
      6          6           0       -0.200811   -0.720574   -0.449727
      7          7           0       -0.411568   -2.181403   -0.305733
      8          6           0       -1.366604   -1.272567    0.290796
      9          8           0       -2.627212   -1.355032   -0.278733
     10          6           0       -3.509827   -0.283950   -0.077140
     11          6           0       -3.714555    0.435700    1.231895
     12          6           0       -3.119179    1.162901    0.031805
     13          6           0       -3.896120    2.232166   -0.702943
     14          1           0        6.929490    0.731589   -0.161010
     15          1           0        6.070466    0.569165    1.376037
     16          1           0        5.817540    1.999778    0.370186
     17          1           0        5.021966   -0.869943   -0.419482
     18          1           0        4.771104    0.549454   -1.417374
     19          1           0        3.258828    1.519473    0.340812
     20          1           0        3.510360    0.099932    1.339969
     21          1           0        2.501229   -1.344315   -0.460678
     22          1           0        2.251744    0.074410   -1.458629
     23          1           0        0.740698    1.052353    0.294104
     24          1           0        0.983412   -0.368074    1.300873
     25          1           0       -0.394966   -0.386319   -1.467553
     26          1           0        0.200993   -2.567375    0.409091
     27          1           0       -1.370526   -1.179432    1.378782
     28          1           0       -4.408737   -0.495769   -0.647296
     29          1           0       -3.053359    0.225864    2.064711
     30          1           0       -4.735196    0.659012    1.526819
     31          1           0       -2.053615    1.353613    0.119570
     32          1           0       -4.956808    1.967932   -0.774401
     33          1           0       -3.520008    2.370622   -1.722677
     34          1           0       -3.832672    3.197211   -0.187366
 ---------------------------------------------------------------------

 SCF Done:  E(RB3LYP) =  -561.757180054     A.U. after    1 cycles

 The electronic state is 1-A.
 Alpha  occ. eigenvalues --  -19.14465 -14.32207 -10.25501 -10.23281 -10.20912
 Alpha  occ. eigenvalues --  -10.18932 -10.18854 -10.18189 -10.18022 -10.17972
 Alpha  occ. eigenvalues --  -10.17951 -10.17847 -10.17292  -1.04851  -0.94678
 Alpha  occ. eigenvalues --   -0.84797  -0.80515  -0.76079  -0.70971  -0.69550
 Alpha  occ. eigenvalues --   -0.65861  -0.62731  -0.59383  -0.57940  -0.57712
 Alpha  occ. eigenvalues --   -0.55864  -0.52418  -0.49557  -0.47852  -0.46661
 Alpha  occ. eigenvalues --   -0.44615  -0.42510  -0.42283  -0.41605  -0.40620
 Alpha  occ. eigenvalues --   -0.40056  -0.39296  -0.38349  -0.37978  -0.35842
 Alpha  occ. eigenvalues --   -0.35665  -0.35047  -0.34098  -0.33595  -0.32917
 Alpha  occ. eigenvalues --   -0.32335  -0.31965  -0.30088  -0.27367  -0.25468
 Alpha  occ. eigenvalues --   -0.22287
 Alpha virt. eigenvalues --    0.07432   0.08355   0.09028   0.10242   0.10422
 Alpha virt. eigenvalues --    0.11965   0.12431   0.12986   0.13431   0.14030
 Alpha virt. eigenvalues --    0.14494   0.15148   0.15856   0.16119   0.16951

 Mulliken charges:
               1
     1  C   -0.379429
     2  C   -0.164643
     3  C   -0.161398
     4  C   -0.168047
     5  C   -0.231454
     6  C   -0.024382
     7  N   -0.343422
     8  C    0.066811
     9  O   -0.235340
    10  C    0.137202
    11  C   -0.334502
    12  C   -0.025894
    13  C   -0.411578
    14  H    0.111858
    15  H    0.112847
    16  H    0.113093
    17  H    0.095345
    18  H    0.095503
    19  H    0.091280
    20  H    0.089881
    21  H    0.099180
    22  H    0.098246
    23  H    0.101450
    24  H    0.086859
    25  H    0.099230
    26  H    0.228231
    27  H    0.084979
    28  H    0.100533
    29  H    0.112614
    30  H    0.110245
    31  H    0.094102
    32  H    0.114596
    33  H    0.119480
    34  H    0.116525
 Sum of Mulliken charges =  -0.00000

 Dipole moment (field-independent basis, Debye):
    X=              1.0249    Y=              1.9580    Z=              1.4580  Tot=              2.6476
 Quadrupole moment (field-independent basis, Debye-Ang):
   XX=            -79.5952   YY=            -87.0032   ZZ=            -81.6036
   XY=             -5.7214   XZ=             -1.0614   YZ=             -5.1226

  Exact polarizability: 157.746  -2.893 118.580  -1.634  -2.518 109.540
 Approx polarizability: 180.443  -1.902 177.120  -2.649  -2.382 169.882

                      1                      2                      3
                      A                      A                      A
 Frequencies --     21.8921                29.0525                49.1621
 Red. masses --      2.4681                 3.2458                 1.9786
 Frc consts  --      0.0007                 0.0016                 0.0028
 IR Inten    --      0.3566                 0.3012                 0.0526

                      4                      5                      6
                      A                      A                      A
 Frequencies --     57.3268                74.3011               116.5178
 Red. masses --      3.6876                 2.8741                 2.9966
 Frc consts  --      0.0071                 0.0093                 0.0240
 IR Inten    --      1.0753                 0.3006                 0.5578

                      7                      8                      9
                      A                      A                      A
 Frequencies --    133.6238               148.4008               187.8864
 Red. masses --      2.0918                 2.2671                 2.9701
 Frc consts  --      0.0220                 0.0294                 0.0618
 IR Inten    --      0.5814                 0.6473                 0.4492

                     10                     11                     12
                      A                      A                      A
 Frequencies --    197.8927               244.4317               246.9688
 Red. masses --      1.2357                 3.0573                 1.1292
 Frc consts  --      0.0285                 0.1076                 0.0406
 IR Inten    --      0.2046                 0.2875                 0.0010

                     13                     14                     15
                      A                      A                      A
 Frequencies --    253.7280               302.0018               328.1253
 Red. masses --      2.7223                 2.8009                 2.9319
 Frc consts  --      0.1033                 0.1505                 0.1860
 IR Inten    --      1.0091                 0.9156                 3.1947

                     16                     17                     18
                      A                      A                      A
 Frequencies --    360.6195               428.5860               440.6316
 Red. masses --      2.8417                 3.1230                 2.5817
 Frc consts  --      0.2177                 0.3380                 0.2953
 IR Inten    --      1.1502                 5.8841                 1.5465

                     19                     20                     21
                      A                      A                      A
 Frequencies --    478.1668               513.4334               587.9558
 Red. masses --      4.0810                 2.5574                 2.8430
 Frc consts  --      0.5498                 0.3972                 0.5791
 IR Inten    --      3.0352                 2.0782                 5.8652

                     22                     23                     24
                      A                      A                      A
 Frequencies --    731.6774               753.4717               775.9271
 Red. masses --      1.0725                 1.2015                 2.7127
 Frc consts  --      0.3383                 0.4019                 0.9623
 IR Inten    --      3.1418                 0.3771                 3.9232

                     25                     26                     27
                      A                      A                      A
 Frequencies --    796.9293               803.7403               851.1951
 Red. masses --      1.8387                 2.1934                 1.5397
 Frc consts  --      0.6880                 0.8348                 0.6573
 IR Inten    --     10.7239                 8.7430                33.4730

                     28                     29                     30
                      A                      A                      A
 Frequencies --    877.9869               896.6447               904.6980
 Red. masses --      1.7630                 1.9824                 1.8417
 Frc consts  --      0.8007                 0.9390                 0.8881
 IR Inten    --      1.5689                13.0686                14.0680

                     31                     32                     33
                      A                      A                      A
 Frequencies --    921.1265               958.2918               977.8059
 Red. masses --      2.2386                 1.8950                 1.3710
 Frc consts  --      1.1191                 1.0253                 0.7723
 IR Inten    --     45.3030                26.8295                 3.9757

                     34                     35                     36
                      A                      A                      A
 Frequencies --    993.7349               995.4391              1031.4477
 Red. masses --      2.3026                 1.7131                 1.5723
 Frc consts  --      1.3397                 1.0001                 0.9856
 IR Inten    --      7.2104                 8.9080                 1.9836

                     37                     38                     39
                      A                      A                      A
 Frequencies --   1039.7379              1041.4958              1070.2155
 Red. masses --      2.2281                 2.0023                 2.2615
 Frc consts  --      1.4192                 1.2796                 1.5261
 IR Inten    --      4.4709                14.8602                 0.6412

                     40                     41                     42
                      A                      A                      A
 Frequencies --   1079.7727              1087.0350              1102.7287
 Red. masses --      2.3629                 1.2454                 1.6447
 Frc consts  --      1.6232                 0.8671                 1.1783
 IR Inten    --     19.0456                 5.3695                 8.2856

                     43                     44                     45
                      A                      A                      A
 Frequencies --   1117.8684              1126.7735              1130.3957
 Red. masses --      1.4462                 1.4999                 1.8205
 Frc consts  --      1.0648                 1.1220                 1.3706
 IR Inten    --     20.7380                 3.5187                16.9609

                     46                     47                     48
                      A                      A                      A
 Frequencies --   1142.9279              1193.7484              1200.4587
 Red. masses --      1.7166                 1.7690                 1.7767
 Frc consts  --      1.3212                 1.4852                 1.5085
 IR Inten    --      4.0980                 5.8328                37.7113

                     49                     50                     51
                      A                      A                      A
 Frequencies --   1214.3839              1227.9460              1237.6810
 Red. masses --      1.9059                 1.6363                 1.5848
 Frc consts  --      1.6560                 1.4537                 1.4303
 IR Inten    --     48.4146                10.7418                 3.5826

                     52                     53                     54
                      A                      A                      A
 Frequencies --   1250.2456              1265.3414              1285.9218
 Red. masses --      1.8593                 1.4837                 1.4625
 Frc consts  --      1.7123                 1.3996                 1.4249
 IR Inten    --    102.6226                21.3143                41.4483

                     55                     56                     57
                      A                      A                      A
 Frequencies --   1308.1480              1325.5924              1331.2318
 Red. masses --      1.3487                 1.2659                 1.0578
 Frc consts  --      1.3598                 1.3106                 1.1045
 IR Inten    --     15.7047                 1.6986                 1.1030

                     58                     59                     60
                      A                      A                      A
 Frequencies --   1337.2207              1366.6134              1367.4506
 Red. masses --      1.1639                 1.3424                 1.2545
 Frc consts  --      1.2262                 1.4772                 1.3821
 IR Inten    --      2.9999                15.6368                 1.2130

                     61                     62                     63
                      A                      A                      A
 Frequencies --   1394.4764              1401.4099              1413.7575
 Red. masses --      1.4495                 1.6057                 1.2532
 Frc consts  --      1.6607                 1.8580                 1.4757
 IR Inten    --      5.6380                 1.6376                 0.6586

                     64                     65                     66
                      A                      A                      A
 Frequencies --   1415.5955              1427.6922              1467.7896
 Red. masses --      1.2219                 1.4723                 1.8278
 Frc consts  --      1.4427                 1.7681                 2.3201
 IR Inten    --      1.3549                23.7240                42.2701

                     67                     68                     69
                      A                      A                      A
 Frequencies --   1475.3869              1483.3445              1489.7593
 Red. masses --      1.1633                 1.0731                 1.0987
 Frc consts  --      1.4920                 1.3911                 1.4366
 IR Inten    --      6.8171                 0.1703                 8.3764

                     70                     71                     72
                      A                      A                      A
 Frequencies --   1490.0967              1493.7076              1499.9185
 Red. masses --      1.1921                 1.1250                 1.0402
 Frc consts  --      1.5595                 1.4789                 1.3789
 IR Inten    --      8.5953                13.7848                 5.0630

                     73                     74                     75
                      A                      A                      A
 Frequencies --   1502.7170              1503.2204              1513.5368
 Red. masses --      1.0828                 1.1634                 1.0918
 Frc consts  --      1.4406                 1.5490                 1.4735
 IR Inten    --      1.0242                 7.0130                 3.6377

                     76                     77                     78
                      A                      A                      A
 Frequencies --   2996.8272              3000.1817              3011.5099
 Red. masses --      1.0584                 1.0578                 1.0591
 Frc consts  --      5.6002                 5.6096                 5.6592
 IR Inten    --      2.0584                14.0930                 0.6328

                     79                     80                     81
                      A                      A                      A
 Frequencies --   3019.0309              3021.9741              3023.5928
 Red. masses --      1.0595                 1.0984                 1.0351
 Frc consts  --      5.6899                 5.9101                 5.5753
 IR Inten    --     79.0512                 2.3708                37.3340

                     82                     83                     84
                      A                      A                      A
 Frequencies --   3028.4201              3029.0373              3046.6735
 Red. masses --      1.0361                 1.1006                 1.1037
 Frc consts  --      5.5987                 5.9495                 6.0359
 IR Inten    --     40.4775                 3.2301                 0.2325

                     85                     86                     87
                      A                      A                      A
 Frequencies --   3063.2528              3076.0543              3086.3076
 Red. masses --      1.1050                 1.0856                 1.1011
 Frc consts  --      6.1089                 6.0523                 6.1793
 IR Inten    --     72.0918                23.1369                26.9357

                     88                     89                     90
                      A                      A                      A
 Frequencies --   3091.7156              3094.4055              3100.9047
 Red. masses --      1.1004                 1.1021                 1.1009
 Frc consts  --      6.1974                 6.2175                 6.2369
 IR Inten    --     19.0041                58.1559                38.3452

                     91                     92                     93
                      A                      A                      A
 Frequencies --   3124.7798              3131.1218              3154.1069
 Red. masses --      1.0878                 1.0558                 1.0889
 Frc consts  --      6.2583                 6.0984                 6.3823
 IR Inten    --     19.3034                14.1558                 3.6181

                     94                     95                     96
                      A                      A                      A
 Frequencies --   3162.7994              3217.0633              3497.6256
 Red. masses --      1.0881                 1.1139                 1.0756
 Frc consts  --      6.4127                 6.7924                 7.7528
 IR Inten    --     28.2990                16.3719                 0.1614

 - Thermochemistry -
 -------------------
 Temperature   298.150 Kelvin.  Pressure   1.00000 Atm.
 Atom     1 has atomic number  6 and mass  12.00000

 Molecular mass:   183.16231 amu.
 Principal axes and moments of inertia in atomic units:
                           1         2         3
     Eigenvalues --  1138.071737316.282668008.60348
           X            0.99998  -0.00678   0.00117
           Y            0.00681   0.99973  -0.02201
           Z           -0.00102   0.02201   0.99976
 This molecule is an asymmetric top.
 Rotational symmetry number  1.
 Warning -- assumption of classical behavior for rotation
           may cause significant error
 Rotational temperatures (Kelvin)      0.07611     0.01184     0.01082
 Rotational constants (GHZ):           1.58579     0.24667     0.22535
 Zero-point vibrational energy     803122.2 (Joules/Mol)
                                  191.95082 (Kcal/Mol)
 Warning -- explicit consideration of  21 degrees of freedom as
           vibrations may cause significant error
 Vibrational temperatures:     31.50    41.80    70.73    82.48   106.90
          (Kelvin)            167.64   192.25   213.52   270.33   284.72
                              351.68   355.33   365.06   434.51   472.10
                              518.85   616.64   633.97   687.98   738.72
                              845.94  1052.72  1084.08  1116.39  1146.60
                             1156.40  1224.68  1263.23  1290.07  1301.66
                             1325.30  1378.77  1406.84  1429.76  1432.21
                             1484.02  1495.95  1498.48  1539.80  1553.55
                             1564.00  1586.58  1608.36  1621.18  1626.39
                             1644.42  1717.54  1727.19  1747.23  1766.74
                             1780.75  1798.82  1820.54  1850.15  1882.13
                             1907.23  1915.35  1923.96  1966.25  1967.46
                             2006.34  2016.32  2034.08  2036.73  2054.13
                             2111.82  2122.75  2134.20  2143.43  2143.92
                             2149.11  2158.05  2162.07  2162.80  2177.64
                             4311.77  4316.59  4332.89  4343.71  4347.95
                             4350.28  4357.22  4358.11  4383.48  4407.34
                             4425.76  4440.51  4448.29  4452.16  4461.51
                             4495.86  4504.99  4538.06  4550.56  4628.64
                             5032.30

 Zero-point correction=                           0.305893 (Hartree/Particle)
 Thermal correction to Energy=                    0.321331
 Thermal correction to Enthalpy=                  0.322275
 Thermal correction to Gibbs Free Energy=         0.260891
 Sum of electronic and zero-point Energies=           -561.451287
 Sum of electronic and thermal Energies=              -561.435849
 Sum of electronic and thermal Enthalpies=            -561.434905
 Sum of electronic and thermal Free Energies=         -561.496289

                     E (Thermal)             CV                S
                      KCal/Mol        Cal/Mol-Kelvin    Cal/Mol-Kelvin
 Total                  201.638             56.219            129.194
 Electronic               0.000              0.000              0.000
 Translational            0.889              2.981             41.522
 Rotational               0.889              2.981             32.567
 Vibrational            199.861             50.257             55.106
 Vibration     1          0.593              1.985              6.455
 Vibration     2          0.593              1.984              5.893
 Vibration     3          0.595              1.978              4.851
 Vibration     4          0.596              1.975              4.547
 Vibration     5          0.599              1.966              4.036
 Vibration     6          0.608              1.936              3.157
 Vibration     7          0.613              1.920              2.893
 Vibration     8          0.618              1.904              2.693
 Vibration     9          0.633              1.856              2.249
 Vibration    10          0.637              1.843              2.153
 Vibration    11          0.660              1.772              1.770
 Vibration    12          0.661              1.768              1.752
 Vibration    13          0.665              1.756              1.705
 Vibration    14          0.694              1.670              1.406
 Vibration    15          0.711              1.619              1.269
 Vibration    16          0.735              1.553              1.119
 Vibration    17          0.790              1.408              0.863
 Vibration    18          0.801              1.382              0.825
 Vibration    19          0.835              1.298              0.715
 Vibration    20          0.869              1.220              0.625
 Vibration    21          0.945              1.057              0.471

 Optimization completed.
    -- Stationary point found.
 Normal termination of Gaussian 16 at Sat May 27 16:45:33 2023.
