 Gaussian 16, Revision A.03,
 Gaussian 16:  ES64L-G16RevA.03 25-Dec-2016

 -----------------------------
 # opt freq b3lyp/6-31g(2df,p)
 -----------------------------

 -------------------
 Title Card Required
 -------------------
 Symbolic Z-matrix:
 Charge =  0 Multiplicity = 1

 SCF Done:  E(RB3LYP) =  -646.288325587     A.U. after   12 cycles
 SCF Done:  E(RB3LYP) =  -646.296916473     A.U. after   10 cycles
 SCF Done:  E(RB3LYP) =  -646.298328020     A.U. after    9 cycles
 SCF Done:  E(RB3LYP) =  -646.298616613     A.U. after    9 cycles
 SCF Done:  E(RB3LYP) =  -646.298667459     A.U. after    9 cycles
 SCF Done:  E(RB3LYP) =  -646.298681810     A.U. after    8 cycles
 SCF Done:  E(RB3LYP) =  -646.298688151     A.U. after    8 cycles
 SCF Done:  E(RB3LYP) =  -646.298688726     A.U. after    6 cycles
 SCF Done:  E(RB3LYP) =  -646.298689645     A.U. after    8 cycles
 SCF Done:  E(RB3LYP) =  -646.298690586     A.U. after    8 cycles
 SCF Done:  E(RB3LYP) =  -646.298690882     A.U. after    8 cycles
 SCF Done:  E(RB3LYP) =  -646.298691088     A.U. after    7 cycles
 SCF Done:  E(RB3LYP) =  -646.298691171     A.U. after    7 cycles
 SCF Done:  E(RB3LYP) =  -646.298691184     A.U. after    5 cycles
 Optimization completed.
    -- Stationary point found.
 Normal termination of Gaussian 16 at Mon May 22 08:18:17 2023.

 ----------------------------------------------------------------------
 #N Geom=AllCheck Guess=TCheck SCRF=Check GenChk RB3LYP/6-31G(2df,p) Fr
 eq
 ----------------------------------------------------------------------

 Structure from the checkpoint file:  "CCCCCCCNCqCrCCCqCrCC.chk"
 -------------------
 Title Card Required
 -------------------
 Charge =  0 Multiplicity = 1

                         Standard orientation:
 ---------------------------------------------------------------------
 Center     Atomic      Atomic             Coordinates (Angstroms)
 Number     Number       Type             X           Y           Z
 ---------------------------------------------------------------------
      1          6           0        8.672613   -0.387506    0.309573
      2          6           0        7.331258   -0.811872   -0.294487
      3          6           0        6.139007   -0.035907    0.275591
      4          6           0        4.792471   -0.453844   -0.324182
      5          6           0        3.601023    0.322643    0.247026
      6          6           0        2.257048   -0.093804   -0.358621
      7          6           0        1.069226    0.675853    0.220049
      8          7           0       -0.178604    0.269833   -0.419479
      9          6           0       -1.401129    0.830872    0.167378
     10          6           0       -1.531897    2.311537   -0.209360
     11          6           0       -2.597106   -0.003349   -0.323036
     12          6           0       -3.943081    0.359400    0.315198
     13          6           0       -5.136178   -0.499470   -0.152626
     14          6           0       -5.003694   -1.963282    0.293422
     15          6           0       -6.457060    0.128070    0.335300
     16          6           0       -7.729515   -0.517734   -0.222888
     17          1           0        9.503349   -0.958652   -0.116862
     18          1           0        8.684898   -0.542002    1.394402
     19          1           0        8.870730    0.674656    0.126794
     20          1           0        7.176986   -1.886141   -0.126447
     21          1           0        7.361350   -0.678634   -1.384148
     22          1           0        6.293542    1.039471    0.108363
     23          1           0        6.108547   -0.168715    1.366372
     24          1           0        4.638605   -1.529231   -0.157017
     25          1           0        4.823122   -0.320284   -1.414559
     26          1           0        3.756486    1.397772    0.080937
     27          1           0        3.569191    0.187331    1.337125
     28          1           0        2.104039   -1.170782   -0.194431
     29          1           0        2.272563    0.051094   -1.445868
     30          1           0        1.223833    1.747902    0.047564
     31          1           0        1.043787    0.541630    1.320107
     32          1           0       -0.239557   -0.743474   -0.379374
     33          1           0       -1.373896    0.763632    1.274227
     34          1           0       -1.600160    2.419542   -1.296927
     35          1           0       -0.668853    2.888979    0.133239
     36          1           0       -2.419437    2.759493    0.245658
     37          1           0       -2.372280   -1.058554   -0.118907
     38          1           0       -2.663550    0.091100   -1.415173
     39          1           0       -4.174009    1.408578    0.096180
     40          1           0       -3.860383    0.288855    1.409791
     41          1           0       -5.148604   -0.479546   -1.253412
     42          1           0       -4.993325   -2.035110    1.388262
     43          1           0       -4.082829   -2.421270   -0.078324
     44          1           0       -5.834660   -2.573473   -0.071392
     45          1           0       -6.455241    1.191676    0.064341
     46          1           0       -6.481967    0.097354    1.433835
     47          1           0       -7.724061   -0.517970   -1.318986
     48          1           0       -8.619348    0.030316    0.102913
     49          1           0       -7.846559   -1.554018    0.108048
 ---------------------------------------------------------------------

 SCF Done:  E(RB3LYP) =  -646.298691184     A.U. after    1 cycles

 The electronic state is 1-A.
 Alpha  occ. eigenvalues --  -14.30042 -10.20199 -10.19442 -10.18089 -10.17471
 Alpha  occ. eigenvalues --  -10.17416 -10.17386 -10.17313 -10.17302 -10.17258
 Alpha  occ. eigenvalues --  -10.17249 -10.17237 -10.16924 -10.16894 -10.16772
 Alpha  occ. eigenvalues --  -10.16360  -0.89566  -0.81185  -0.80240  -0.77789
 Alpha  occ. eigenvalues --   -0.75787  -0.72851  -0.71062  -0.69519  -0.66355
 Alpha  occ. eigenvalues --   -0.64679  -0.61121  -0.59053  -0.57554  -0.57005
 Alpha  occ. eigenvalues --   -0.55561  -0.55125  -0.48420  -0.47197  -0.46649
 Alpha  occ. eigenvalues --   -0.45573  -0.45231  -0.44257  -0.42789  -0.42265
 Alpha  occ. eigenvalues --   -0.41568  -0.41152  -0.40433  -0.39968  -0.38329
 Alpha  occ. eigenvalues --   -0.37749  -0.37547  -0.37385  -0.36404  -0.36229
 Alpha  occ. eigenvalues --   -0.35243  -0.34580  -0.34356  -0.33908  -0.33205
 Alpha  occ. eigenvalues --   -0.32689  -0.32281  -0.32003  -0.31775  -0.31613
 Alpha  occ. eigenvalues --   -0.31387  -0.30715  -0.30635  -0.29056  -0.21347
 Alpha virt. eigenvalues --    0.08170   0.09017   0.09415   0.10335   0.10528
 Alpha virt. eigenvalues --    0.11451   0.11829   0.12322   0.12532   0.13218
 Alpha virt. eigenvalues --    0.13497   0.14292   0.14871   0.15439   0.15659

 Mulliken charges:
               1
     1  C   -0.379061
     2  C   -0.162818
     3  C   -0.158590
     4  C   -0.177768
     5  C   -0.179309
     6  C   -0.198898
     7  C   -0.128985
     8  N   -0.309705
     9  C    0.074865
    10  C   -0.376891
    11  C   -0.216707
    12  C   -0.190638
    13  C    0.047054
    14  C   -0.391091
    15  C   -0.166815
    16  C   -0.391979
    17  H    0.109562
    18  H    0.112212
    19  H    0.112489
    20  H    0.092616
    21  H    0.093219
    22  H    0.090024
    23  H    0.089419
    24  H    0.089923
    25  H    0.091990
    26  H    0.092969
    27  H    0.091654
    28  H    0.085156
    29  H    0.104782
    30  H    0.101535
    31  H    0.069019
    32  H    0.204409
    33  H    0.046251
    34  H    0.116499
    35  H    0.112151
    36  H    0.112487
    37  H    0.084273
    38  H    0.100790
    39  H    0.093242
    40  H    0.088143
    41  H    0.066563
    42  H    0.108606
    43  H    0.113661
    44  H    0.113619
    45  H    0.090023
    46  H    0.090092
    47  H    0.112093
    48  H    0.110622
    49  H    0.117245
 Sum of Mulliken charges =  -0.00000

 Dipole moment (field-independent basis, Debye):
    X=             -0.0645    Y=             -0.3971    Z=              0.5657  Tot=              0.6941
 Quadrupole moment (field-independent basis, Debye-Ang):
   XX=           -106.3952   YY=           -105.9895   ZZ=           -107.8299
   XY=             -0.2739   XZ=             -0.3959   YZ=             -0.2788

  Exact polarizability: 232.886  -0.115 157.006   0.914   1.179 144.992
 Approx polarizability: 241.107  -0.168 234.606  -0.162   0.462 232.267

                      1                      2                      3
                      A                      A                      A
 Frequencies --     15.2523                17.1404                26.0423
 Red. masses --      2.3746                 2.9722                 2.3022
 Frc consts  --      0.0003                 0.0005                 0.0009
 IR Inten    --      0.0414                 0.0470                 0.0433

                      4                      5                      6
                      A                      A                      A
 Frequencies --     41.1553                45.9370                69.9645
 Red. masses --      2.6899                 3.0224                 2.7694
 Frc consts  --      0.0027                 0.0038                 0.0080
 IR Inten    --      0.0829                 0.0929                 0.0618

                      7                      8                      9
                      A                      A                      A
 Frequencies --     80.6615                86.2204                96.0059
 Red. masses --      2.2892                 1.9562                 2.1233
 Frc consts  --      0.0088                 0.0086                 0.0115
 IR Inten    --      0.2111                 0.4588                 0.0144

                     10                     11                     12
                      A                      A                      A
 Frequencies --    107.2101               125.3046               142.0701
 Red. masses --      1.8533                 2.2568                 2.1873
 Frc consts  --      0.0126                 0.0209                 0.0260
 IR Inten    --      0.1673                 0.4895                 0.1819

                     13                     14                     15
                      A                      A                      A
 Frequencies --    146.0100               162.3146               166.6814
 Red. masses --      2.4035                 2.6506                 2.6481
 Frc consts  --      0.0302                 0.0411                 0.0433
 IR Inten    --      0.2133                 0.1003                 0.2184

                     16                     17                     18
                      A                      A                      A
 Frequencies --    208.3807               221.4860               242.2013
 Red. masses --      1.0615                 2.5875                 1.3490
 Frc consts  --      0.0272                 0.0748                 0.0466
 IR Inten    --      0.0635                 0.1100                 0.5020

                     19                     20                     21
                      A                      A                      A
 Frequencies --    247.0482               255.7182               260.6953
 Red. masses --      1.1204                 1.3146                 2.7213
 Frc consts  --      0.0403                 0.0506                 0.1090
 IR Inten    --      0.0046                 0.0504                 0.0346

                     22                     23                     24
                      A                      A                      A
 Frequencies --    292.9926               336.0588               353.5592
 Red. masses --      2.6445                 2.8212                 2.8207
 Frc consts  --      0.1338                 0.1877                 0.2077
 IR Inten    --      0.2898                 0.2256                 0.1132

                     25                     26                     27
                      A                      A                      A
 Frequencies --    406.2312               422.5717               442.7374
 Red. masses --      2.3618                 2.1662                 2.4005
 Frc consts  --      0.2296                 0.2279                 0.2772
 IR Inten    --      0.1582                 0.2787                 4.7565

                     28                     29                     30
                      A                      A                      A
 Frequencies --    455.4350               481.5569               534.4662
 Red. masses --      2.8865                 2.5350                 2.7263
 Frc consts  --      0.3528                 0.3464                 0.4588
 IR Inten    --      0.8817                 0.7115                 1.5084

                     31                     32                     33
                      A                      A                      A
 Frequencies --    551.8894               731.6296               741.3587
 Red. masses --      2.8448                 1.0620                 1.0863
 Frc consts  --      0.5105                 0.3349                 0.3518
 IR Inten    --      4.3074                 4.0226                 0.0603

                     34                     35                     36
                      A                      A                      A
 Frequencies --    755.2670               769.2133               774.1496
 Red. masses --      1.2731                 1.2352                 1.2645
 Frc consts  --      0.4279                 0.4306                 0.4465
 IR Inten    --      7.2638                24.0354                 6.3309

                     37                     38                     39
                      A                      A                      A
 Frequencies --    779.9901               830.4785               843.9767
 Red. masses --      1.2813                 1.7492                 1.2108
 Frc consts  --      0.4593                 0.7108                 0.5081
 IR Inten    --     22.7443                 0.3789                 2.0859

                     40                     41                     42
                      A                      A                      A
 Frequencies --    861.1374               898.3848               914.9451
 Red. masses --      2.3965                 1.9353                 2.0404
 Frc consts  --      1.0471                 0.9203                 1.0064
 IR Inten    --      0.8209                 1.0935                 1.6172

                     43                     44                     45
                      A                      A                      A
 Frequencies --    924.7726               931.4359               960.8461
 Red. masses --      1.3294                 1.2424                 1.9695
 Frc consts  --      0.6698                 0.6351                 1.0713
 IR Inten    --      0.3402                 0.6557                 0.4483

                     46                     47                     48
                      A                      A                      A
 Frequencies --    972.3125               998.1840              1008.6189
 Red. masses --      1.2067                 4.2174                 1.6936
 Frc consts  --      0.6721                 2.4758                 1.0151
 IR Inten    --      2.9899                 0.2053                 5.0676

                     49                     50                     51
                      A                      A                      A
 Frequencies --   1021.6750              1028.1579              1035.4884
 Red. masses --      1.2234                 2.2938                 2.9382
 Frc consts  --      0.7524                 1.4286                 1.8562
 IR Inten    --      0.8447                 3.1441                 0.7508

                     52                     53                     54
                      A                      A                      A
 Frequencies --   1047.4014              1053.9466              1063.6019
 Red. masses --      2.1063                 1.6839                 2.8355
 Frc consts  --      1.3614                 1.1021                 1.8899
 IR Inten    --      0.5988                 0.4994                 0.8394

                     55                     56                     57
                      A                      A                      A
 Frequencies --   1069.1732              1072.1219              1100.0002
 Red. masses --      2.2901                 2.2488                 2.1987
 Frc consts  --      1.5424                 1.5230                 1.5675
 IR Inten    --      0.0527                 0.0722                 4.9048

                     58                     59                     60
                      A                      A                      A
 Frequencies --   1116.1209              1140.1158              1151.9588
 Red. masses --      1.9594                 2.4743                 2.0875
 Frc consts  --      1.4381                 1.8950                 1.6321
 IR Inten    --      6.7072                 1.5404                11.7096

                     61                     62                     63
                      A                      A                      A
 Frequencies --   1169.9181              1175.4942              1195.1295
 Red. masses --      2.5549                 2.0020                 2.0662
 Frc consts  --      2.0603                 1.6299                 1.7388
 IR Inten    --     32.0326                 4.2358                 7.4316

                     64                     65                     66
                      A                      A                      A
 Frequencies --   1197.9121              1223.4691              1233.3129
 Red. masses --      1.9392                 1.5901                 1.4802
 Frc consts  --      1.6396                 1.4024                 1.3265
 IR Inten    --     19.4066                 7.8439                16.2758

                     67                     68                     69
                      A                      A                      A
 Frequencies --   1248.9077              1268.5672              1278.7911
 Red. masses --      1.3472                 1.3405                 1.2171
 Frc consts  --      1.2381                 1.2710                 1.1727
 IR Inten    --      0.9486                 5.2564                 0.7414

                     70                     71                     72
                      A                      A                      A
 Frequencies --   1296.2710              1302.1013              1308.2778
 Red. masses --      1.2515                 1.2525                 1.2116
 Frc consts  --      1.2390                 1.2512                 1.2218
 IR Inten    --      0.4841                 2.2237                 5.1691

                     73                     74                     75
                      A                      A                      A
 Frequencies --   1319.3545              1320.7033              1328.5460
 Red. masses --      1.2214                 1.0894                 1.1365
 Frc consts  --      1.2526                 1.1195                 1.1819
 IR Inten    --      1.7825                 0.5039                 0.9315

                     76                     77                     78
                      A                      A                      A
 Frequencies --   1332.0157              1335.5426              1350.3876
 Red. masses --      1.0886                 1.1049                 1.3134
 Frc consts  --      1.1380                 1.1611                 1.4111
 IR Inten    --      0.6723                 0.4613                12.7181

                     79                     80                     81
                      A                      A                      A
 Frequencies --   1365.5796              1379.2728              1380.2123
 Red. masses --      1.3598                 1.3640                 1.3939
 Frc consts  --      1.4941                 1.5288                 1.5644
 IR Inten    --     10.9108                 4.4466                 8.7074

                     82                     83                     84
                      A                      A                      A
 Frequencies --   1382.6884              1392.8699              1396.8617
 Red. masses --      1.4235                 1.4252                 1.4345
 Frc consts  --      1.6034                 1.6291                 1.6491
 IR Inten    --      0.5353                 0.1913                 5.8307

                     85                     86                     87
                      A                      A                      A
 Frequencies --   1401.4019              1407.5673              1412.1712
 Red. masses --      1.6170                 1.3328                 1.3131
 Frc consts  --      1.8710                 1.5558                 1.5428
 IR Inten    --      0.3274                19.1385                 1.6242

                     88                     89                     90
                      A                      A                      A
 Frequencies --   1413.2563              1414.3992              1416.0772
 Red. masses --      1.2668                 1.2566                 1.4516
 Frc consts  --      1.4907                 1.4812                 1.7150
 IR Inten    --      0.5411                 3.1365                 5.5518

                     91                     92                     93
                      A                      A                      A
 Frequencies --   1474.4154              1482.6314              1483.2668
 Red. masses --      1.0791                 1.0731                 1.0722
 Frc consts  --      1.3822                 1.3898                 1.3898
 IR Inten    --      0.0366                 0.4066                 0.0147

                     94                     95                     96
                      A                      A                      A
 Frequencies --   1483.6683              1488.1739              1490.2750
 Red. masses --      1.0745                 1.0722                 1.0720
 Frc consts  --      1.3936                 1.3991                 1.4027
 IR Inten    --      1.1598                 0.0927                 5.2592

                     97                     98                     99
                      A                      A                      A
 Frequencies --   1494.8356              1496.1213              1497.7397
 Red. masses --      1.0662                 1.0762                 1.0507
 Frc consts  --      1.4037                 1.4193                 1.3887
 IR Inten    --      4.3365                 0.6136                 2.4970

                    100                    101                    102
                      A                      A                      A
 Frequencies --   1498.7611              1499.7630              1504.7211
 Red. masses --      1.0696                 1.0403                 1.0676
 Frc consts  --      1.4156                 1.3787                 1.4243
 IR Inten    --      1.6276                 4.8757                 2.2499

                    103                    104                    105
                      A                      A                      A
 Frequencies --   1506.7489              1508.2152              1510.2107
 Red. masses --      1.0794                 1.0767                 1.2056
 Frc consts  --      1.4438                 1.4430                 1.6201
 IR Inten    --      2.7610                 7.3094                26.9376

                    106                    107                    108
                      A                      A                      A
 Frequencies --   1514.5716              1514.8623              1524.9549
 Red. masses --      1.0935                 1.0461                 1.0906
 Frc consts  --      1.4779                 1.4144                 1.4943
 IR Inten    --      2.6354                 7.4966                 5.3430

                    109                    110                    111
                      A                      A                      A
 Frequencies --   2882.7209              2899.2203              2982.5434
 Red. masses --      1.0801                 1.0732                 1.0801
 Frc consts  --      5.2884                 5.3151                 5.6612
 IR Inten    --     46.2813                84.5743                 6.3821

                    112                    113                    114
                      A                      A                      A
 Frequencies --   2996.9823              2999.6405              3000.3128
 Red. masses --      1.0616                 1.0592                 1.0596
 Frc consts  --      5.6180                 5.6153                 5.6199
 IR Inten    --      4.8379                 0.7314                 0.2732

                    115                    116                    117
                      A                      A                      A
 Frequencies --   3000.8340              3007.9074              3009.0135
 Red. masses --      1.0621                 1.0594                 1.0610
 Frc consts  --      5.6348                 5.6472                 5.6598
 IR Inten    --      2.1661                 6.2946                16.7251

                    118                    119                    120
                      A                      A                      A
 Frequencies --   3012.4247              3016.0693              3019.3417
 Red. masses --      1.0631                 1.0612                 1.0967
 Frc consts  --      5.6840                 5.6874                 5.8905
 IR Inten    --     71.1102                95.9772                 3.8067

                    121                    122                    123
                      A                      A                      A
 Frequencies --   3027.3893              3027.6888              3028.4519
 Red. masses --      1.0990                 1.0357                 1.0416
 Frc consts  --      5.9343                 5.5937                 5.6286
 IR Inten    --      1.6171                41.5429                17.6773

                    124                    125                    126
                      A                      A                      A
 Frequencies --   3031.6418              3036.3962              3038.4979
 Red. masses --      1.0394                 1.0663                 1.0919
 Frc consts  --      5.6283                 5.7921                 5.9397
 IR Inten    --     27.2841                15.2900                16.9478

                    127                    128                    129
                      A                      A                      A
 Frequencies --   3041.2601              3043.4092              3043.8498
 Red. masses --      1.0839                 1.0859                 1.0828
 Frc consts  --      5.9065                 5.9261                 5.9108
 IR Inten    --      6.6897                 3.4560                20.0535

                    130                    131                    132
                      A                      A                      A
 Frequencies --   3056.0828              3063.8709              3067.4218
 Red. masses --      1.1028                 1.1005                 1.1022
 Frc consts  --      6.0685                 6.0866                 6.1100
 IR Inten    --     14.7341                54.6104               149.6496

                    133                    134                    135
                      A                      A                      A
 Frequencies --   3093.7475              3095.4736              3096.4500
 Red. masses --      1.1020                 1.1004                 1.0962
 Frc consts  --      6.2145                 6.2122                 6.1927
 IR Inten    --     60.4572                31.3045                39.0808

                    136                    137                    138
                      A                      A                      A
 Frequencies --   3099.1887              3104.3479              3111.3248
 Red. masses --      1.1009                 1.1004                 1.1003
 Frc consts  --      6.2303                 6.2478                 6.2757
 IR Inten    --     40.2986                52.1696                38.3122

                    139                    140                    141
                      A                      A                      A
 Frequencies --   3112.2406              3116.1524              3497.4457
 Red. masses --      1.0998                 1.1004                 1.0732
 Frc consts  --      6.2763                 6.2957                 7.7346
 IR Inten    --     30.9644                35.0047                 1.3047

 - Thermochemistry -
 -------------------
 Temperature   298.150 Kelvin.  Pressure   1.00000 Atm.
 Atom     1 has atomic number  6 and mass  12.00000

 Molecular mass:   227.26130 amu.
 Principal axes and moments of inertia in atomic units:
                           1         2         3
     Eigenvalues --   910.73623********************
           X            1.00000   0.00070   0.00041
           Y           -0.00071   0.99998   0.00666
           Z           -0.00040  -0.00666   0.99998
 This molecule is an asymmetric top.
 Rotational symmetry number  1.
 Warning -- assumption of classical behavior for rotation
           may cause significant error
 Rotational temperatures (Kelvin)      0.09510     0.00429     0.00416
 Rotational constants (GHZ):           1.98163     0.08929     0.08675
 Zero-point vibrational energy    1207736.6 (Joules/Mol)
                                  288.65599 (Kcal/Mol)
 Warning -- explicit consideration of  31 degrees of freedom as
           vibrations may cause significant error
 Vibrational temperatures:     21.94    24.66    37.47    59.21    66.09
          (Kelvin)            100.66   116.05   124.05   138.13   154.25
                              180.29   204.41   210.08   233.53   239.82
                              299.81   318.67   348.47   355.45   367.92
                              375.08   421.55   483.51   508.69   584.48
                              607.99   637.00   655.27   692.85   768.98
                              794.05  1052.65  1066.65  1086.66  1106.73
                             1113.83  1122.23  1194.87  1214.29  1238.98
                             1292.58  1316.40  1330.54  1340.13  1382.44
                             1398.94  1436.16  1451.18  1469.96  1479.29
                             1489.84  1506.98  1516.39  1530.29  1538.30
                             1542.54  1582.65  1605.85  1640.37  1657.41
                             1683.25  1691.27  1719.52  1723.53  1760.30
                             1774.46  1796.90  1825.19  1839.90  1865.04
                             1873.43  1882.32  1898.26  1900.20  1911.48
                             1916.47  1921.55  1942.91  1964.76  1984.47
                             1985.82  1989.38  2004.03  2009.77  2016.30
                             2025.18  2031.80  2033.36  2035.01  2037.42
                             2121.35  2133.18  2134.09  2134.67  2141.15
                             2144.17  2150.74  2152.58  2154.91  2156.38
                             2157.82  2164.96  2167.88  2169.99  2172.86
                             2179.13  2179.55  2194.07  4147.59  4171.33
                             4291.21  4311.99  4315.81  4316.78  4317.53
                             4327.71  4329.30  4334.21  4339.45  4344.16
                             4355.74  4356.17  4357.27  4361.86  4368.70
                             4371.72  4375.69  4378.79  4379.42  4397.02
                             4408.23  4413.34  4451.21  4453.70  4455.10
                             4459.04  4466.46  4476.50  4477.82  4483.45
                             5032.04

 Zero-point correction=                           0.460003 (Hartree/Particle)
 Thermal correction to Energy=                    0.482033
 Thermal correction to Enthalpy=                  0.482978
 Thermal correction to Gibbs Free Energy=         0.405180
 Sum of electronic and zero-point Energies=           -645.838689
 Sum of electronic and thermal Energies=              -645.816658
 Sum of electronic and thermal Enthalpies=            -645.815714
 Sum of electronic and thermal Free Energies=         -645.893511

                     E (Thermal)             CV                S
                      KCal/Mol        Cal/Mol-Kelvin    Cal/Mol-Kelvin
 Total                  302.481             78.747            163.739
 Electronic               0.000              0.000              0.000
 Translational            0.889              2.981             42.165
 Rotational               0.889              2.981             34.303
 Vibrational            300.703             72.785             87.271
 Vibration     1          0.593              1.986              7.172
 Vibration     2          0.593              1.986              6.941
 Vibration     3          0.593              1.985              6.110
 Vibration     4          0.594              1.981              5.203
 Vibration     5          0.595              1.979              4.985
 Vibration     6          0.598              1.968              4.154
 Vibration     7          0.600              1.962              3.875
 Vibration     8          0.601              1.959              3.744
 Vibration     9          0.603              1.952              3.534
 Vibration    10          0.606              1.943              3.319
 Vibration    11          0.610              1.928              3.017
 Vibration    12          0.616              1.911              2.776
 Vibration    13          0.617              1.907              2.724
 Vibration    14          0.622              1.889              2.523
 Vibration    15          0.624              1.883              2.473
 Vibration    16          0.642              1.828              2.058
 Vibration    17          0.648              1.808              1.947
 Vibration    18          0.658              1.776              1.787
 Vibration    19          0.661              1.768              1.752
 Vibration    20          0.666              1.753              1.691
 Vibration    21          0.669              1.745              1.657
 Vibration    22          0.688              1.687              1.457
 Vibration    23          0.717              1.603              1.231
 Vibration    24          0.730              1.568              1.150
 Vibration    25          0.771              1.457              0.940
 Vibration    26          0.785              1.421              0.883
 Vibration    27          0.802              1.377              0.818
 Vibration    28          0.814              1.349              0.780
 Vibration    29          0.838              1.291              0.706
 Vibration    30          0.889              1.174              0.577
 Vibration    31          0.907              1.136              0.540

                           ! Non-Optimized Parameters !
 Normal termination of Gaussian 16 at Mon May 22 11:58:58 2023.
