 Gaussian 16, Revision A.03,
 Gaussian 16:  ES64L-G16RevA.03 25-Dec-2016

 -----------------------------
 # opt freq b3lyp/6-31g(2df,p)
 -----------------------------

 -------------------
 Title Card Required
 -------------------
 Symbolic Z-matrix:
 Charge =  0 Multiplicity = 1

 SCF Done:  E(RB3LYP) =  -663.928515583     A.U. after   24 cycles
 SCF Done:  E(RB3LYP) =  -664.025062143     A.U. after   14 cycles
 SCF Done:  E(RB3LYP) =  -664.154248842     A.U. after   14 cycles
 SCF Done:  E(RB3LYP) =  -664.196145529     A.U. after   13 cycles
 SCF Done:  E(RB3LYP) =  -664.226540997     A.U. after   11 cycles
 SCF Done:  E(RB3LYP) =  -664.312152051     A.U. after   12 cycles
 SCF Done:  E(RB3LYP) =  -664.399570411     A.U. after   14 cycles
 SCF Done:  E(RB3LYP) =  -664.462280896     A.U. after   12 cycles
 SCF Done:  E(RB3LYP) =  -664.510618075     A.U. after   12 cycles
 SCF Done:  E(RB3LYP) =  -664.541379425     A.U. after   12 cycles
 SCF Done:  E(RB3LYP) =  -664.620420532     A.U. after   10 cycles
 SCF Done:  E(RB3LYP) =  -664.620449619     A.U. after   10 cycles
 SCF Done:  E(RB3LYP) =  -664.620490236     A.U. after   10 cycles
 SCF Done:  E(RB3LYP) =  -664.620506678     A.U. after    9 cycles
 SCF Done:  E(RB3LYP) =  -664.620515722     A.U. after    7 cycles
 SCF Done:  E(RB3LYP) =  -664.620527228     A.U. after    9 cycles
 SCF Done:  E(RB3LYP) =  -664.620529781     A.U. after    9 cycles
 SCF Done:  E(RB3LYP) =  -664.620530216     A.U. after    6 cycles
 SCF Done:  E(RB3LYP) =  -664.620530370     A.U. after    6 cycles
 Optimization completed.
    -- Stationary point found.
 Normal termination of Gaussian 16 at Mon May 22 22:00:54 2023.

 ----------------------------------------------------------------------
 #N Geom=AllCheck Guess=TCheck SCRF=Check GenChk RB3LYP/6-31G(2df,p) Fr
 eq
 ----------------------------------------------------------------------

 Structure from the checkpoint file:  "CCCC1CdCCqCrdC2CCCCCqCC1rC2.chk"
 -------------------
 Title Card Required
 -------------------
 Charge =  0 Multiplicity = 1

                         Standard orientation:
 ---------------------------------------------------------------------
 Center     Atomic      Atomic             Coordinates (Angstroms)
 Number     Number       Type             X           Y           Z
 ---------------------------------------------------------------------
      1          6           0       -5.493123   -0.749116    0.290646
      2          6           0       -4.101892   -0.903508   -0.331501
      3          6           0       -3.222041    0.335289   -0.130490
      4          6           0       -1.836075    0.276427   -0.795702
      5          6           0       -1.107382    1.602918   -0.671445
      6          6           0        0.163850    1.688097   -1.117315
      7          6           0        1.213701    1.978473   -0.141480
      8          6           0        0.910666    2.929271    0.994798
      9          6           0        2.143690    0.982884   -0.047600
     10          6           0        2.791758    0.320485   -1.242165
     11          6           0        2.588897   -1.187108   -1.506855
     12          6           0        2.873997   -2.111256   -0.315061
     13          6           0        1.769540   -2.201017    0.754746
     14          6           0        1.304916   -0.886003    1.455909
     15          6           0       -0.223848   -0.559218    1.209065
     16          6           0       -0.873804   -0.825103   -0.193685
     17          6           0        2.324027    0.315920    1.291801
     18          1           0       -6.104601   -1.643062    0.132054
     19          1           0       -6.028703    0.102584   -0.143497
     20          1           0       -5.426779   -0.578999    1.371210
     21          1           0       -4.202187   -1.104245   -1.406666
     22          1           0       -3.613416   -1.787085    0.096921
     23          1           0       -3.099832    0.523537    0.946031
     24          1           0       -3.751891    1.211828   -0.527459
     25          1           0       -1.976408    0.001774   -1.851543
     26          1           0       -1.411890    2.213349    0.175744
     27          1           0        0.447485    1.022815   -1.929295
     28          1           0        0.563587    3.883151    0.583200
     29          1           0        1.807224    3.130292    1.584968
     30          1           0        0.127967    2.580763    1.679280
     31          1           0        3.874394    0.468144   -1.092497
     32          1           0        2.552869    0.880154   -2.151960
     33          1           0        3.263190   -1.457484   -2.329078
     34          1           0        1.577111   -1.375703   -1.883681
     35          1           0        3.825469   -1.817202    0.147343
     36          1           0        3.036636   -3.127731   -0.694003
     37          1           0        2.127430   -2.896402    1.523149
     38          1           0        0.900921   -2.693030    0.303011
     39          1           0        1.351496   -1.090320    2.532217
     40          1           0       -0.399699    0.474147    1.514356
     41          1           0       -0.772582   -1.165998    1.938607
     42          1           0       -1.409022   -1.781155   -0.163017
     43          1           0       -0.086103   -0.963690   -0.933628
     44          1           0        3.337879   -0.073130    1.450690
     45          1           0        2.128191    1.018091    2.105543
 ---------------------------------------------------------------------

 SCF Done:  E(RB3LYP) =  -664.620530370     A.U. after    1 cycles

 The electronic state is 1-A.
 Alpha  occ. eigenvalues --  -10.18813 -10.18717 -10.18398 -10.18010 -10.17930
 Alpha  occ. eigenvalues --  -10.17900 -10.17789 -10.17666 -10.17507 -10.17433
 Alpha  occ. eigenvalues --  -10.17412 -10.17395 -10.17380 -10.17165 -10.16991
 Alpha  occ. eigenvalues --  -10.16850 -10.16015  -0.84343  -0.80951  -0.79700
 Alpha  occ. eigenvalues --   -0.77137  -0.76046  -0.73519  -0.70566  -0.69794
 Alpha  occ. eigenvalues --   -0.66000  -0.65306  -0.63421  -0.59728  -0.58499
 Alpha  occ. eigenvalues --   -0.55628  -0.54605  -0.51133  -0.50018  -0.47432
 Alpha  occ. eigenvalues --   -0.46321  -0.45761  -0.44920  -0.44121  -0.43123
 Alpha  occ. eigenvalues --   -0.42380  -0.42125  -0.40734  -0.40495  -0.40053
 Alpha  occ. eigenvalues --   -0.38836  -0.38175  -0.37491  -0.36753  -0.36555
 Alpha  occ. eigenvalues --   -0.36156  -0.34895  -0.34516  -0.34017  -0.33164
 Alpha  occ. eigenvalues --   -0.32695  -0.31962  -0.31633  -0.31044  -0.30560
 Alpha  occ. eigenvalues --   -0.30081  -0.29198  -0.28777  -0.25775  -0.17291
 Alpha virt. eigenvalues --   -0.00940   0.01401   0.07678   0.08681   0.09358
 Alpha virt. eigenvalues --    0.10618   0.11216   0.11873   0.12541   0.12932
 Alpha virt. eigenvalues --    0.13191   0.13954   0.14664   0.15429   0.15593

 Mulliken charges:
               1
     1  C   -0.378643
     2  C   -0.177162
     3  C   -0.169908
     4  C   -0.040320
     5  C   -0.100477
     6  C   -0.162295
     7  C    0.119317
     8  C   -0.483172
     9  C    0.233454
    10  C   -0.285966
    11  C   -0.190102
    12  C   -0.194477
    13  C   -0.204583
    14  C    0.026157
    15  C   -0.215421
    16  C   -0.197896
    17  C   -0.318224
    18  H    0.108775
    19  H    0.113154
    20  H    0.112076
    21  H    0.092647
    22  H    0.097131
    23  H    0.090777
    24  H    0.092995
    25  H    0.072065
    26  H    0.075665
    27  H    0.084981
    28  H    0.126982
    29  H    0.123580
    30  H    0.127333
    31  H    0.102403
    32  H    0.103856
    33  H    0.090077
    34  H    0.104932
    35  H    0.092918
    36  H    0.089461
    37  H    0.090474
    38  H    0.101555
    39  H    0.075092
    40  H    0.103981
    41  H    0.091411
    42  H    0.087759
    43  H    0.102825
    44  H    0.088056
    45  H    0.096752
 Sum of Mulliken charges =  -0.00000

 Dipole moment (field-independent basis, Debye):
    X=              0.5707    Y=             -0.9117    Z=              0.6221  Tot=              1.2425
 Quadrupole moment (field-independent basis, Debye-Ang):
   XX=           -107.7295   YY=           -109.5743   ZZ=           -107.0331
   XY=             -0.3524   XZ=             -0.1856   YZ=              2.4072

  Exact polarizability: 224.763 -10.781 173.951   1.097   2.147 153.104
 Approx polarizability: 335.350 -26.588 263.171   6.787  -0.015 246.664

                      1                      2                      3
                      A                      A                      A
 Frequencies --     46.6326                64.9435                71.0526
 Red. masses --      3.3016                 1.6011                 3.3404
 Frc consts  --      0.0042                 0.0040                 0.0099
 IR Inten    --      0.0158                 0.0023                 0.0294

                      4                      5                      6
                      A                      A                      A
 Frequencies --    120.3641               138.4070               151.4207
 Red. masses --      2.8471                 1.9895                 1.9452
 Frc consts  --      0.0243                 0.0225                 0.0263
 IR Inten    --      0.0443                 0.3187                 0.3160

                      7                      8                      9
                      A                      A                      A
 Frequencies --    160.4851               192.6090               206.1139
 Red. masses --      2.3972                 2.1887                 2.5633
 Frc consts  --      0.0364                 0.0478                 0.0642
 IR Inten    --      0.2268                 0.1040                 0.1227

                     10                     11                     12
                      A                      A                      A
 Frequencies --    219.3466               243.9620               247.3563
 Red. masses --      3.0369                 2.0273                 1.1923
 Frc consts  --      0.0861                 0.0711                 0.0430
 IR Inten    --      0.0085                 0.2633                 0.0802

                     13                     14                     15
                      A                      A                      A
 Frequencies --    266.3978               300.1563               318.6803
 Red. masses --      2.2387                 3.1479                 2.4326
 Frc consts  --      0.0936                 0.1671                 0.1456
 IR Inten    --      0.6154                 0.1176                 3.7013

                     16                     17                     18
                      A                      A                      A
 Frequencies --    324.7948               329.5737               350.4777
 Red. masses --      2.0525                 2.2441                 2.9064
 Frc consts  --      0.1276                 0.1436                 0.2103
 IR Inten    --      0.5139                 1.5488                 5.9015

                     19                     20                     21
                      A                      A                      A
 Frequencies --    364.8075               391.3210               417.1057
 Red. masses --      3.1116                 2.9794                 2.2589
 Frc consts  --      0.2440                 0.2688                 0.2315
 IR Inten    --      0.7611                 1.2532                 6.1002

                     22                     23                     24
                      A                      A                      A
 Frequencies --    443.8515               466.7589               491.7360
 Red. masses --      2.1565                 2.4690                 2.1949
 Frc consts  --      0.2503                 0.3169                 0.3127
 IR Inten    --      4.1811                 0.2026                 1.8884

                     25                     26                     27
                      A                      A                      A
 Frequencies --    509.4432               558.0811               571.3985
 Red. masses --      2.5304                 2.6951                 3.1721
 Frc consts  --      0.3869                 0.4946                 0.6102
 IR Inten    --      5.5248                 1.3811                 4.8407

                     28                     29                     30
                      A                      A                      A
 Frequencies --    594.4410               649.2706               705.4873
 Red. masses --      3.0108                 2.8416                 2.5939
 Frc consts  --      0.6268                 0.7058                 0.7606
 IR Inten    --     11.4825                13.0571                 8.4251

                     31                     32                     33
                      A                      A                      A
 Frequencies --    727.1583               746.0292               775.7791
 Red. masses --      1.9654                 1.3388                 1.8457
 Frc consts  --      0.6123                 0.4390                 0.6545
 IR Inten    --      0.5889                 3.9258                 2.1570

                     34                     35                     36
                      A                      A                      A
 Frequencies --    800.9640               819.4725               832.7016
 Red. masses --      2.4061                 1.7153                 2.1610
 Frc consts  --      0.9095                 0.6787                 0.8829
 IR Inten    --      0.9550               129.7681                 8.2618

                     37                     38                     39
                      A                      A                      A
 Frequencies --    852.6344               867.8163               880.7422
 Red. masses --      2.0994                 2.2110                 1.7106
 Frc consts  --      0.8992                 0.9811                 0.7818
 IR Inten    --      2.0631                 4.4373                 0.4549

                     40                     41                     42
                      A                      A                      A
 Frequencies --    903.6908               918.3869               923.0462
 Red. masses --      1.7934                 2.0958                 2.0221
 Frc consts  --      0.8629                 1.0415                 1.0151
 IR Inten    --      1.0373                 7.8059                10.5404

                     43                     44                     45
                      A                      A                      A
 Frequencies --    940.0521               948.4760               976.9432
 Red. masses --      2.1236                 2.2421                 1.9941
 Frc consts  --      1.1057                 1.1884                 1.1213
 IR Inten    --      7.8865                 0.6465                 3.0478

                     46                     47                     48
                      A                      A                      A
 Frequencies --    992.5253              1017.0065              1024.1786
 Red. masses --      2.0752                 2.1108                 2.3738
 Frc consts  --      1.2045                 1.2863                 1.4670
 IR Inten    --      0.4235                 2.0205                 5.0613

                     49                     50                     51
                      A                      A                      A
 Frequencies --   1033.4563              1043.8533              1051.7893
 Red. masses --      1.3838                 1.6332                 2.0330
 Frc consts  --      0.8708                 1.0485                 1.3251
 IR Inten    --      7.2231                 2.0980                 4.3051

                     52                     53                     54
                      A                      A                      A
 Frequencies --   1063.5710              1077.3719              1083.9495
 Red. masses --      1.8522                 1.8481                 2.0097
 Frc consts  --      1.2344                 1.2639                 1.3912
 IR Inten    --      7.8027                 3.4964                 3.3678

                     55                     56                     57
                      A                      A                      A
 Frequencies --   1096.4163              1117.8892              1131.3322
 Red. masses --      2.0597                 1.9120                 1.8142
 Frc consts  --      1.4588                 1.4078                 1.3681
 IR Inten    --      3.0529                 1.6856                 4.8640

                     58                     59                     60
                      A                      A                      A
 Frequencies --   1143.2389              1177.7536              1180.1242
 Red. masses --      2.0845                 1.8092                 1.8803
 Frc consts  --      1.6052                 1.4785                 1.5429
 IR Inten    --      3.1065                 2.4975                 3.4176

                     61                     62                     63
                      A                      A                      A
 Frequencies --   1209.4902              1227.5037              1234.2302
 Red. masses --      1.2884                 1.2071                 1.2762
 Frc consts  --      1.1105                 1.0716                 1.1454
 IR Inten    --      3.1217                 2.5410                 0.5601

                     64                     65                     66
                      A                      A                      A
 Frequencies --   1242.7408              1245.9646              1266.6730
 Red. masses --      1.3417                 1.3641                 1.3036
 Frc consts  --      1.2209                 1.2477                 1.2323
 IR Inten    --      1.5751                 3.6755                 1.3346

                     67                     68                     69
                      A                      A                      A
 Frequencies --   1269.5925              1286.3162              1299.8046
 Red. masses --      1.2123                 1.3212                 1.6037
 Frc consts  --      1.1513                 1.2880                 1.5963
 IR Inten    --      6.3884                 2.7414                 2.4797

                     70                     71                     72
                      A                      A                      A
 Frequencies --   1307.1198              1309.6299              1317.8042
 Red. masses --      1.3474                 1.2846                 1.2627
 Frc consts  --      1.3564                 1.2981                 1.2920
 IR Inten    --      3.5469                 2.5357                 5.6616

                     73                     74                     75
                      A                      A                      A
 Frequencies --   1333.4475              1346.8514              1349.3392
 Red. masses --      1.1245                 1.2672                 1.2850
 Frc consts  --      1.1780                 1.3544                 1.3784
 IR Inten    --      1.0809                 1.4708                 0.3071

                     76                     77                     78
                      A                      A                      A
 Frequencies --   1352.7069              1357.4328              1363.1553
 Red. masses --      1.3014                 1.3489                 1.4581
 Frc consts  --      1.4031                 1.4644                 1.5964
 IR Inten    --      2.0859                 4.2095                14.5780

                     79                     80                     81
                      A                      A                      A
 Frequencies --   1368.5029              1377.7281              1387.9664
 Red. masses --      1.3634                 1.3040                 1.3579
 Frc consts  --      1.5044                 1.4583                 1.5413
 IR Inten    --      0.3427                 1.9650                 9.7323

                     82                     83                     84
                      A                      A                      A
 Frequencies --   1390.3175              1397.7548              1399.9633
 Red. masses --      1.3429                 1.5970                 1.4366
 Frc consts  --      1.5294                 1.8383                 1.6589
 IR Inten    --      1.8773                 3.7079                 0.8753

                     85                     86                     87
                      A                      A                      A
 Frequencies --   1406.2813              1412.1588              1475.5691
 Red. masses --      1.2559                 1.2360                 1.0888
 Frc consts  --      1.4633                 1.4523                 1.3967
 IR Inten    --      4.2673                 0.5660                 3.1432

                     88                     89                     90
                      A                      A                      A
 Frequencies --   1479.2412              1481.5214              1483.2330
 Red. masses --      1.0870                 1.0739                 1.0681
 Frc consts  --      1.4014                 1.3888                 1.3845
 IR Inten    --      2.0348                 2.7260                 1.0644

                     91                     92                     93
                      A                      A                      A
 Frequencies --   1485.1874              1488.2266              1493.2353
 Red. masses --      1.0866                 1.0876                 1.0637
 Frc consts  --      1.4121                 1.4193                 1.3974
 IR Inten    --      1.1265                 7.9068                 1.9576

                     94                     95                     96
                      A                      A                      A
 Frequencies --   1494.5856              1497.5317              1499.6126
 Red. masses --      1.0642                 1.0784                 1.0729
 Frc consts  --      1.4006                 1.4249                 1.4215
 IR Inten    --      1.4328                13.0831                 4.7126

                     97                     98                     99
                      A                      A                      A
 Frequencies --   1499.8469              1508.1867              1510.5202
 Red. masses --      1.0550                 1.0929                 1.0818
 Frc consts  --      1.3983                 1.4647                 1.4543
 IR Inten    --      6.0933                 1.7852                 2.7500

                    100                    101                    102
                      A                      A                      A
 Frequencies --   1607.5104              1616.7870              2968.3041
 Red. masses --      5.4338                 5.0546                 1.0727
 Frc consts  --      8.2729                 7.7847                 5.5688
 IR Inten    --     15.9223                 9.5608                26.6249

                    103                    104                    105
                      A                      A                      A
 Frequencies --   2988.2047              3001.2064              3002.4226
 Red. masses --      1.0806                 1.0622                 1.0778
 Frc consts  --      5.6853                 5.6372                 5.7243
 IR Inten    --     18.8631                15.6531                 1.0006

                    106                    107                    108
                      A                      A                      A
 Frequencies --   3012.8614              3017.1139              3020.2489
 Red. masses --      1.0652                 1.0625                 1.0629
 Frc consts  --      5.6971                 5.6986                 5.7125
 IR Inten    --      1.3283                23.9375                46.8912

                    109                    110                    111
                      A                      A                      A
 Frequencies --   3022.2757              3024.9107              3026.9839
 Red. masses --      1.0520                 1.0603                 1.0621
 Frc consts  --      5.6616                 5.7163                 5.7339
 IR Inten    --     37.6889                19.4710                 8.7362

                    112                    113                    114
                      A                      A                      A
 Frequencies --   3027.7683              3030.9317              3035.8405
 Red. masses --      1.0497                 1.0830                 1.0803
 Frc consts  --      5.6698                 5.8617                 5.8662
 IR Inten    --     63.3630                 7.4991                74.8225

                    115                    116                    117
                      A                      A                      A
 Frequencies --   3046.6454              3049.7727              3058.0072
 Red. masses --      1.0828                 1.0858                 1.0981
 Frc consts  --      5.9217                 5.9502                 6.0499
 IR Inten    --     26.7399                82.1209                41.5084

                    118                    119                    120
                      A                      A                      A
 Frequencies --   3060.1541              3067.9609              3072.1217
 Red. masses --      1.0981                 1.0953                 1.0926
 Frc consts  --      6.0590                 6.0742                 6.0757
 IR Inten    --     37.1535                36.1883                59.3975

                    121                    122                    123
                      A                      A                      A
 Frequencies --   3077.4677              3094.3324              3094.4483
 Red. masses --      1.0940                 1.0981                 1.0971
 Frc consts  --      6.1043                 6.1945                 6.1896
 IR Inten    --     20.0309                27.1376                44.0383

                    124                    125                    126
                      A                      A                      A
 Frequencies --   3099.2217              3106.8298              3120.5924
 Red. masses --      1.1010                 1.0880                 1.0985
 Frc consts  --      6.2305                 6.1874                 6.3028
 IR Inten    --     37.6792                20.5110                14.8461

                    127                    128                    129
                      A                      A                      A
 Frequencies --   3127.4836              3139.7303              3147.8832
 Red. masses --      1.0875                 1.0869                 1.0844
 Frc consts  --      6.2670                 6.3131                 6.3311
 IR Inten    --      9.0934                10.6659                32.8251

 - Thermochemistry -
 -------------------
 Temperature   298.150 Kelvin.  Pressure   1.00000 Atm.
 Atom     1 has atomic number  6 and mass  12.00000

 Molecular mass:   232.21910 amu.
 Principal axes and moments of inertia in atomic units:
                           1         2         3
     Eigenvalues --  2508.224926074.543127043.45495
           X            0.99999  -0.00082  -0.00337
           Y            0.00093   0.99942   0.03399
           Z            0.00334  -0.03399   0.99942
 This molecule is an asymmetric top.
 Rotational symmetry number  1.
 Warning -- assumption of classical behavior for rotation
           may cause significant error
 Rotational temperatures (Kelvin)      0.03453     0.01426     0.01230
 Rotational constants (GHZ):           0.71953     0.29710     0.25623
 Zero-point vibrational energy    1086734.5 (Joules/Mol)
                                  259.73578 (Kcal/Mol)
 Warning -- explicit consideration of  28 degrees of freedom as
           vibrations may cause significant error
 Vibrational temperatures:     67.09    93.44   102.23   173.18   199.14
          (Kelvin)            217.86   230.90   277.12   296.55   315.59
                              351.01   355.89   383.29   431.86   458.51
                              467.31   474.18   504.26   524.88   563.02
                              600.12   638.60   671.56   707.50   732.98
                              802.95   822.12   855.27   934.16  1015.04
                             1046.22  1073.37  1116.17  1152.41  1179.04
                             1198.07  1226.75  1248.59  1267.19  1300.21
                             1321.35  1328.06  1352.53  1364.65  1405.60
                             1428.02  1463.25  1473.56  1486.91  1501.87
                             1513.29  1530.24  1550.10  1559.56  1577.50
                             1608.39  1627.73  1644.87  1694.52  1697.94
                             1740.19  1766.10  1775.78  1788.03  1792.67
                             1822.46  1826.66  1850.72  1870.13  1880.65
                             1884.27  1896.03  1918.53  1937.82  1941.40
                             1946.24  1953.04  1961.28  1968.97  1982.24
                             1996.97  2000.36  2011.06  2014.23  2023.33
                             2031.78  2123.01  2128.30  2131.58  2134.04
                             2136.85  2141.23  2148.43  2150.38  2154.61
                             2157.61  2157.95  2169.94  2173.30  2312.85
                             2326.20  4270.73  4299.36  4318.07  4319.82
                             4334.84  4340.95  4345.46  4348.38  4352.17
                             4355.15  4356.28  4360.83  4367.90  4383.44
                             4387.94  4399.79  4402.88  4414.11  4420.10
                             4427.79  4452.05  4452.22  4459.09  4470.04
                             4489.84  4499.75  4517.37  4529.10

 Zero-point correction=                           0.413915 (Hartree/Particle)
 Thermal correction to Energy=                    0.431285
 Thermal correction to Enthalpy=                  0.432229
 Thermal correction to Gibbs Free Energy=         0.370439
 Sum of electronic and zero-point Energies=           -664.206615
 Sum of electronic and thermal Energies=              -664.189246
 Sum of electronic and thermal Enthalpies=            -664.188301
 Sum of electronic and thermal Free Energies=         -664.250091

                     E (Thermal)             CV                S
                      KCal/Mol        Cal/Mol-Kelvin    Cal/Mol-Kelvin
 Total                  270.635             70.728            130.047
 Electronic               0.000              0.000              0.000
 Translational            0.889              2.981             42.229
 Rotational               0.889              2.981             33.039
 Vibrational            268.858             64.766             54.778
 Vibration     1          0.595              1.979              4.955
 Vibration     2          0.597              1.971              4.301
 Vibration     3          0.598              1.968              4.124
 Vibration     4          0.609              1.932              3.095
 Vibration     5          0.614              1.915              2.826
 Vibration     6          0.619              1.901              2.654
 Vibration     7          0.622              1.891              2.544
 Vibration     8          0.635              1.850              2.203
 Vibration     9          0.641              1.831              2.078
 Vibration    10          0.647              1.812              1.964
 Vibration    11          0.659              1.773              1.774
 Vibration    12          0.661              1.767              1.749
 Vibration    13          0.672              1.735              1.619
 Vibration    14          0.693              1.673              1.416
 Vibration    15          0.705              1.638              1.317
 Vibration    16          0.709              1.626              1.286
 Vibration    17          0.712              1.616              1.262
 Vibration    18          0.727              1.574              1.164
 Vibration    19          0.738              1.545              1.102
 Vibration    20          0.759              1.489              0.995
 Vibration    21          0.780              1.433              0.902
 Vibration    22          0.803              1.374              0.815
 Vibration    23          0.824              1.324              0.747
 Vibration    24          0.847              1.268              0.679
 Vibration    25          0.865              1.229              0.635
 Vibration    26          0.914              1.122              0.528
 Vibration    27          0.928              1.093              0.502
 Vibration    28          0.952              1.044              0.459

                           ! Non-Optimized Parameters !
 Normal termination of Gaussian 16 at Tue May 23 05:10:25 2023.
