 Gaussian 16, Revision A.03,
 Gaussian 16:  ES64L-G16RevA.03 25-Dec-2016

 -----------------------------
 # opt freq b3lyp/6-31g(2df,p)
 -----------------------------

 -------------------
 Title Card Required
 -------------------
 Symbolic Z-matrix:
 Charge =  0 Multiplicity = 1

 SCF Done:  E(RB3LYP) =  -705.466744266     A.U. after   12 cycles
 SCF Done:  E(RB3LYP) =  -705.479436641     A.U. after   10 cycles
 SCF Done:  E(RB3LYP) =  -705.482186372     A.U. after   10 cycles
 SCF Done:  E(RB3LYP) =  -705.483570312     A.U. after   10 cycles
 SCF Done:  E(RB3LYP) =  -705.483959638     A.U. after    9 cycles
 SCF Done:  E(RB3LYP) =  -705.484089298     A.U. after   10 cycles
 SCF Done:  E(RB3LYP) =  -705.484116301     A.U. after    8 cycles
 SCF Done:  E(RB3LYP) =  -705.484139720     A.U. after    8 cycles
 SCF Done:  E(RB3LYP) =  -705.484168560     A.U. after   10 cycles
 SCF Done:  E(RB3LYP) =  -705.484245531     A.U. after    8 cycles
 SCF Done:  E(RB3LYP) =  -705.484722674     A.U. after   10 cycles
 SCF Done:  E(RB3LYP) =  -705.484727597     A.U. after    8 cycles
 SCF Done:  E(RB3LYP) =  -705.484759284     A.U. after    8 cycles
 SCF Done:  E(RB3LYP) =  -705.484759511     A.U. after    6 cycles
 SCF Done:  E(RB3LYP) =  -705.484760003     A.U. after    8 cycles
 SCF Done:  E(RB3LYP) =  -705.484767446     A.U. after    8 cycles
 SCF Done:  E(RB3LYP) =  -705.484769961     A.U. after    8 cycles
 SCF Done:  E(RB3LYP) =  -705.484770329     A.U. after    7 cycles
 SCF Done:  E(RB3LYP) =  -705.484770427     A.U. after    6 cycles
 Optimization completed.
    -- Stationary point found.
 Normal termination of Gaussian 16 at Wed May 24 04:26:53 2023.

 ----------------------------------------------------------------------
 #N Geom=AllCheck Guess=TCheck SCRF=Check GenChk RB3LYP/6-31G(2df,p) Fr
 eq
 ----------------------------------------------------------------------

 Structure from the checkpoint file:  "CCCCCCCCCCqCCrCOCqCrC.chk"
 -------------------
 Title Card Required
 -------------------
 Charge =  0 Multiplicity = 1

                         Standard orientation:
 ---------------------------------------------------------------------
 Center     Atomic      Atomic             Coordinates (Angstroms)
 Number     Number       Type             X           Y           Z
 ---------------------------------------------------------------------
      1          6           0       -9.047395   -0.611239    0.032838
      2          6           0       -7.780446    0.190041   -0.278693
      3          6           0       -6.490792   -0.547233    0.097883
      4          6           0       -5.217586    0.247378   -0.210916
      5          6           0       -3.928305   -0.490342    0.165986
      6          6           0       -2.654960    0.304177   -0.143824
      7          6           0       -1.365839   -0.433528    0.233645
      8          6           0       -0.092071    0.360556   -0.079801
      9          6           0        1.187223   -0.387151    0.314080
     10          6           0        2.515298    0.292985   -0.069516
     11          6           0        2.723476    1.682558    0.579579
     12          6           0        2.290042    2.869785   -0.288778
     13          6           0        3.671517   -0.649716    0.283999
     14          8           0        4.874459   -0.118115   -0.232444
     15          6           0        6.068457   -0.757936    0.202792
     16          6           0        6.260607   -2.127162   -0.457761
     17          6           0        7.212182    0.197247   -0.121767
     18          1           0       -9.950330   -0.059160   -0.246681
     19          1           0       -9.116557   -0.842763    1.101712
     20          1           0       -9.057642   -1.562756   -0.510650
     21          1           0       -7.815088    1.151298    0.251269
     22          1           0       -7.756485    0.436607   -1.348602
     23          1           0       -6.456216   -1.509884   -0.431704
     24          1           0       -6.514578   -0.794549    1.168690
     25          1           0       -5.253057    1.209869    0.318652
     26          1           0       -5.194630    0.494263   -1.281713
     27          1           0       -3.893086   -1.453061   -0.363140
     28          1           0       -3.950867   -0.736687    1.236906
     29          1           0       -2.690375    1.267127    0.384807
     30          1           0       -2.632081    0.549970   -1.214836
     31          1           0       -1.331454   -1.397728   -0.292823
     32          1           0       -1.387336   -0.676848    1.305341
     33          1           0       -0.138009    1.324985    0.440641
     34          1           0       -0.064588    0.592640   -1.153462
     35          1           0        1.160015   -1.384726   -0.146461
     36          1           0        1.177901   -0.558771    1.400670
     37          1           0        2.540695    0.414761   -1.161705
     38          1           0        3.789401    1.797470    0.798957
     39          1           0        2.200333    1.714516    1.544966
     40          1           0        2.856493    2.887083   -1.226313
     41          1           0        2.473563    3.818902    0.225887
     42          1           0        1.227855    2.833334   -0.546981
     43          1           0        3.472855   -1.650160   -0.130674
     44          1           0        3.746222   -0.761214    1.380827
     45          1           0        6.016146   -0.897212    1.296692
     46          1           0        6.294659   -2.019299   -1.546876
     47          1           0        5.450554   -2.817474   -0.206255
     48          1           0        7.199066   -2.582748   -0.125784
     49          1           0        7.271653    0.363237   -1.202220
     50          1           0        8.168017   -0.212322    0.218280
     51          1           0        7.052825    1.163701    0.363671
 ---------------------------------------------------------------------

 SCF Done:  E(RB3LYP) =  -705.484770427     A.U. after    1 cycles

 The electronic state is 1-A.
 Alpha  occ. eigenvalues --  -19.12937 -10.22866 -10.21652 -10.17683 -10.17419
 Alpha  occ. eigenvalues --  -10.17374 -10.17284 -10.17256 -10.17219 -10.17200
 Alpha  occ. eigenvalues --  -10.17187 -10.17168 -10.17077 -10.16905 -10.16857
 Alpha  occ. eigenvalues --  -10.16746 -10.16377  -1.02286  -0.81458  -0.80267
 Alpha  occ. eigenvalues --   -0.78365  -0.76811  -0.74946  -0.72266  -0.70067
 Alpha  occ. eigenvalues --   -0.68472  -0.65988  -0.62317  -0.60915  -0.58216
 Alpha  occ. eigenvalues --   -0.57146  -0.57082  -0.56632  -0.55173  -0.49183
 Alpha  occ. eigenvalues --   -0.47974  -0.46767  -0.45794  -0.45391  -0.44487
 Alpha  occ. eigenvalues --   -0.42944  -0.42747  -0.42210  -0.41080  -0.40574
 Alpha  occ. eigenvalues --   -0.39970  -0.39284  -0.38786  -0.38320  -0.38000
 Alpha  occ. eigenvalues --   -0.37307  -0.36981  -0.35755  -0.35258  -0.34628
 Alpha  occ. eigenvalues --   -0.34293  -0.34157  -0.33488  -0.32730  -0.32338
 Alpha  occ. eigenvalues --   -0.31813  -0.31630  -0.31521  -0.31448  -0.31200
 Alpha  occ. eigenvalues --   -0.30682  -0.29604  -0.28622  -0.24632
 Alpha virt. eigenvalues --    0.08436   0.08989   0.09581   0.10391   0.10697
 Alpha virt. eigenvalues --    0.10865   0.11913   0.12060   0.12625   0.12959
 Alpha virt. eigenvalues --    0.13534   0.13965   0.14800   0.15010   0.15248

 Mulliken charges:
               1
     1  C   -0.378954
     2  C   -0.162613
     3  C   -0.158122
     4  C   -0.177772
     5  C   -0.180176
     6  C   -0.181244
     7  C   -0.179549
     8  C   -0.195555
     9  C   -0.190633
    10  C    0.010698
    11  C   -0.173673
    12  C   -0.385339
    13  C   -0.081300
    14  O   -0.261831
    15  C    0.162595
    16  C   -0.392190
    17  C   -0.388904
    18  H    0.109358
    19  H    0.112171
    20  H    0.112193
    21  H    0.092694
    22  H    0.092722
    23  H    0.089358
    24  H    0.089326
    25  H    0.090049
    26  H    0.090106
    27  H    0.090044
    28  H    0.089951
    29  H    0.090405
    30  H    0.090581
    31  H    0.090207
    32  H    0.090245
    33  H    0.100125
    34  H    0.091839
    35  H    0.087447
    36  H    0.089647
    37  H    0.074486
    38  H    0.106704
    39  H    0.083136
    40  H    0.117576
    41  H    0.106227
    42  H    0.115371
    43  H    0.083040
    44  H    0.077995
    45  H    0.061136
    46  H    0.120387
    47  H    0.116376
    48  H    0.112371
    49  H    0.121698
    50  H    0.110105
    51  H    0.119486
 Sum of Mulliken charges =  -0.00000

 Dipole moment (field-independent basis, Debye):
    X=              0.1131    Y=             -0.7682    Z=              0.5192  Tot=              0.9341
 Quadrupole moment (field-independent basis, Debye-Ang):
   XX=           -110.5680   YY=           -112.8878   ZZ=           -111.4696
   XY=             -4.3529   XZ=              2.7873   YZ=              0.7582

  Exact polarizability: 238.086  -1.033 168.874  -0.328  -0.779 150.422
 Approx polarizability: 249.755  -0.654 242.839  -0.430   0.052 242.645

                      1                      2                      3
                      A                      A                      A
 Frequencies --     15.9798                25.4252                25.8679
 Red. masses --      3.5910                 3.4100                 2.0673
 Frc consts  --      0.0005                 0.0013                 0.0008
 IR Inten    --      0.0030                 0.0941                 0.0700

                      4                      5                      6
                      A                      A                      A
 Frequencies --     33.1349                44.5178                61.7411
 Red. masses --      2.2007                 3.0272                 2.7950
 Frc consts  --      0.0014                 0.0035                 0.0063
 IR Inten    --      0.0016                 0.0412                 0.0498

                      7                      8                      9
                      A                      A                      A
 Frequencies --     74.6784                82.3138                92.0023
 Red. masses --      2.8545                 2.4922                 1.8331
 Frc consts  --      0.0094                 0.0099                 0.0091
 IR Inten    --      0.2235                 0.0064                 0.1050

                     10                     11                     12
                      A                      A                      A
 Frequencies --    109.0195               135.4552               137.3051
 Red. masses --      2.5042                 2.2399                 2.1914
 Frc consts  --      0.0175                 0.0242                 0.0243
 IR Inten    --      0.2289                 0.1292                 0.0616

                     13                     14                     15
                      A                      A                      A
 Frequencies --    150.1269               160.2946               164.3238
 Red. masses --      3.9297                 2.1078                 2.1923
 Frc consts  --      0.0522                 0.0319                 0.0349
 IR Inten    --      0.4536                 0.0098                 2.1576

                     16                     17                     18
                      A                      A                      A
 Frequencies --    168.9527               193.3014               208.2627
 Red. masses --      1.9848                 2.1980                 1.0745
 Frc consts  --      0.0334                 0.0484                 0.0275
 IR Inten    --      0.0411                 0.0957                 0.1139

                     19                     20                     21
                      A                      A                      A
 Frequencies --    220.1749               247.2044               251.8695
 Red. masses --      1.3550                 1.1208                 1.3787
 Frc consts  --      0.0387                 0.0404                 0.0515
 IR Inten    --      0.2322                 0.0010                 0.5475

                     22                     23                     24
                      A                      A                      A
 Frequencies --    266.0610               281.1833               300.0832
 Red. masses --      2.0090                 2.8589                 2.5769
 Frc consts  --      0.0838                 0.1332                 0.1367
 IR Inten    --      0.2414                 0.5132                 0.1778

                     25                     26                     27
                      A                      A                      A
 Frequencies --    332.1938               370.0300               391.7108
 Red. masses --      2.8189                 2.7354                 2.3811
 Frc consts  --      0.1833                 0.2207                 0.2153
 IR Inten    --      0.1671                 0.3046                 0.3668

                     28                     29                     30
                      A                      A                      A
 Frequencies --    434.1021               452.5648               470.4718
 Red. masses --      3.0222                 2.5115                 3.0717
 Frc consts  --      0.3355                 0.3031                 0.4006
 IR Inten    --      2.5915                 1.6619                 0.0641

                     31                     32                     33
                      A                      A                      A
 Frequencies --    486.9340               542.9722               561.8545
 Red. masses --      2.6675                 2.6189                 2.7398
 Frc consts  --      0.3726                 0.4549                 0.5096
 IR Inten    --      1.2976                 1.0567                 0.3735

                     34                     35                     36
                      A                      A                      A
 Frequencies --    731.1225               734.1356               744.5306
 Red. masses --      1.0596                 1.0727                 1.1097
 Frc consts  --      0.3337                 0.3406                 0.3624
 IR Inten    --      4.8608                 0.2270                 1.4847

                     37                     38                     39
                      A                      A                      A
 Frequencies --    766.7059               772.2521               805.9127
 Red. masses --      1.1525                 1.3758                 1.5185
 Frc consts  --      0.3992                 0.4834                 0.5811
 IR Inten    --      2.4406                 4.3594                 0.1946

                     40                     41                     42
                      A                      A                      A
 Frequencies --    829.0352               843.5900               893.9237
 Red. masses --      1.8515                 1.7466                 1.2741
 Frc consts  --      0.7498                 0.7323                 0.5999
 IR Inten    --      2.1756                 3.6895                 0.1681

                     43                     44                     45
                      A                      A                      A
 Frequencies --    897.4816               925.0528               930.8226
 Red. masses --      1.9542                 1.2516                 2.0146
 Frc consts  --      0.9274                 0.6310                 1.0284
 IR Inten    --      1.1162                 0.4044                11.4120

                     46                     47                     48
                      A                      A                      A
 Frequencies --    944.9716               956.7445               977.4269
 Red. masses --      1.6247                 1.4127                 1.7702
 Frc consts  --      0.8548                 0.7619                 0.9964
 IR Inten    --      4.8895                 1.0619                 0.5105

                     49                     50                     51
                      A                      A                      A
 Frequencies --    992.0538              1000.7593              1011.7183
 Red. masses --      3.9270                 1.8701                 2.4372
 Frc consts  --      2.2771                 1.1035                 1.4698
 IR Inten    --      0.1061                 4.1270                 1.0284

                     52                     53                     54
                      A                      A                      A
 Frequencies --   1024.3806              1031.8652              1042.3234
 Red. masses --      1.4457                 2.1673                 2.7082
 Frc consts  --      0.8938                 1.3596                 1.7336
 IR Inten    --      0.2705                 0.3089                 1.3029

                     55                     56                     57
                      A                      A                      A
 Frequencies --   1059.8073              1064.6621              1066.3528
 Red. masses --      2.3606                 2.5303                 1.2570
 Frc consts  --      1.5622                 1.6898                 0.8422
 IR Inten    --      0.4772                 4.8663                 1.8181

                     58                     59                     60
                      A                      A                      A
 Frequencies --   1070.4635              1073.6586              1113.1887
 Red. masses --      2.1653                 2.2868                 3.3791
 Frc consts  --      1.4619                 1.5531                 2.4671
 IR Inten    --      0.0778                 2.5914                80.8385

                     61                     62                     63
                      A                      A                      A
 Frequencies --   1119.7147              1144.2861              1151.1481
 Red. masses --      2.3731                 2.7083                 2.3481
 Frc consts  --      1.7530                 2.0894                 1.8333
 IR Inten    --      1.1536                 3.5186                61.4295

                     64                     65                     66
                      A                      A                      A
 Frequencies --   1162.5141              1175.2501              1191.6891
 Red. masses --      2.1371                 2.4277                 1.9856
 Frc consts  --      1.7017                 1.9756                 1.6614
 IR Inten    --      9.2637               105.8987                33.4499

                     67                     68                     69
                      A                      A                      A
 Frequencies --   1200.8522              1216.8966              1232.0991
 Red. masses --      1.9981                 1.7734                 1.3243
 Frc consts  --      1.6976                 1.5472                 1.1845
 IR Inten    --     12.4126                 0.7727                 7.4888

                     70                     71                     72
                      A                      A                      A
 Frequencies --   1248.5277              1262.4462              1270.8761
 Red. masses --      1.4566                 1.2185                 1.2603
 Frc consts  --      1.3378                 1.1442                 1.1993
 IR Inten    --      0.4137                 2.2000                 0.8892

                     73                     74                     75
                      A                      A                      A
 Frequencies --   1282.5164              1299.5782              1309.2915
 Red. masses --      1.3235                 1.2454                 1.2263
 Frc consts  --      1.2826                 1.2393                 1.2386
 IR Inten    --      0.4995                 0.1796                 3.1390

                     76                     77                     78
                      A                      A                      A
 Frequencies --   1321.4818              1324.4970              1327.4941
 Red. masses --      1.1554                 1.0638                 1.1996
 Frc consts  --      1.1888                 1.0996                 1.2455
 IR Inten    --      2.2234                 0.5099                 0.5317

                     79                     80                     81
                      A                      A                      A
 Frequencies --   1333.4854              1336.8882              1339.6663
 Red. masses --      1.1175                 1.1258                 1.1135
 Frc consts  --      1.1707                 1.1855                 1.1775
 IR Inten    --      1.8771                 1.3251                 0.7900

                     82                     83                     84
                      A                      A                      A
 Frequencies --   1352.9334              1361.1475              1367.6659
 Red. masses --      1.2790                 1.2815                 1.3368
 Frc consts  --      1.3793                 1.3989                 1.4732
 IR Inten    --      1.8254                34.6430                 4.1771

                     85                     86                     87
                      A                      A                      A
 Frequencies --   1373.3693              1385.9961              1393.6677
 Red. masses --      1.2455                 1.4361                 1.5121
 Frc consts  --      1.3841                 1.6254                 1.7304
 IR Inten    --     18.8897                 0.7363                 0.7779

                     88                     89                     90
                      A                      A                      A
 Frequencies --   1396.7876              1400.7678              1402.2989
 Red. masses --      1.3445                 1.6281                 1.5891
 Frc consts  --      1.5455                 1.8822                 1.8411
 IR Inten    --     17.3195                 0.2261                 1.0296

                     91                     92                     93
                      A                      A                      A
 Frequencies --   1408.8056              1412.3857              1413.2564
 Red. masses --      1.5299                 1.2394                 1.2622
 Frc consts  --      1.7890                 1.4567                 1.4853
 IR Inten    --      0.2889                 7.9297                 1.3651

                     94                     95                     96
                      A                      A                      A
 Frequencies --   1413.7138              1432.5347              1478.3287
 Red. masses --      1.2441                 1.3910                 1.0774
 Frc consts  --      1.4649                 1.6818                 1.3873
 IR Inten    --      6.9979                 2.6776                 0.5602

                     97                     98                     99
                      A                      A                      A
 Frequencies --   1480.3162              1481.2715              1482.4926
 Red. masses --      1.0498                 1.0730                 1.0750
 Frc consts  --      1.3554                 1.3872                 1.3920
 IR Inten    --      1.0974                 0.0309                 0.2539

                    100                    101                    102
                      A                      A                      A
 Frequencies --   1484.5327              1485.4516              1488.6975
 Red. masses --      1.0697                 1.0504                 1.0757
 Frc consts  --      1.3890                 1.3656                 1.4047
 IR Inten    --      0.2850                 0.2262                 0.8172

                    103                    104                    105
                      A                      A                      A
 Frequencies --   1491.0387              1494.8171              1496.6526
 Red. masses --      1.0653                 1.0525                 1.0795
 Frc consts  --      1.3954                 1.3857                 1.4247
 IR Inten    --      2.2258                 4.3767                 0.1236

                    106                    107                    108
                      A                      A                      A
 Frequencies --   1499.7312              1500.7983              1505.6904
 Red. masses --      1.0403                 1.0510                 1.0817
 Frc consts  --      1.3786                 1.3948                 1.4448
 IR Inten    --      4.8594                 1.4933                 0.7352

                    109                    110                    111
                      A                      A                      A
 Frequencies --   1507.6157              1508.8263              1512.2364
 Red. masses --      1.0600                 1.0597                 1.0916
 Frc consts  --      1.4195                 1.4214                 1.4708
 IR Inten    --      3.6743                 1.4434                 0.7742

                    112                    113                    114
                      A                      A                      A
 Frequencies --   1516.4486              1521.1706              2940.1340
 Red. masses --      1.0970                 1.0890                 1.0650
 Frc consts  --      1.4863                 1.4847                 5.4241
 IR Inten    --      3.2161                 5.4462                14.4389

                    115                    116                    117
                      A                      A                      A
 Frequencies --   2950.4812              2986.5827              2993.9833
 Red. masses --      1.0795                 1.0874                 1.0637
 Frc consts  --      5.5368                 5.7144                 5.6179
 IR Inten    --     63.5287                20.2228                21.8172

                    118                    119                    120
                      A                      A                      A
 Frequencies --   2997.3633              2997.8136              3000.1881
 Red. masses --      1.0576                 1.0577                 1.0581
 Frc consts  --      5.5980                 5.6002                 5.6113
 IR Inten    --      0.0732                 2.3717                 4.0234

                    121                    122                    123
                      A                      A                      A
 Frequencies --   3002.4960              3005.9178              3009.1221
 Red. masses --      1.0590                 1.0820                 1.0609
 Frc consts  --      5.6249                 5.7603                 5.6598
 IR Inten    --      0.0196                 2.9183                 3.0728

                    124                    125                    126
                      A                      A                      A
 Frequencies --   3014.4853              3016.4670              3017.1677
 Red. masses --      1.0631                 1.0703                 1.0657
 Frc consts  --      5.6917                 5.7379                 5.7157
 IR Inten    --      2.3549                18.2553               188.0744

                    127                    128                    129
                      A                      A                      A
 Frequencies --   3017.6120              3020.4373              3026.9900
 Red. masses --      1.0962                 1.0968                 1.0962
 Frc consts  --      5.8813                 5.8953                 5.9179
 IR Inten    --      5.1614                 6.3595                 9.9267

                    130                    131                    132
                      A                      A                      A
 Frequencies --   3027.5718              3029.7248              3034.2942
 Red. masses --      1.0357                 1.0904                 1.0417
 Frc consts  --      5.5932                 5.8969                 5.6509
 IR Inten    --     43.3449                27.3132                47.8543

                    133                    134                    135
                      A                      A                      A
 Frequencies --   3035.8228              3038.6060              3041.4801
 Red. masses --      1.0359                 1.1032                 1.0352
 Frc consts  --      5.6252                 6.0014                 5.6424
 IR Inten    --     18.8922                 1.3568                15.8875

                    136                    137                    138
                      A                      A                      A
 Frequencies --   3050.2937              3060.6389              3068.4784
 Red. masses --      1.1046                 1.1048                 1.1040
 Frc consts  --      6.0553                 6.0976                 6.1243
 IR Inten    --      2.7785                38.5349               166.5688

                    139                    140                    141
                      A                      A                      A
 Frequencies --   3073.5030              3093.6727              3095.9371
 Red. masses --      1.0937                 1.1020                 1.1013
 Frc consts  --      6.0874                 6.2142                 6.2192
 IR Inten    --      8.2219                60.0290                39.4659

                    142                    143                    144
                      A                      A                      A
 Frequencies --   3098.9720              3106.1206              3112.2034
 Red. masses --      1.1009                 1.1016                 1.1012
 Frc consts  --      6.2295                 6.2621                 6.2843
 IR Inten    --     40.4210                 6.9778                22.5177

                    145                    146                    147
                      A                      A                      A
 Frequencies --   3112.7250              3115.0945              3120.5722
 Red. masses --      1.0999                 1.1013                 1.1020
 Frc consts  --      6.2789                 6.2965                 6.3228
 IR Inten    --     55.0515                43.3018                28.5983

 - Thermochemistry -
 -------------------
 Temperature   298.150 Kelvin.  Pressure   1.00000 Atm.
 Atom     1 has atomic number  6 and mass  12.00000

 Molecular mass:   242.26097 amu.
 Principal axes and moments of inertia in atomic units:
                           1         2         3
     Eigenvalues --  1236.02302********************
           X            1.00000   0.00023   0.00011
           Y           -0.00023   0.99999  -0.00503
           Z           -0.00011   0.00503   0.99999
 This molecule is an asymmetric top.
 Rotational symmetry number  1.
 Warning -- assumption of classical behavior for rotation
           may cause significant error
 Rotational temperatures (Kelvin)      0.07007     0.00393     0.00377
 Rotational constants (GHZ):           1.46012     0.08182     0.07853
 Zero-point vibrational energy    1248977.0 (Joules/Mol)
                                  298.51267 (Kcal/Mol)
 Warning -- explicit consideration of  33 degrees of freedom as
           vibrations may cause significant error
 Vibrational temperatures:     22.99    36.58    37.22    47.67    64.05
          (Kelvin)             88.83   107.45   118.43   132.37   156.85
                              194.89   197.55   216.00   230.63   236.43
                              243.09   278.12   299.64   316.78   355.67
                              362.38   382.80   404.56   431.75   477.95
                              532.39   563.58   624.58   651.14   676.90
                              700.59   781.22   808.38  1051.92  1056.26
                             1071.21  1103.12  1111.10  1159.53  1192.80
                             1213.74  1286.16  1291.28  1330.94  1339.25
                             1359.60  1376.54  1406.30  1427.34  1439.87
                             1455.64  1473.86  1484.62  1499.67  1524.83
                             1531.81  1534.24  1540.16  1544.76  1601.63
                             1611.02  1646.37  1656.25  1672.60  1690.92
                             1714.57  1727.76  1750.84  1772.72  1796.35
                             1816.38  1828.51  1845.26  1869.80  1883.78
                             1901.32  1905.66  1909.97  1918.59  1923.48
                             1927.48  1946.57  1958.39  1967.77  1975.97
                             1994.14  2005.18  2009.67  2015.39  2017.60
                             2026.96  2032.11  2033.36  2034.02  2061.10
                             2126.99  2129.84  2131.22  2132.98  2135.91
                             2137.23  2141.90  2145.27  2150.71  2153.35
                             2157.78  2159.31  2166.35  2169.12  2170.86
                             2175.77  2181.83  2188.63  4230.20  4245.08
                             4297.03  4307.67  4312.54  4313.19  4316.60
                             4319.92  4324.85  4329.46  4337.17  4340.02
                             4341.03  4341.67  4345.74  4355.16  4356.00
                             4359.10  4365.67  4367.87  4371.88  4376.01
                             4388.69  4403.58  4414.86  4422.09  4451.10
                             4454.36  4458.73  4469.01  4477.77  4478.52
                             4481.93  4489.81

 Zero-point correction=                           0.475710 (Hartree/Particle)
 Thermal correction to Energy=                    0.498885
 Thermal correction to Enthalpy=                  0.499829
 Thermal correction to Gibbs Free Energy=         0.419638
 Sum of electronic and zero-point Energies=           -705.009060
 Sum of electronic and thermal Energies=              -704.985885
 Sum of electronic and thermal Enthalpies=            -704.984941
 Sum of electronic and thermal Free Energies=         -705.065132

                     E (Thermal)             CV                S
                      KCal/Mol        Cal/Mol-Kelvin    Cal/Mol-Kelvin
 Total                  313.055             82.783            168.776
 Electronic               0.000              0.000              0.000
 Translational            0.889              2.981             42.356
 Rotational               0.889              2.981             34.793
 Vibrational            311.278             76.821             91.628
 Vibration     1          0.593              1.986              7.080
 Vibration     2          0.593              1.985              6.158
 Vibration     3          0.593              1.985              6.123
 Vibration     4          0.594              1.983              5.632
 Vibration     5          0.595              1.980              5.047
 Vibration     6          0.597              1.973              4.401
 Vibration     7          0.599              1.966              4.026
 Vibration     8          0.600              1.961              3.835
 Vibration     9          0.602              1.955              3.617
 Vibration    10          0.606              1.942              3.286
 Vibration    11          0.613              1.918              2.867
 Vibration    12          0.614              1.916              2.841
 Vibration    13          0.618              1.903              2.671
 Vibration    14          0.622              1.891              2.546
 Vibration    15          0.623              1.886              2.499
 Vibration    16          0.625              1.881              2.447
 Vibration    17          0.635              1.849              2.196
 Vibration    18          0.642              1.828              2.059
 Vibration    19          0.647              1.810              1.958
 Vibration    20          0.661              1.767              1.750
 Vibration    21          0.664              1.760              1.717
 Vibration    22          0.672              1.735              1.622
 Vibration    23          0.681              1.708              1.526
 Vibration    24          0.693              1.674              1.416
 Vibration    25          0.714              1.611              1.249
 Vibration    26          0.742              1.534              1.080
 Vibration    27          0.759              1.488              0.994
 Vibration    28          0.795              1.396              0.845
 Vibration    29          0.811              1.355              0.788
 Vibration    30          0.827              1.316              0.736
 Vibration    31          0.843              1.279              0.692
 Vibration    32          0.898              1.155              0.559
 Vibration    33          0.918              1.114              0.520

                           ! Non-Optimized Parameters !
 Normal termination of Gaussian 16 at Wed May 24 08:55:13 2023.
