 Gaussian 16, Revision A.03,
 Gaussian 16:  ES64L-G16RevA.03 25-Dec-2016

 -----------------------------
 # opt freq b3lyp/6-31g(2df,p)
 -----------------------------

 -------------------
 Title Card Required
 -------------------
 Symbolic Z-matrix:
 Charge =  0 Multiplicity = 1

 SCF Done:  E(RB3LYP) =  -705.446686319     A.U. after   12 cycles
 SCF Done:  E(RB3LYP) =  -705.459775614     A.U. after   11 cycles
 SCF Done:  E(RB3LYP) =  -705.464552423     A.U. after   10 cycles
 SCF Done:  E(RB3LYP) =  -705.466185881     A.U. after    9 cycles
 SCF Done:  E(RB3LYP) =  -705.466645158     A.U. after    9 cycles
 SCF Done:  E(RB3LYP) =  -705.466874330     A.U. after   10 cycles
 SCF Done:  E(RB3LYP) =  -705.467022021     A.U. after    9 cycles
 SCF Done:  E(RB3LYP) =  -705.467141945     A.U. after    9 cycles
 SCF Done:  E(RB3LYP) =  -705.467168018     A.U. after    9 cycles
 SCF Done:  E(RB3LYP) =  -705.467200082     A.U. after    9 cycles
 SCF Done:  E(RB3LYP) =  -705.467217644     A.U. after    9 cycles
 SCF Done:  E(RB3LYP) =  -705.467222799     A.U. after    8 cycles
 SCF Done:  E(RB3LYP) =  -705.467223774     A.U. after    8 cycles
 SCF Done:  E(RB3LYP) =  -705.467223268     A.U. after    8 cycles
 SCF Done:  E(RB3LYP) =  -705.467225251     A.U. after    8 cycles
 SCF Done:  E(RB3LYP) =  -705.467225584     A.U. after    6 cycles
 SCF Done:  E(RB3LYP) =  -705.467225781     A.U. after    6 cycles
 SCF Done:  E(RB3LYP) =  -705.467225830     A.U. after    6 cycles
 Optimization completed.
    -- Stationary point found.
 Normal termination of Gaussian 16 at Tue May 23 20:50:34 2023.

 ----------------------------------------------------------------------
 #N Geom=AllCheck Guess=TCheck SCRF=Check GenChk RB3LYP/6-31G(2df,p) Fr
 eq
 ----------------------------------------------------------------------

 Structure from the checkpoint file:  "CCCCqCrCCCqCCCrqCCCrCOC.chk"
 -------------------
 Title Card Required
 -------------------
 Charge =  0 Multiplicity = 1

                         Standard orientation:
 ---------------------------------------------------------------------
 Center     Atomic      Atomic             Coordinates (Angstroms)
 Number     Number       Type             X           Y           Z
 ---------------------------------------------------------------------
      1          6           0        6.280152    0.573356    0.035807
      2          6           0        5.126866   -0.234160   -0.567810
      3          6           0        3.766504    0.133986    0.037339
      4          6           0        2.545694   -0.556916   -0.601358
      5          6           0        2.602608   -2.082754   -0.430672
      6          6           0        1.242049    0.039245   -0.025864
      7          6           0       -0.017023   -0.311418   -0.830966
      8          6           0       -1.391051    0.160410   -0.279762
      9          6           0       -1.752480   -0.509799    1.070855
     10          6           0       -1.902342   -2.037572    1.075187
     11          6           0       -2.231234   -2.576705    2.471549
     12          6           0       -1.473038    1.713513   -0.158140
     13          6           0       -0.997481    2.388199    1.138338
     14          6           0       -1.082866    3.915650    1.043923
     15          6           0       -2.416913   -0.247105   -1.359312
     16          8           0       -3.732133   -0.014989   -0.897181
     17          6           0       -4.713128   -0.301283   -1.863132
     18          1           0        7.240404    0.295002   -0.409853
     19          1           0        6.355032    0.408603    1.116614
     20          1           0        6.137744    1.648151   -0.123364
     21          1           0        5.326350   -1.302810   -0.426869
     22          1           0        5.095028   -0.070737   -1.653655
     23          1           0        3.633633    1.221424   -0.046273
     24          1           0        3.778533   -0.084176    1.115633
     25          1           0        2.566403   -0.333753   -1.679423
     26          1           0        2.628314   -2.351619    0.632729
     27          1           0        3.491492   -2.510495   -0.902704
     28          1           0        1.734357   -2.576300   -0.876510
     29          1           0        1.353387    1.128458    0.007028
     30          1           0        1.136622   -0.290638    1.016234
     31          1           0       -0.062827   -1.397195   -0.971140
     32          1           0        0.100794    0.109249   -1.840201
     33          1           0       -2.697289   -0.076483    1.417550
     34          1           0       -0.999221   -0.233589    1.817440
     35          1           0       -0.983171   -2.516388    0.716297
     36          1           0       -2.699067   -2.333027    0.383304
     37          1           0       -1.440159   -2.330449    3.188989
     38          1           0       -2.345587   -3.665431    2.463599
     39          1           0       -3.164627   -2.146164    2.850981
     40          1           0       -2.523107    1.993661   -0.302065
     41          1           0       -0.924543    2.149263   -1.005845
     42          1           0        0.030485    2.100565    1.381604
     43          1           0       -1.613927    2.049267    1.978264
     44          1           0       -0.440607    4.301035    0.243759
     45          1           0       -0.771427    4.391994    1.979041
     46          1           0       -2.106610    4.241793    0.828170
     47          1           0       -2.297576   -1.309509   -1.627223
     48          1           0       -2.232051    0.337981   -2.277224
     49          1           0       -5.687841   -0.094723   -1.413861
     50          1           0       -4.683528   -1.357054   -2.176848
     51          1           0       -4.596251    0.324136   -2.762626
 ---------------------------------------------------------------------

 SCF Done:  E(RB3LYP) =  -705.467225830     A.U. after    1 cycles

 The electronic state is 1-A.
 Alpha  occ. eigenvalues --  -19.13764 -10.22235 -10.21692 -10.18603 -10.18062
 Alpha  occ. eigenvalues --  -10.17470 -10.17165 -10.17125 -10.17114 -10.17020
 Alpha  occ. eigenvalues --  -10.16949 -10.16929 -10.16753 -10.16589 -10.16581
 Alpha  occ. eigenvalues --  -10.16534 -10.16455  -1.03024  -0.82687  -0.80600
 Alpha  occ. eigenvalues --   -0.76832  -0.76365  -0.74869  -0.71343  -0.68713
 Alpha  occ. eigenvalues --   -0.67302  -0.66434  -0.65157  -0.61722  -0.59088
 Alpha  occ. eigenvalues --   -0.58054  -0.57529  -0.55210  -0.51987  -0.48395
 Alpha  occ. eigenvalues --   -0.47549  -0.46938  -0.46603  -0.45824  -0.44195
 Alpha  occ. eigenvalues --   -0.43546  -0.43186  -0.42706  -0.41690  -0.40830
 Alpha  occ. eigenvalues --   -0.40085  -0.39358  -0.38700  -0.38171  -0.37889
 Alpha  occ. eigenvalues --   -0.37149  -0.36694  -0.36101  -0.35651  -0.34892
 Alpha  occ. eigenvalues --   -0.34095  -0.33769  -0.33202  -0.32987  -0.32345
 Alpha  occ. eigenvalues --   -0.32182  -0.32047  -0.31461  -0.31100  -0.30625
 Alpha  occ. eigenvalues --   -0.29266  -0.28597  -0.28423  -0.25175
 Alpha virt. eigenvalues --    0.07254   0.08838   0.09507   0.09969   0.10524
 Alpha virt. eigenvalues --    0.11707   0.11996   0.12335   0.13008   0.13458
 Alpha virt. eigenvalues --    0.13842   0.14318   0.14767   0.15580   0.15991

 Mulliken charges:
               1
     1  C   -0.378072
     2  C   -0.177132
     3  C   -0.163787
     4  C    0.032028
     5  C   -0.392187
     6  C   -0.214725
     7  C   -0.228346
     8  C    0.189271
     9  C   -0.181869
    10  C   -0.194574
    11  C   -0.379258
    12  C   -0.198419
    13  C   -0.185094
    14  C   -0.382364
    15  C   -0.078622
    16  O   -0.239358
    17  C   -0.227861
    18  H    0.109124
    19  H    0.112932
    20  H    0.112350
    21  H    0.097991
    22  H    0.091774
    23  H    0.086035
    24  H    0.087732
    25  H    0.064725
    26  H    0.109838
    27  H    0.114425
    28  H    0.113398
    29  H    0.096607
    30  H    0.092596
    31  H    0.095428
    32  H    0.085788
    33  H    0.106536
    34  H    0.091594
    35  H    0.093026
    36  H    0.102632
    37  H    0.110007
    38  H    0.106407
    39  H    0.114583
    40  H    0.106890
    41  H    0.079779
    42  H    0.097521
    43  H    0.099332
    44  H    0.109948
    45  H    0.106997
    46  H    0.113316
    47  H    0.081872
    48  H    0.078854
    49  H    0.124958
    50  H    0.102553
    51  H    0.102820
 Sum of Mulliken charges =  -0.00000

 Dipole moment (field-independent basis, Debye):
    X=              0.0496    Y=             -0.3836    Z=             -0.9806  Tot=              1.0542
 Quadrupole moment (field-independent basis, Debye-Ang):
   XX=           -110.9432   YY=           -114.0585   ZZ=           -110.6972
   XY=              0.9514   XZ=              3.5690   YZ=              0.4021

  Exact polarizability: 208.367   3.661 178.608   3.140  -0.178 161.160
 Approx polarizability: 251.589   0.289 245.557   0.077  -0.040 245.315

                      1                      2                      3
                      A                      A                      A
 Frequencies --     16.4699                27.9359                49.0716
 Red. masses --      2.6623                 3.0626                 2.7341
 Frc consts  --      0.0004                 0.0014                 0.0039
 IR Inten    --      0.0078                 0.0050                 0.0476

                      4                      5                      6
                      A                      A                      A
 Frequencies --     55.9671                63.5477                69.3917
 Red. masses --      2.8894                 2.0678                 1.9195
 Frc consts  --      0.0053                 0.0049                 0.0054
 IR Inten    --      0.0220                 0.1556                 0.0312

                      7                      8                      9
                      A                      A                      A
 Frequencies --     76.6506                82.7738                94.7120
 Red. masses --      1.9584                 2.9495                 2.7153
 Frc consts  --      0.0068                 0.0119                 0.0144
 IR Inten    --      0.2052                 0.2605                 1.2518

                     10                     11                     12
                      A                      A                      A
 Frequencies --    107.4378               116.0095               125.9081
 Red. masses --      2.0251                 2.1254                 2.0013
 Frc consts  --      0.0138                 0.0169                 0.0187
 IR Inten    --      0.4129                 0.8206                 1.2051

                     13                     14                     15
                      A                      A                      A
 Frequencies --    156.2139               175.1431               203.9884
 Red. masses --      2.4601                 1.9694                 2.6995
 Frc consts  --      0.0354                 0.0356                 0.0662
 IR Inten    --      0.1292                 0.0328                 0.0508

                     16                     17                     18
                      A                      A                      A
 Frequencies --    216.6499               229.7897               232.1646
 Red. masses --      1.9011                 1.9348                 1.3629
 Frc consts  --      0.0526                 0.0602                 0.0433
 IR Inten    --      0.6777                 0.4708                 0.1950

                     19                     20                     21
                      A                      A                      A
 Frequencies --    244.5201               249.8572               253.7520
 Red. masses --      1.3392                 1.1563                 1.3666
 Frc consts  --      0.0472                 0.0425                 0.0518
 IR Inten    --      1.1099                 0.0724                 1.4866

                     22                     23                     24
                      A                      A                      A
 Frequencies --    256.5511               297.2785               308.3177
 Red. masses --      1.3456                 2.6398                 3.1578
 Frc consts  --      0.0522                 0.1375                 0.1769
 IR Inten    --      0.2471                 0.6832                 0.4230

                     25                     26                     27
                      A                      A                      A
 Frequencies --    321.3944               329.4201               335.9240
 Red. masses --      2.5690                 2.6897                 2.3805
 Frc consts  --      0.1563                 0.1720                 0.1583
 IR Inten    --      0.3326                 0.1130                 0.3978

                     28                     29                     30
                      A                      A                      A
 Frequencies --    353.0948               394.4640               448.1061
 Red. masses --      2.5343                 2.4022                 2.3239
 Frc consts  --      0.1862                 0.2202                 0.2749
 IR Inten    --      0.5570                 0.6211                 0.4581

                     31                     32                     33
                      A                      A                      A
 Frequencies --    471.2922               508.3688               537.1970
 Red. masses --      3.0067                 2.4854                 2.5885
 Frc consts  --      0.3935                 0.3784                 0.4401
 IR Inten    --      0.9382                 0.5723                 0.6855

                     34                     35                     36
                      A                      A                      A
 Frequencies --    622.7739               741.8600               742.9618
 Red. masses --      2.5595                 1.1108                 1.1135
 Frc consts  --      0.5849                 0.3602                 0.3621
 IR Inten    --      0.1687                 1.2903                 0.9122

                     37                     38                     39
                      A                      A                      A
 Frequencies --    746.6805               763.5000               783.2342
 Red. masses --      1.2325                 1.2972                 2.6342
 Frc consts  --      0.4049                 0.4455                 0.9521
 IR Inten    --      9.4030                 3.8379                 0.1664

                     40                     41                     42
                      A                      A                      A
 Frequencies --    840.2030               859.5066               865.1901
 Red. masses --      1.8426                 1.3992                 1.4323
 Frc consts  --      0.7664                 0.6090                 0.6317
 IR Inten    --      0.4120                 0.0584                 0.8368

                     43                     44                     45
                      A                      A                      A
 Frequencies --    873.5840               894.4767               902.7705
 Red. masses --      1.5191                 1.7308                 1.7961
 Frc consts  --      0.6831                 0.8159                 0.8624
 IR Inten    --      2.2011                 0.8788                 1.0268

                     46                     47                     48
                      A                      A                      A
 Frequencies --    924.3995               942.4978               953.3380
 Red. masses --      1.9818                 1.6743                 2.1648
 Frc consts  --      0.9978                 0.8763                 1.1592
 IR Inten    --      1.4790                 4.5748                 8.5726

                     49                     50                     51
                      A                      A                      A
 Frequencies --    963.8326               977.2585              1012.8955
 Red. masses --      2.1064                 1.5303                 2.0981
 Frc consts  --      1.1529                 0.8611                 1.2683
 IR Inten    --      3.3186                 1.0501                 8.6936

                     52                     53                     54
                      A                      A                      A
 Frequencies --   1023.7505              1041.1861              1045.4450
 Red. masses --      1.6571                 2.6299                 2.5738
 Frc consts  --      1.0233                 1.6798                 1.6574
 IR Inten    --      1.3892                 0.0415                 0.0629

                     55                     56                     57
                      A                      A                      A
 Frequencies --   1049.9226              1060.4633              1080.3182
 Red. masses --      2.4004                 2.5920                 2.5277
 Frc consts  --      1.5590                 1.7174                 1.7381
 IR Inten    --      0.2498                 2.7913                 0.6157

                     58                     59                     60
                      A                      A                      A
 Frequencies --   1084.9415              1094.5307              1096.5634
 Red. masses --      1.8150                 1.5962                 1.8580
 Frc consts  --      1.2588                 1.1267                 1.3163
 IR Inten    --      0.2935                 0.3307                 1.3218

                     61                     62                     63
                      A                      A                      A
 Frequencies --   1128.1846              1139.3773              1155.4998
 Red. masses --      1.7797                 2.2733                 4.5043
 Frc consts  --      1.3346                 1.7387                 3.5433
 IR Inten    --      1.7255                 6.6199               160.5951

                     64                     65                     66
                      A                      A                      A
 Frequencies --   1178.4848              1179.9460              1189.4035
 Red. masses --      1.6675                 1.9613                 1.7379
 Frc consts  --      1.3645                 1.6088                 1.4485
 IR Inten    --      8.4693                 2.1423                 4.4487

                     67                     68                     69
                      A                      A                      A
 Frequencies --   1200.7736              1209.0293              1232.3865
 Red. masses --      2.1071                 2.2522                 1.7323
 Frc consts  --      1.7900                 1.9397                 1.5501
 IR Inten    --     26.2315                16.4659                20.5634

                     70                     71                     72
                      A                      A                      A
 Frequencies --   1243.4060              1263.9566              1278.0219
 Red. masses --      1.5201                 1.2810                 1.2313
 Frc consts  --      1.3847                 1.2058                 1.1849
 IR Inten    --      0.8317                 1.8283                 1.1868

                     73                     74                     75
                      A                      A                      A
 Frequencies --   1283.6795              1285.9175              1301.0894
 Red. masses --      1.2655                 1.2728                 1.2630
 Frc consts  --      1.2287                 1.2400                 1.2597
 IR Inten    --      0.9996                 1.3710                 0.6640

                     76                     77                     78
                      A                      A                      A
 Frequencies --   1315.6121              1322.3534              1329.8421
 Red. masses --      1.2933                 1.2484                 1.1318
 Frc consts  --      1.3189                 1.2862                 1.1793
 IR Inten    --      2.9463                 1.7436                 0.6914

                     79                     80                     81
                      A                      A                      A
 Frequencies --   1332.7844              1337.9296              1351.2702
 Red. masses --      1.3433                 1.1403                 1.2024
 Frc consts  --      1.4058                 1.2027                 1.2935
 IR Inten    --      0.4269                 0.2972                 3.4402

                     82                     83                     84
                      A                      A                      A
 Frequencies --   1359.1822              1365.9503              1380.2818
 Red. masses --      1.2321                 1.3768                 1.3395
 Frc consts  --      1.3410                 1.5136                 1.5036
 IR Inten    --      8.1586                 2.7462                 1.1218

                     85                     86                     87
                      A                      A                      A
 Frequencies --   1388.7117              1395.7680              1398.6359
 Red. masses --      1.4712                 1.4646                 1.4627
 Frc consts  --      1.6717                 1.6811                 1.6859
 IR Inten    --      2.0732                 0.3076                 0.8842

                     88                     89                     90
                      A                      A                      A
 Frequencies --   1408.0094              1410.7328              1411.2783
 Red. masses --      1.3619                 1.2528                 1.2353
 Frc consts  --      1.5908                 1.4690                 1.4496
 IR Inten    --      1.1880                 1.1121                 1.0258

                     91                     92                     93
                      A                      A                      A
 Frequencies --   1412.8764              1415.4137              1420.8810
 Red. masses --      1.2953                 1.2766                 1.3231
 Frc consts  --      1.5235                 1.5068                 1.5738
 IR Inten    --      0.7102                 6.0796                15.1838

                     94                     95                     96
                      A                      A                      A
 Frequencies --   1474.2364              1478.0899              1481.1386
 Red. masses --      1.0785                 1.1141                 1.0914
 Frc consts  --      1.3810                 1.4341                 1.4107
 IR Inten    --      0.3890                 5.9799                 1.4992

                     97                     98                     99
                      A                      A                      A
 Frequencies --   1482.3874              1485.1249              1489.4244
 Red. masses --      1.0904                 1.0482                 1.0623
 Frc consts  --      1.4118                 1.3622                 1.3885
 IR Inten    --      0.6705                 4.2579                 2.4857

                    100                    101                    102
                      A                      A                      A
 Frequencies --   1491.7322              1493.3998              1495.2857
 Red. masses --      1.0724                 1.0630                 1.0570
 Frc consts  --      1.4060                 1.3968                 1.3925
 IR Inten    --      2.0043                 0.9236                 0.7306

                    103                    104                    105
                      A                      A                      A
 Frequencies --   1496.2095              1498.1569              1499.1731
 Red. masses --      1.0750                 1.0597                 1.0410
 Frc consts  --      1.4179                 1.4013                 1.3785
 IR Inten    --      1.2119                 0.9091                 3.7158

                    106                    107                    108
                      A                      A                      A
 Frequencies --   1499.6304              1499.8877              1503.0748
 Red. masses --      1.0416                 1.0438                 1.0581
 Frc consts  --      1.3801                 1.3836                 1.4084
 IR Inten    --      5.6876                 4.8550                11.4196

                    109                    110                    111
                      A                      A                      A
 Frequencies --   1508.1293              1508.9333              1512.4209
 Red. masses --      1.0696                 1.0738                 1.0717
 Frc consts  --      1.4333                 1.4404                 1.4443
 IR Inten    --      0.8338                 3.4249                12.3139

                    112                    113                    114
                      A                      A                      A
 Frequencies --   1513.5108              1527.5757              2946.1216
 Red. masses --      1.0863                 1.0872                 1.0564
 Frc consts  --      1.4662                 1.4948                 5.4023
 IR Inten    --      0.8440                 4.7460                29.1470

                    115                    116                    117
                      A                      A                      A
 Frequencies --   2968.1272              2981.0436              2982.0206
 Red. masses --      1.0405                 1.0803                 1.0984
 Frc consts  --      5.4009                 5.6564                 5.7547
 IR Inten    --     82.7821                 7.1319                54.0132

                    118                    119                    120
                      A                      A                      A
 Frequencies --   2995.6497              2997.8413              3003.1682
 Red. masses --      1.0598                 1.0666                 1.0657
 Frc consts  --      5.6035                 5.6475                 5.6628
 IR Inten    --     12.1593                 2.8846                38.7682

                    121                    122                    123
                      A                      A                      A
 Frequencies --   3010.2046              3015.7981              3019.7242
 Red. masses --      1.1030                 1.0650                 1.0619
 Frc consts  --      5.8889                 5.7070                 5.7051
 IR Inten    --     50.1259                14.2845                49.4709

                    124                    125                    126
                      A                      A                      A
 Frequencies --   3025.4741              3025.7188              3026.4419
 Red. masses --      1.0507                 1.0373                 1.0447
 Frc consts  --      5.6665                 5.5952                 5.6377
 IR Inten    --     30.3347                35.6082                 3.4305

                    127                    128                    129
                      A                      A                      A
 Frequencies --   3027.4457              3028.8116              3029.3532
 Red. masses --      1.0358                 1.0674                 1.0681
 Frc consts  --      5.5934                 5.7693                 5.7753
 IR Inten    --     39.8063                 0.7808                26.1287

                    130                    131                    132
                      A                      A                      A
 Frequencies --   3034.5916              3045.2728              3049.7908
 Red. masses --      1.0613                 1.0606                 1.0895
 Frc consts  --      5.7584                 5.7948                 5.9708
 IR Inten    --     30.3868                49.6284                16.3989

                    133                    134                    135
                      A                      A                      A
 Frequencies --   3052.6515              3057.2805              3058.6763
 Red. masses --      1.0929                 1.0973                 1.0997
 Frc consts  --      6.0003                 6.0430                 6.0615
 IR Inten    --      4.2364                 1.1968                15.0650

                    136                    137                    138
                      A                      A                      A
 Frequencies --   3070.1379              3076.5172              3077.7899
 Red. masses --      1.1006                 1.1004                 1.1007
 Frc consts  --      6.1120                 6.1366                 6.1430
 IR Inten    --     47.2099                12.6921                28.3238

                    139                    140                    141
                      A                      A                      A
 Frequencies --   3094.4841              3096.7055              3097.0445
 Red. masses --      1.1020                 1.0967                 1.1012
 Frc consts  --      6.2173                 6.1964                 6.2234
 IR Inten    --     60.7352                12.2823                68.5359

                    142                    143                    144
                      A                      A                      A
 Frequencies --   3097.4977              3098.2722              3099.3828
 Red. masses --      1.1016                 1.1017                 1.1006
 Frc consts  --      6.2272                 6.2307                 6.2292
 IR Inten    --     47.8209                46.7840                62.0216

                    145                    146                    147
                      A                      A                      A
 Frequencies --   3100.1919              3109.8301              3110.0517
 Red. masses --      1.1015                 1.0961                 1.0997
 Frc consts  --      6.2373                 6.2454                 6.2669
 IR Inten    --     61.1661                49.7188                25.5395

 - Thermochemistry -
 -------------------
 Temperature   298.150 Kelvin.  Pressure   1.00000 Atm.
 Atom     1 has atomic number  6 and mass  12.00000

 Molecular mass:   242.26097 amu.
 Principal axes and moments of inertia in atomic units:
                           1         2         3
     Eigenvalues --  3328.876529283.54188**********
           X            1.00000   0.00227  -0.00065
           Y           -0.00227   1.00000   0.00094
           Z            0.00065  -0.00094   1.00000
 This molecule is an asymmetric top.
 Rotational symmetry number  1.
 Warning -- assumption of classical behavior for rotation
           may cause significant error
 Rotational temperatures (Kelvin)      0.02602     0.00933     0.00831
 Rotational constants (GHZ):           0.54215     0.19440     0.17317
 Zero-point vibrational energy    1249324.5 (Joules/Mol)
                                  298.59573 (Kcal/Mol)
 Warning -- explicit consideration of  33 degrees of freedom as
           vibrations may cause significant error
 Vibrational temperatures:     23.70    40.19    70.60    80.52    91.43
          (Kelvin)             99.84   110.28   119.09   136.27   154.58
                              166.91   181.15   224.76   251.99   293.49
                              311.71   330.62   334.03   351.81   359.49
                              365.09   369.12   427.72   443.60   462.41
                              473.96   483.32   508.02   567.55   644.72
                              678.08   731.43   772.91   896.03  1067.37
                             1068.96  1074.31  1098.51  1126.90  1208.86
                             1236.64  1244.82  1256.89  1286.95  1298.89
                             1330.00  1356.04  1371.64  1386.74  1406.06
                             1457.33  1472.95  1498.03  1504.16  1510.60
                             1525.77  1554.34  1560.99  1574.79  1577.71
                             1623.21  1639.31  1662.51  1695.58  1697.68
                             1711.29  1727.65  1739.52  1773.13  1788.98
                             1818.55  1838.79  1846.93  1850.15  1871.98
                             1892.87  1902.57  1913.35  1917.58  1924.98
                             1944.18  1955.56  1965.30  1985.92  1998.05
                             2008.20  2012.33  2025.81  2029.73  2030.51
                             2032.81  2036.46  2044.33  2121.10  2126.64
                             2131.03  2132.82  2136.76  2142.95  2146.27
                             2148.67  2151.38  2152.71  2155.51  2156.98
                             2157.63  2158.00  2162.59  2169.86  2171.02
                             2176.04  2177.60  2197.84  4238.81  4270.47
                             4289.06  4290.46  4310.07  4313.23  4320.89
                             4331.01  4339.06  4344.71  4352.98  4353.33
                             4354.37  4355.82  4357.78  4358.56  4366.10
                             4381.47  4387.97  4392.08  4398.74  4400.75
                             4417.24  4426.42  4428.25  4452.27  4455.47
                             4455.96  4456.61  4457.72  4459.32  4460.48
                             4474.35  4474.67

 Zero-point correction=                           0.475843 (Hartree/Particle)
 Thermal correction to Energy=                    0.498984
 Thermal correction to Enthalpy=                  0.499928
 Thermal correction to Gibbs Free Energy=         0.421747
 Sum of electronic and zero-point Energies=           -704.991383
 Sum of electronic and thermal Energies=              -704.968242
 Sum of electronic and thermal Enthalpies=            -704.967298
 Sum of electronic and thermal Free Energies=         -705.045479

                     E (Thermal)             CV                S
                      KCal/Mol        Cal/Mol-Kelvin    Cal/Mol-Kelvin
 Total                  313.117             83.622            164.547
 Electronic               0.000              0.000              0.000
 Translational            0.889              2.981             42.356
 Rotational               0.889              2.981             34.131
 Vibrational            311.340             77.661             88.060
 Vibration     1          0.593              1.986              7.020
 Vibration     2          0.593              1.984              5.971
 Vibration     3          0.595              1.978              4.854
 Vibration     4          0.596              1.975              4.595
 Vibration     5          0.597              1.972              4.344
 Vibration     6          0.598              1.969              4.171
 Vibration     7          0.599              1.965              3.975
 Vibration     8          0.600              1.961              3.824
 Vibration     9          0.603              1.953              3.560
 Vibration    10          0.606              1.943              3.315
 Vibration    11          0.608              1.936              3.166
 Vibration    12          0.611              1.927              3.008
 Vibration    13          0.620              1.896              2.595
 Vibration    14          0.627              1.873              2.380
 Vibration    15          0.640              1.834              2.097
 Vibration    16          0.645              1.816              1.987
 Vibration    17          0.652              1.796              1.881
 Vibration    18          0.653              1.792              1.862
 Vibration    19          0.660              1.772              1.770
 Vibration    20          0.663              1.763              1.732
 Vibration    21          0.665              1.756              1.704
 Vibration    22          0.666              1.752              1.685
 Vibration    23          0.691              1.679              1.432
 Vibration    24          0.698              1.658              1.371
 Vibration    25          0.707              1.633              1.303
 Vibration    26          0.712              1.617              1.263
 Vibration    27          0.717              1.604              1.231
 Vibration    28          0.729              1.569              1.152
 Vibration    29          0.761              1.482              0.983
 Vibration    30          0.807              1.365              0.802
 Vibration    31          0.828              1.314              0.734
 Vibration    32          0.864              1.231              0.638
 Vibration    33          0.892              1.168              0.571

                           ! Non-Optimized Parameters !
 Normal termination of Gaussian 16 at Wed May 24 03:32:07 2023.
