 Gaussian 16, Revision A.03,
 Gaussian 16:  ES64L-G16RevA.03 25-Dec-2016

 -----------------------------
 # opt freq b3lyp/6-31g(2df,p)
 -----------------------------

 -------------------
 Title Card Required
 -------------------
 Symbolic Z-matrix:
 Charge =  0 Multiplicity = 1

 SCF Done:  E(RB3LYP) =  -589.691612874     A.U. after   11 cycles
 SCF Done:  E(RB3LYP) =  -589.706176089     A.U. after   10 cycles
 SCF Done:  E(RB3LYP) =  -589.708913810     A.U. after    9 cycles
 SCF Done:  E(RB3LYP) =  -589.711304395     A.U. after   10 cycles
 SCF Done:  E(RB3LYP) =  -589.712131429     A.U. after   10 cycles
 SCF Done:  E(RB3LYP) =  -589.712450441     A.U. after    9 cycles
 SCF Done:  E(RB3LYP) =  -589.712480326     A.U. after    8 cycles
 SCF Done:  E(RB3LYP) =  -589.712523918     A.U. after    8 cycles
 SCF Done:  E(RB3LYP) =  -589.712532050     A.U. after    8 cycles
 SCF Done:  E(RB3LYP) =  -589.712532518     A.U. after    6 cycles
 SCF Done:  E(RB3LYP) =  -589.712532577     A.U. after    5 cycles
 SCF Done:  E(RB3LYP) =  -589.712532591     A.U. after    5 cycles
 SCF Done:  E(RB3LYP) =  -589.712532595     A.U. after    5 cycles
 Optimization completed.
    -- Stationary point found.
 Normal termination of Gaussian 16 at Tue May 23 08:24:42 2023.

 ----------------------------------------------------------------------
 #N Geom=AllCheck Guess=TCheck SCRF=Check GenChk RB3LYP/6-31G(2df,p) Fr
 eq
 ----------------------------------------------------------------------

 Structure from the checkpoint file:  "CCCCCCCqCrCCCC1CCC1.chk"
 -------------------
 Title Card Required
 -------------------
 Charge =  0 Multiplicity = 1

                         Standard orientation:
 ---------------------------------------------------------------------
 Center     Atomic      Atomic             Coordinates (Angstroms)
 Number     Number       Type             X           Y           Z
 ---------------------------------------------------------------------
      1          6           0       -7.923818   -0.104684   -0.365712
      2          6           0       -6.613766   -0.666671    0.193026
      3          6           0       -5.376684    0.112411   -0.266665
      4          6           0       -4.061001   -0.443683    0.287830
      5          6           0       -2.823509    0.335287   -0.173416
      6          6           0       -1.513781   -0.229998    0.389900
      7          6           0       -0.225578    0.443916   -0.122465
      8          6           0       -0.141305    1.917272    0.304230
      9          6           0        1.007318   -0.358857    0.337604
     10          6           0        2.343884    0.074155   -0.277512
     11          6           0        3.513980   -0.830845    0.130152
     12          6           0        4.849862   -0.401963   -0.461568
     13          6           0        5.519378    0.914465    0.034565
     14          6           0        6.894788    0.198633   -0.038596
     15          6           0        6.142451   -1.159158   -0.042186
     16          1           0       -8.787694   -0.681308   -0.020103
     17          1           0       -7.927572   -0.124252   -1.461379
     18          1           0       -8.072569    0.935706   -0.055321
     19          1           0       -6.509622   -1.718604   -0.104747
     20          1           0       -6.653469   -0.666803    1.290527
     21          1           0       -5.480955    1.165498    0.030806
     22          1           0       -5.336987    0.113452   -1.365213
     23          1           0       -3.958579   -1.497175   -0.008363
     24          1           0       -4.101234   -0.443185    1.386257
     25          1           0       -2.938763    1.387016    0.116997
     26          1           0       -2.779159    0.326674   -1.271859
     27          1           0       -1.465435   -1.300503    0.147520
     28          1           0       -1.535573   -0.172110    1.488187
     29          1           0       -0.250083    0.410688   -1.222818
     30          1           0       -0.113964    2.002905    1.397812
     31          1           0       -1.000624    2.492044   -0.052342
     32          1           0        0.756446    2.402187   -0.089260
     33          1           0        0.841687   -1.418031    0.097084
     34          1           0        1.078709   -0.308204    1.434123
     35          1           0        2.577080    1.106268    0.011169
     36          1           0        2.254914    0.077118   -1.373314
     37          1           0        3.297880   -1.865302   -0.173161
     38          1           0        3.596943   -0.847564    1.226577
     39          1           0        4.776935   -0.382245   -1.556531
     40          1           0        5.234914    1.133803    1.069795
     41          1           0        5.380773    1.820497   -0.560764
     42          1           0        7.608098    0.383384    0.768199
     43          1           0        7.397308    0.385214   -0.992258
     44          1           0        6.047611   -1.569190    0.969201
     45          1           0        6.509676   -1.949655   -0.701944
 ---------------------------------------------------------------------

 SCF Done:  E(RB3LYP) =  -589.712532595     A.U. after    1 cycles

 The electronic state is 1-A.
 Alpha  occ. eigenvalues --  -10.17880 -10.17749 -10.17411 -10.17391 -10.17201
 Alpha  occ. eigenvalues --  -10.17179 -10.17157 -10.17157 -10.17147 -10.17123
 Alpha  occ. eigenvalues --  -10.17068 -10.17005 -10.16989 -10.16851 -10.16577
 Alpha  occ. eigenvalues --   -0.83748  -0.81330  -0.79398  -0.76711  -0.74317
 Alpha  occ. eigenvalues --   -0.69645  -0.68407  -0.64996  -0.64479  -0.61680
 Alpha  occ. eigenvalues --   -0.58650  -0.57091  -0.56724  -0.55016  -0.53643
 Alpha  occ. eigenvalues --   -0.47608  -0.47390  -0.46278  -0.45219  -0.44489
 Alpha  occ. eigenvalues --   -0.43151  -0.42515  -0.41888  -0.40222  -0.39468
 Alpha  occ. eigenvalues --   -0.38906  -0.37857  -0.37707  -0.37030  -0.36346
 Alpha  occ. eigenvalues --   -0.35876  -0.34649  -0.33826  -0.33514  -0.32847
 Alpha  occ. eigenvalues --   -0.32389  -0.32002  -0.31816  -0.31444  -0.31240
 Alpha  occ. eigenvalues --   -0.30756  -0.30602  -0.29686  -0.28917  -0.27559
 Alpha virt. eigenvalues --    0.08508   0.09262   0.09635   0.10284   0.10968
 Alpha virt. eigenvalues --    0.11305   0.11739   0.11801   0.12708   0.13326
 Alpha virt. eigenvalues --    0.13980   0.14828   0.15117   0.15633   0.16376

 Mulliken charges:
               1
     1  C   -0.378950
     2  C   -0.162628
     3  C   -0.159190
     4  C   -0.175605
     5  C   -0.195126
     6  C   -0.179801
     7  C    0.022894
     8  C   -0.389865
     9  C   -0.179624
    10  C   -0.193260
    11  C   -0.211476
    12  C    0.064851
    13  C   -0.214153
    14  C   -0.211247
    15  C   -0.236644
    16  H    0.109281
    17  H    0.112176
    18  H    0.112199
    19  H    0.092640
    20  H    0.092662
    21  H    0.089391
    22  H    0.089317
    23  H    0.089791
    24  H    0.090267
    25  H    0.095048
    26  H    0.089095
    27  H    0.085958
    28  H    0.087265
    29  H    0.064551
    30  H    0.107796
    31  H    0.113361
    32  H    0.113587
    33  H    0.085976
    34  H    0.087349
    35  H    0.100906
    36  H    0.088488
    37  H    0.088964
    38  H    0.085690
    39  H    0.064141
    40  H    0.094251
    41  H    0.091549
    42  H    0.093062
    43  H    0.099264
    44  H    0.094817
    45  H    0.090979
 Sum of Mulliken charges =  -0.00000

 Dipole moment (field-independent basis, Debye):
    X=             -0.0501    Y=             -0.0438    Z=             -0.0897  Tot=              0.1117
 Quadrupole moment (field-independent basis, Debye-Ang):
   XX=           -102.2708   YY=           -100.0353   ZZ=            -98.0576
   XY=              0.2006   XZ=             -0.6666   YZ=              0.6832

  Exact polarizability: 215.028   0.223 146.228   0.599  -0.553 137.065
 Approx polarizability: 224.302   0.095 219.709  -0.023   0.925 220.645

                      1                      2                      3
                      A                      A                      A
 Frequencies --     18.7715                25.8739                35.7839
 Red. masses --      3.6004                 2.6491                 2.0932
 Frc consts  --      0.0007                 0.0010                 0.0016
 IR Inten    --      0.0016                 0.0018                 0.0023

                      4                      5                      6
                      A                      A                      A
 Frequencies --     50.6892                55.5809                81.0522
 Red. masses --      3.2416                 2.2744                 3.1906
 Frc consts  --      0.0049                 0.0041                 0.0123
 IR Inten    --      0.0002                 0.0004                 0.0003

                      7                      8                      9
                      A                      A                      A
 Frequencies --     89.6363               111.1573               123.9067
 Red. masses --      2.6989                 1.6993                 2.0817
 Frc consts  --      0.0128                 0.0124                 0.0188
 IR Inten    --      0.0112                 0.0130                 0.0099

                     10                     11                     12
                      A                      A                      A
 Frequencies --    131.1026               143.5487               155.6982
 Red. masses --      2.0139                 2.4314                 1.9244
 Frc consts  --      0.0204                 0.0295                 0.0275
 IR Inten    --      0.0286                 0.0017                 0.0121

                     13                     14                     15
                      A                      A                      A
 Frequencies --    173.6499               192.0691               236.4714
 Red. masses --      2.5322                 3.3147                 1.2464
 Frc consts  --      0.0450                 0.0720                 0.0411
 IR Inten    --      0.0096                 0.0026                 0.0074

                     16                     17                     18
                      A                      A                      A
 Frequencies --    247.2531               248.3073               278.8146
 Red. masses --      1.7723                 1.4180                 2.7093
 Frc consts  --      0.0638                 0.0515                 0.1241
 IR Inten    --      0.0009                 0.0022                 0.0654

                     19                     20                     21
                      A                      A                      A
 Frequencies --    338.5187               387.1046               410.7121
 Red. masses --      2.8470                 2.8009                 1.8851
 Frc consts  --      0.1922                 0.2473                 0.1874
 IR Inten    --      0.0148                 0.0734                 0.0549

                     22                     23                     24
                      A                      A                      A
 Frequencies --    417.7540               443.3342               495.8063
 Red. masses --      2.2070                 2.8843                 2.7316
 Frc consts  --      0.2269                 0.3340                 0.3956
 IR Inten    --      0.1149                 0.0410                 0.4627

                     25                     26                     27
                      A                      A                      A
 Frequencies --    531.0470               637.3969               731.3882
 Red. masses --      2.5841                 1.9690                 1.0655
 Frc consts  --      0.4294                 0.4713                 0.3358
 IR Inten    --      0.4829                 1.6289                 3.2598

                     28                     29                     30
                      A                      A                      A
 Frequencies --    738.7209               744.2639               762.6349
 Red. masses --      1.1117                 1.1278                 1.5485
 Frc consts  --      0.3574                 0.3681                 0.5306
 IR Inten    --      1.6765                 0.7714                 0.2095

                     31                     32                     33
                      A                      A                      A
 Frequencies --    786.2740               789.6368               822.9428
 Red. masses --      1.2719                 1.2230                 1.5244
 Frc consts  --      0.4633                 0.4493                 0.6083
 IR Inten    --      0.8280                 0.8058                 1.5570

                     34                     35                     36
                      A                      A                      A
 Frequencies --    856.3271               885.5191               895.5052
 Red. masses --      1.7383                 1.3185                 2.0875
 Frc consts  --      0.7510                 0.6091                 0.9863
 IR Inten    --      0.6435                 0.8541                 0.0672

                     37                     38                     39
                      A                      A                      A
 Frequencies --    898.1403               932.9856               938.1014
 Red. masses --      1.9431                 2.0835                 1.9434
 Frc consts  --      0.9235                 1.0686                 1.0077
 IR Inten    --      1.4127                 1.1834                 2.0977

                     40                     41                     42
                      A                      A                      A
 Frequencies --    942.0008               964.0376               976.5449
 Red. masses --      2.0079                 1.2380                 2.2120
 Frc consts  --      1.0498                 0.6779                 1.2428
 IR Inten    --      0.2589                 0.3944                 0.1076

                     43                     44                     45
                      A                      A                      A
 Frequencies --    984.0847              1005.5825              1009.5305
 Red. masses --      1.3527                 2.4193                 3.4789
 Frc consts  --      0.7718                 1.4414                 2.0890
 IR Inten    --      0.1170                 0.9250                 0.0128

                     46                     47                     48
                      A                      A                      A
 Frequencies --   1026.0086              1032.9161              1054.0344
 Red. masses --      2.1386                 1.5297                 2.4301
 Frc consts  --      1.3264                 0.9616                 1.5907
 IR Inten    --      1.2876                 0.3115                 0.1420

                     49                     50                     51
                      A                      A                      A
 Frequencies --   1058.4963              1068.2152              1071.9241
 Red. masses --      2.0949                 1.6273                 2.1526
 Frc consts  --      1.3829                 1.0941                 1.4573
 IR Inten    --      0.0198                 0.0960                 0.1028

                     52                     53                     54
                      A                      A                      A
 Frequencies --   1084.6880              1110.0313              1121.3394
 Red. masses --      1.9498                 2.2530                 2.2898
 Frc consts  --      1.3516                 1.6356                 1.6963
 IR Inten    --      0.1811                 0.4546                 1.5374

                     55                     56                     57
                      A                      A                      A
 Frequencies --   1149.0171              1175.0820              1194.2405
 Red. masses --      2.7638                 1.8625                 2.0046
 Frc consts  --      2.1499                 1.5153                 1.6845
 IR Inten    --      0.1006                 7.1798                 3.0876

                     58                     59                     60
                      A                      A                      A
 Frequencies --   1201.2437              1212.2553              1230.7987
 Red. masses --      1.4152                 1.7106                 1.5480
 Frc consts  --      1.2032                 1.4811                 1.3816
 IR Inten    --      0.3771                 2.9950                 0.3160

                     61                     62                     63
                      A                      A                      A
 Frequencies --   1243.5347              1250.8781              1255.7082
 Red. masses --      1.2747                 1.2979                 1.2613
 Frc consts  --      1.1614                 1.1965                 1.1718
 IR Inten    --      2.5769                 0.8672                 0.1977

                     64                     65                     66
                      A                      A                      A
 Frequencies --   1259.7435              1266.0060              1277.7129
 Red. masses --      1.2999                 1.2829                 1.4061
 Frc consts  --      1.2155                 1.2115                 1.3525
 IR Inten    --      0.3927                 0.2641                 0.0650

                     67                     68                     69
                      A                      A                      A
 Frequencies --   1286.0123              1294.4569              1303.7566
 Red. masses --      1.3649                 1.3299                 1.3049
 Frc consts  --      1.3299                 1.3129                 1.3068
 IR Inten    --      0.2473                 0.1799                 2.8372

                     70                     71                     72
                      A                      A                      A
 Frequencies --   1315.0822              1321.9047              1329.3980
 Red. masses --      1.2716                 1.1671                 1.0907
 Frc consts  --      1.2957                 1.2016                 1.1357
 IR Inten    --      0.6806                 0.5525                 0.3885

                     73                     74                     75
                      A                      A                      A
 Frequencies --   1332.5843              1337.3761              1338.7800
 Red. masses --      1.0933                 1.1416                 1.2276
 Frc consts  --      1.1439                 1.2030                 1.2963
 IR Inten    --      0.3201                 0.0576                 0.3082

                     76                     77                     78
                      A                      A                      A
 Frequencies --   1361.0858              1378.2125              1380.9090
 Red. masses --      1.3677                 1.4310                 1.3266
 Frc consts  --      1.4928                 1.6014                 1.4905
 IR Inten    --      6.8090                 0.8850                 2.2983

                     79                     80                     81
                      A                      A                      A
 Frequencies --   1391.1748              1396.0794              1400.2448
 Red. masses --      1.5182                 1.5912                 1.5924
 Frc consts  --      1.7311                 1.8273                 1.8396
 IR Inten    --      1.4340                 0.4128                 1.2795

                     82                     83                     84
                      A                      A                      A
 Frequencies --   1402.2940              1413.0592              1414.6215
 Red. masses --      1.5135                 1.2595                 1.2915
 Frc consts  --      1.7536                 1.4817                 1.5227
 IR Inten    --      0.0275                 1.8374                 5.8046

                     85                     86                     87
                      A                      A                      A
 Frequencies --   1474.1654              1477.4251              1481.3875
 Red. masses --      1.0774                 1.0880                 1.0806
 Frc consts  --      1.3795                 1.3993                 1.3972
 IR Inten    --      0.3169                 0.1162                 0.3879

                     88                     89                     90
                      A                      A                      A
 Frequencies --   1482.9335              1483.6503              1486.4550
 Red. masses --      1.0729                 1.0780                 1.0784
 Frc consts  --      1.3902                 1.3981                 1.4039
 IR Inten    --      0.0536                 0.1206                 1.4667

                     91                     92                     93
                      A                      A                      A
 Frequencies --   1487.5732              1495.6983              1498.4255
 Red. masses --      1.0822                 1.0755                 1.0603
 Frc consts  --      1.4109                 1.4176                 1.4027
 IR Inten    --      1.2637                 0.4185                 0.4742

                     94                     95                     96
                      A                      A                      A
 Frequencies --   1499.8619              1503.9950              1506.0269
 Red. masses --      1.0403                 1.0924                 1.0796
 Frc consts  --      1.3788                 1.4559                 1.4427
 IR Inten    --      4.8662                 0.1127                 1.7713

                     97                     98                     99
                      A                      A                      A
 Frequencies --   1509.9343              1511.6510              1515.2026
 Red. masses --      1.0810                 1.1123                 1.0930
 Frc consts  --      1.4521                 1.4975                 1.4785
 IR Inten    --      2.1155                 3.5324                 5.2615

                    100                    101                    102
                      A                      A                      A
 Frequencies --   2980.5897              2992.7401              2995.5108
 Red. masses --      1.0801                 1.0589                 1.0589
 Frc consts  --      5.6533                 5.5876                 5.5980
 IR Inten    --      6.4731                 0.9989                 3.7981

                    103                    104                    105
                      A                      A                      A
 Frequencies --   2997.7929              2999.8367              3000.9065
 Red. masses --      1.0585                 1.0598                 1.0592
 Frc consts  --      5.6047                 5.6189                 5.6199
 IR Inten    --      7.3954                 6.3986                 0.5460

                    106                    107                    108
                      A                      A                      A
 Frequencies --   3008.7267              3010.9528              3015.0638
 Red. masses --      1.0650                 1.0638                 1.0868
 Frc consts  --      5.6805                 5.6825                 5.8207
 IR Inten    --      8.1818                48.4112                 5.4223

                    109                    110                    111
                      A                      A                      A
 Frequencies --   3016.0165              3019.8569              3024.8385
 Red. masses --      1.0627                 1.0955                 1.0952
 Frc consts  --      5.6954                 5.8862                 5.9039
 IR Inten    --    119.9923                 8.1118                 0.4827

                    112                    113                    114
                      A                      A                      A
 Frequencies --   3027.5550              3027.9497              3030.4211
 Red. masses --      1.0359                 1.0486                 1.0849
 Frc consts  --      5.5945                 5.6646                 5.8701
 IR Inten    --     40.1069                28.8799                21.5599

                    115                    116                    117
                      A                      A                      A
 Frequencies --   3032.6654              3035.7878              3039.3997
 Red. masses --      1.0984                 1.1008                 1.0596
 Frc consts  --      5.9520                 5.9770                 5.7671
 IR Inten    --      5.3266                 6.6518                48.7284

                    118                    119                    120
                      A                      A                      A
 Frequencies --   3044.8110              3051.4908              3055.0054
 Red. masses --      1.0606                 1.1036                 1.0615
 Frc consts  --      5.7934                 6.0547                 5.8373
 IR Inten    --     23.3704                 5.9774                44.2433

                    121                    122                    123
                      A                      A                      A
 Frequencies --   3062.7847              3066.0838              3091.1937
 Red. masses --      1.1027                 1.1028                 1.1038
 Frc consts  --      6.0946                 6.1080                 6.2144
 IR Inten    --      6.0097               204.1468                19.9161

                    124                    125                    126
                      A                      A                      A
 Frequencies --   3093.6414              3095.4946              3096.9353
 Red. masses --      1.1020                 1.1058                 1.0951
 Frc consts  --      6.2141                 6.2430                 6.1881
 IR Inten    --     60.8568                24.9849                33.6431

                    127                    128                    129
                      A                      A                      A
 Frequencies --   3098.9497              3111.1513              3112.7591
 Red. masses --      1.1009                 1.1003                 1.1074
 Frc consts  --      6.2294                 6.2749                 6.3218
 IR Inten    --     41.2817                43.5375                72.4663

 - Thermochemistry -
 -------------------
 Temperature   298.150 Kelvin.  Pressure   1.00000 Atm.
 Atom     1 has atomic number  6 and mass  12.00000

 Molecular mass:   210.23475 amu.
 Principal axes and moments of inertia in atomic units:
                           1         2         3
     Eigenvalues --   651.98908********************
           X            1.00000   0.00039   0.00086
           Y           -0.00038   0.99997  -0.00817
           Z           -0.00086   0.00817   0.99997
 This molecule is an asymmetric top.
 Rotational symmetry number  1.
 Warning -- assumption of classical behavior for rotation
           may cause significant error
 Rotational temperatures (Kelvin)      0.13285     0.00527     0.00515
 Rotational constants (GHZ):           2.76805     0.10979     0.10740
 Zero-point vibrational energy    1107248.3 (Joules/Mol)
                                  264.63870 (Kcal/Mol)
 Warning -- explicit consideration of  25 degrees of freedom as
           vibrations may cause significant error
 Vibrational temperatures:     27.01    37.23    51.49    72.93    79.97
          (Kelvin)            116.62   128.97   159.93   178.27   188.63
                              206.53   224.02   249.84   276.34   340.23
                              355.74   357.26   401.15   487.05   556.96
                              590.92   601.05   637.86   713.35   764.06
                              917.07  1052.30  1062.85  1070.83  1097.26
                             1131.27  1136.11  1184.03  1232.06  1274.06
                             1288.43  1292.22  1342.36  1349.72  1355.33
                             1387.04  1405.03  1415.88  1446.81  1452.49
                             1476.20  1486.14  1516.52  1522.94  1536.92
                             1542.26  1560.62  1597.09  1613.36  1653.18
                             1690.68  1718.25  1728.32  1744.16  1770.84
                             1789.17  1799.73  1806.68  1812.49  1821.50
                             1838.34  1850.28  1862.43  1875.81  1892.11
                             1901.93  1912.71  1917.29  1924.19  1926.21
                             1958.30  1982.94  1986.82  2001.59  2008.65
                             2014.64  2017.59  2033.08  2035.32  2121.00
                             2125.69  2131.39  2133.61  2134.64  2138.68
                             2140.29  2151.98  2155.90  2157.97  2163.91
                             2166.84  2172.46  2174.93  2180.04  4288.40
                             4305.89  4309.87  4313.16  4316.10  4317.64
                             4328.89  4332.09  4338.00  4339.38  4344.90
                             4352.07  4355.98  4356.54  4360.10  4363.33
                             4367.82  4373.02  4380.80  4390.41  4395.47
                             4406.66  4411.41  4447.54  4451.06  4453.73
                             4455.80  4458.70  4476.25  4478.57

 Zero-point correction=                           0.421729 (Hartree/Particle)
 Thermal correction to Energy=                    0.440862
 Thermal correction to Enthalpy=                  0.441806
 Thermal correction to Gibbs Free Energy=         0.371435
 Sum of electronic and zero-point Energies=           -589.290804
 Sum of electronic and thermal Energies=              -589.271670
 Sum of electronic and thermal Enthalpies=            -589.270726
 Sum of electronic and thermal Free Energies=         -589.341097

                     E (Thermal)             CV                S
                      KCal/Mol        Cal/Mol-Kelvin    Cal/Mol-Kelvin
 Total                  276.645             69.660            148.108
 Electronic               0.000              0.000              0.000
 Translational            0.889              2.981             41.933
 Rotational               0.889              2.981             33.554
 Vibrational            274.868             63.698             72.621
 Vibration     1          0.593              1.986              6.760
 Vibration     2          0.593              1.985              6.123
 Vibration     3          0.594              1.982              5.480
 Vibration     4          0.595              1.977              4.790
 Vibration     5          0.596              1.975              4.608
 Vibration     6          0.600              1.962              3.865
 Vibration     7          0.602              1.957              3.668
 Vibration     8          0.607              1.940              3.249
 Vibration     9          0.610              1.929              3.039
 Vibration    10          0.612              1.922              2.930
 Vibration    11          0.616              1.910              2.756
 Vibration    12          0.620              1.896              2.601
 Vibration    13          0.627              1.875              2.396
 Vibration    14          0.634              1.851              2.208
 Vibration    15          0.655              1.785              1.829
 Vibration    16          0.661              1.767              1.750
 Vibration    17          0.662              1.766              1.743
 Vibration    18          0.679              1.713              1.541
 Vibration    19          0.719              1.599              1.219
 Vibration    20          0.756              1.498              1.011
 Vibration    21          0.775              1.447              0.924
 Vibration    22          0.781              1.432              0.900
 Vibration    23          0.803              1.376              0.816
 Vibration    24          0.851              1.259              0.669
 Vibration    25          0.886              1.181              0.585

 Optimization completed.
    -- Stationary point found.
 Normal termination of Gaussian 16 at Tue May 23 11:31:56 2023.
