 Gaussian 16, Revision A.03,
 Gaussian 16:  ES64L-G16RevA.03 25-Dec-2016

 -----------------------------
 # opt freq b3lyp/6-31g(2df,p)
 -----------------------------

 -------------------
 Title Card Required
 -------------------
 Symbolic Z-matrix:
 Charge =  0 Multiplicity = 1

 SCF Done:  E(RB3LYP) =  -659.297288979     A.U. after   12 cycles
 SCF Done:  E(RB3LYP) =  -659.305507505     A.U. after   11 cycles
 SCF Done:  E(RB3LYP) =  -659.306074815     A.U. after   11 cycles
 SCF Done:  E(RB3LYP) =  -659.310001597     A.U. after   11 cycles
 SCF Done:  E(RB3LYP) =  -659.310625811     A.U. after   10 cycles
 SCF Done:  E(RB3LYP) =  -659.311716154     A.U. after   11 cycles
 SCF Done:  E(RB3LYP) =  -659.312050891     A.U. after   10 cycles
 SCF Done:  E(RB3LYP) =  -659.312703379     A.U. after   10 cycles
 SCF Done:  E(RB3LYP) =  -659.312766526     A.U. after   10 cycles
 SCF Done:  E(RB3LYP) =  -659.312899487     A.U. after   10 cycles
 SCF Done:  E(RB3LYP) =  -659.312995085     A.U. after    9 cycles
 SCF Done:  E(RB3LYP) =  -659.313027038     A.U. after   10 cycles
 SCF Done:  E(RB3LYP) =  -659.313035064     A.U. after    8 cycles
 SCF Done:  E(RB3LYP) =  -659.313039711     A.U. after    8 cycles
 SCF Done:  E(RB3LYP) =  -659.313041511     A.U. after    7 cycles
 SCF Done:  E(RB3LYP) =  -659.313042206     A.U. after    7 cycles
 SCF Done:  E(RB3LYP) =  -659.313042387     A.U. after    6 cycles
 Optimization completed.
    -- Stationary point found.
 Normal termination of Gaussian 16 at Mon May 22 21:53:45 2023.

 ----------------------------------------------------------------------
 #N Geom=AllCheck Guess=TCheck SCRF=Check GenChk RB3LYP/6-31G(2df,p) Fr
 eq
 ----------------------------------------------------------------------

 Structure from the checkpoint file:  "CCCCqCqCrOCCrCqCOrOC.chk"
 -------------------
 Title Card Required
 -------------------
 Charge =  0 Multiplicity = 1

                         Standard orientation:
 ---------------------------------------------------------------------
 Center     Atomic      Atomic             Coordinates (Angstroms)
 Number     Number       Type             X           Y           Z
 ---------------------------------------------------------------------
      1          6           0        1.642706    3.552809    0.072764
      2          6           0        1.465842    2.049305   -0.164812
      3          6           0        0.035560    1.589076    0.150591
      4          6           0       -0.306602    0.121274   -0.196216
      5          6           0        0.663178   -0.850293    0.537161
      6          6           0        0.165674   -2.269519    0.827524
      7          8           0        1.830223   -0.903689   -0.286001
      8          6           0        3.030266   -1.261105    0.368324
      9          6           0        4.166567   -1.165909   -0.637836
     10          6           0       -1.805042   -0.192154    0.021005
     11          6           0       -2.774991    0.903954   -0.471976
     12          8           0       -2.936331    1.990244    0.425811
     13          8           0       -2.086650   -1.388090   -0.705912
     14          6           0       -3.159333   -2.154021   -0.208850
     15          1           0        2.665810    3.873986   -0.148063
     16          1           0        1.428680    3.818906    1.114407
     17          1           0        0.965498    4.138310   -0.559312
     18          1           0        2.189996    1.500710    0.445026
     19          1           0        1.707386    1.806309   -1.206211
     20          1           0       -0.650268    2.255528   -0.378835
     21          1           0       -0.169707    1.761656    1.216613
     22          1           0       -0.131774   -0.037985   -1.268212
     23          1           0        0.934140   -0.385232    1.501679
     24          1           0       -0.083916   -2.791703   -0.096419
     25          1           0       -0.715302   -2.260854    1.475297
     26          1           0        0.941347   -2.832798    1.355108
     27          1           0        2.975375   -2.282830    0.774625
     28          1           0        3.213145   -0.585671    1.221868
     29          1           0        3.986049   -1.838085   -1.481580
     30          1           0        5.115763   -1.443669   -0.169419
     31          1           0        4.253723   -0.147194   -1.025821
     32          1           0       -2.004348   -0.354890    1.096462
     33          1           0       -3.742382    0.432719   -0.694446
     34          1           0       -2.408316    1.330976   -1.410460
     35          1           0       -3.328090    1.648722    1.235835
     36          1           0       -3.256816   -3.028665   -0.856911
     37          1           0       -4.115106   -1.609743   -0.219032
     38          1           0       -2.971768   -2.496714    0.820542
 ---------------------------------------------------------------------

 SCF Done:  E(RB3LYP) =  -659.313042387     A.U. after    1 cycles

 The electronic state is 1-A.
 Alpha  occ. eigenvalues --  -19.14183 -19.13846 -19.12775 -10.23228 -10.22746
 Alpha  occ. eigenvalues --  -10.22505 -10.22443 -10.22121 -10.17933 -10.17023
 Alpha  occ. eigenvalues --  -10.16584 -10.16520 -10.16434 -10.16191  -1.03530
 Alpha  occ. eigenvalues --   -1.02061  -1.01703  -0.80833  -0.76332  -0.75282
 Alpha  occ. eigenvalues --   -0.72050  -0.69615  -0.67911  -0.63734  -0.61909
 Alpha  occ. eigenvalues --   -0.58859  -0.57834  -0.55582  -0.51155  -0.49461
 Alpha  occ. eigenvalues --   -0.48491  -0.47503  -0.46289  -0.44867  -0.44341
 Alpha  occ. eigenvalues --   -0.43399  -0.42113  -0.40912  -0.40719  -0.40072
 Alpha  occ. eigenvalues --   -0.38709  -0.38075  -0.37516  -0.37104  -0.36032
 Alpha  occ. eigenvalues --   -0.35027  -0.34510  -0.33575  -0.32681  -0.32074
 Alpha  occ. eigenvalues --   -0.31791  -0.30894  -0.30549  -0.29721  -0.27973
 Alpha  occ. eigenvalues --   -0.24757  -0.24011
 Alpha virt. eigenvalues --    0.06789   0.07815   0.08919   0.10544   0.11285
 Alpha virt. eigenvalues --    0.12087   0.12161   0.13153   0.13846   0.14176
 Alpha virt. eigenvalues --    0.14494   0.15193   0.15936   0.16796   0.17230

 Mulliken charges:
               1
     1  C   -0.384550
     2  C   -0.168653
     3  C   -0.179620
     4  C   -0.017049
     5  C    0.132511
     6  C   -0.401543
     7  O   -0.252923
     8  C   -0.037285
     9  C   -0.384860
    10  C    0.066574
    11  C   -0.111018
    12  O   -0.407680
    13  O   -0.234831
    14  C   -0.243829
    15  H    0.105240
    16  H    0.109074
    17  H    0.112738
    18  H    0.098416
    19  H    0.098103
    20  H    0.110514
    21  H    0.082975
    22  H    0.093466
    23  H    0.055531
    24  H    0.134373
    25  H    0.104169
    26  H    0.103180
    27  H    0.086651
    28  H    0.080966
    29  H    0.126076
    30  H    0.110885
    31  H    0.126779
    32  H    0.048548
    33  H    0.093901
    34  H    0.122080
    35  H    0.282041
    36  H    0.130605
    37  H    0.104106
    38  H    0.104340
 Sum of Mulliken charges =  -0.00000

 Dipole moment (field-independent basis, Debye):
    X=             -1.0010    Y=             -1.3876    Z=              1.8433  Tot=              2.5149
 Quadrupole moment (field-independent basis, Debye-Ang):
   XX=            -80.9008   YY=            -93.2246   ZZ=            -87.5212
   XY=              3.3797   XZ=             -2.0466   YZ=             -1.5349

  Exact polarizability: 153.372   4.462 141.311  -0.754  -0.870 110.154
 Approx polarizability: 186.624   1.682 182.557  -1.689   0.758 181.460

                      1                      2                      3
                      A                      A                      A
 Frequencies --     28.1029                44.6736                59.6819
 Red. masses --      3.8815                 3.3258                 2.0353
 Frc consts  --      0.0018                 0.0039                 0.0043
 IR Inten    --      0.0670                 0.1932                 0.1801

                      4                      5                      6
                      A                      A                      A
 Frequencies --     81.9063                91.1796                95.4383
 Red. masses --      1.9821                 2.1454                 2.3974
 Frc consts  --      0.0078                 0.0105                 0.0129
 IR Inten    --      0.2971                 0.6506                 0.2363

                      7                      8                      9
                      A                      A                      A
 Frequencies --    123.0347               125.5008               141.5756
 Red. masses --      3.2769                 2.1822                 1.5681
 Frc consts  --      0.0292                 0.0203                 0.0185
 IR Inten    --      1.2418                 2.3047                 1.0478

                     10                     11                     12
                      A                      A                      A
 Frequencies --    163.2396               188.9315               221.4839
 Red. masses --      2.1312                 2.8198                 2.7958
 Frc consts  --      0.0335                 0.0593                 0.0808
 IR Inten    --      1.5873                 0.8741                 0.1323

                     13                     14                     15
                      A                      A                      A
 Frequencies --    235.1616               247.8432               252.4925
 Red. masses --      2.5885                 1.1596                 1.3600
 Frc consts  --      0.0843                 0.0420                 0.0511
 IR Inten    --      1.2303                 0.1220                28.8261

                     16                     17                     18
                      A                      A                      A
 Frequencies --    256.2343               272.5780               294.7530
 Red. masses --      1.5054                 1.4761                 1.5567
 Frc consts  --      0.0582                 0.0646                 0.0797
 IR Inten    --     47.9025                10.2295                15.2927

                     19                     20                     21
                      A                      A                      A
 Frequencies --    313.7560               324.9488               333.3884
 Red. masses --      2.8946                 2.6345                 2.6738
 Frc consts  --      0.1679                 0.1639                 0.1751
 IR Inten    --      5.2184                 9.9549                 3.5980

                     22                     23                     24
                      A                      A                      A
 Frequencies --    375.4343               405.9522               424.6932
 Red. masses --      2.8218                 3.4278                 3.2330
 Frc consts  --      0.2343                 0.3328                 0.3436
 IR Inten    --      6.7629                11.9716                 9.1699

                     25                     26                     27
                      A                      A                      A
 Frequencies --    499.4716               539.7888               549.0797
 Red. masses --      4.6279                 2.7192                 2.5306
 Frc consts  --      0.6802                 0.4668                 0.4495
 IR Inten    --      2.0798                 5.1778                 2.6206

                     28                     29                     30
                      A                      A                      A
 Frequencies --    580.3039               737.6109               811.5218
 Red. masses --      2.8932                 1.1681                 1.5716
 Frc consts  --      0.5740                 0.3745                 0.6098
 IR Inten    --      2.9847                 1.5697                 0.3132

                     31                     32                     33
                      A                      A                      A
 Frequencies --    821.0597               855.6827               881.4376
 Red. masses --      1.1424                 2.2309                 1.4008
 Frc consts  --      0.4537                 0.9624                 0.6412
 IR Inten    --      0.3284                 4.2771                 0.1972

                     34                     35                     36
                      A                      A                      A
 Frequencies --    893.3839               930.8508               960.3629
 Red. masses --      2.0599                 1.7467                 2.0222
 Frc consts  --      0.9686                 0.8917                 1.0989
 IR Inten    --      3.8721                 4.0169                 7.6214

                     37                     38                     39
                      A                      A                      A
 Frequencies --    981.3906              1003.5294              1022.0151
 Red. masses --      3.2469                 2.6217                 2.4524
 Frc consts  --      1.8425                 1.5556                 1.5093
 IR Inten    --     12.4153                21.7327                35.5143

                     40                     41                     42
                      A                      A                      A
 Frequencies --   1051.9633              1062.7306              1071.1903
 Red. masses --      1.8658                 2.2859                 2.7276
 Frc consts  --      1.2165                 1.5211                 1.8440
 IR Inten    --     12.6863                 3.3877                26.4050

                     43                     44                     45
                      A                      A                      A
 Frequencies --   1089.8348              1101.7498              1123.8622
 Red. masses --      2.8919                 2.7564                 2.6386
 Frc consts  --      2.0237                 1.9713                 1.9636
 IR Inten    --     25.9520                24.9343                64.1756

                     46                     47                     48
                      A                      A                      A
 Frequencies --   1129.8000              1134.6754              1150.3521
 Red. masses --      2.6976                 3.1279                 2.2994
 Frc consts  --      2.0288                 2.3727                 1.7928
 IR Inten    --    134.7484                71.4497                23.8509

                     49                     50                     51
                      A                      A                      A
 Frequencies --   1156.0222              1171.6442              1181.2877
 Red. masses --      2.7286                 1.8536                 1.3192
 Frc consts  --      2.1484                 1.4992                 1.0846
 IR Inten    --     68.5904                 9.4517                 1.1612

                     52                     53                     54
                      A                      A                      A
 Frequencies --   1187.2017              1210.0402              1217.9683
 Red. masses --      1.5427                 1.6517                 1.5609
 Frc consts  --      1.2811                 1.4249                 1.3643
 IR Inten    --      5.9973                10.1299                24.6378

                     55                     56                     57
                      A                      A                      A
 Frequencies --   1255.9712              1291.8829              1296.3423
 Red. masses --      1.4378                 1.3347                 1.1077
 Frc consts  --      1.3363                 1.3124                 1.0967
 IR Inten    --      2.3588                 7.3852                 0.7668

                     58                     59                     60
                      A                      A                      A
 Frequencies --   1309.4975              1331.9349              1336.9594
 Red. masses --      1.2128                 1.1962                 1.2305
 Frc consts  --      1.2253                 1.2503                 1.2958
 IR Inten    --      3.9201                 2.0022                 4.9842

                     61                     62                     63
                      A                      A                      A
 Frequencies --   1348.6924              1361.6410              1382.4626
 Red. masses --      1.1591                 1.2256                 1.3719
 Frc consts  --      1.2422                 1.3388                 1.5448
 IR Inten    --     15.5502                19.3378                11.9609

                     64                     65                     66
                      A                      A                      A
 Frequencies --   1386.2603              1393.8704              1401.6773
 Red. masses --      1.3340                 1.2659                 1.2391
 Frc consts  --      1.5104                 1.4491                 1.4344
 IR Inten    --      5.0684                30.6450                 3.0036

                     67                     68                     69
                      A                      A                      A
 Frequencies --   1403.2503              1408.8248              1412.6852
 Red. masses --      1.3635                 1.2764                 1.2642
 Frc consts  --      1.5819                 1.4927                 1.4865
 IR Inten    --      9.7334                 6.9823                 8.8858

                     70                     71                     72
                      A                      A                      A
 Frequencies --   1415.7983              1433.7220              1467.0332
 Red. masses --      1.2981                 1.3998                 1.0801
 Frc consts  --      1.5331                 1.6953                 1.3696
 IR Inten    --     21.3276                10.4746                 1.9835

                     73                     74                     75
                      A                      A                      A
 Frequencies --   1477.6885              1481.8792              1485.0930
 Red. masses --      1.1266                 1.0524                 1.0590
 Frc consts  --      1.4494                 1.3616                 1.3762
 IR Inten    --      1.5329                 1.6095                 3.2373

                     76                     77                     78
                      A                      A                      A
 Frequencies --   1486.7020              1488.2107              1497.2988
 Red. masses --      1.0577                 1.0724                 1.0456
 Frc consts  --      1.3774                 1.3993                 1.3811
 IR Inten    --      1.6263                 0.4715                 4.6230

                     79                     80                     81
                      A                      A                      A
 Frequencies --   1499.2107              1500.0598              1506.4854
 Red. masses --      1.0410                 1.0432                 1.0676
 Frc consts  --      1.3786                 1.3830                 1.4275
 IR Inten    --      4.5168                 1.1026                 3.9272

                     82                     83                     84
                      A                      A                      A
 Frequencies --   1508.6676              1512.8561              1528.6765
 Red. masses --      1.0651                 1.0787                 1.0880
 Frc consts  --      1.4284                 1.4546                 1.4979
 IR Inten    --      6.9810                 7.1797                 3.5677

                     85                     86                     87
                      A                      A                      A
 Frequencies --   2928.4799              2936.6250              2954.9293
 Red. masses --      1.0807                 1.0805                 1.0639
 Frc consts  --      5.4607                 5.4901                 5.4735
 IR Inten    --     24.1607                27.5152                62.9330

                     88                     89                     90
                      A                      A                      A
 Frequencies --   2977.4730              2991.9878              3006.5247
 Red. masses --      1.0379                 1.0954                 1.0711
 Frc consts  --      5.4214                 5.7775                 5.7045
 IR Inten    --     50.8955                48.1336                43.3433

                     91                     92                     93
                      A                      A                      A
 Frequencies --   3009.5320              3025.0403              3025.2648
 Red. masses --      1.0709                 1.0475                 1.0854
 Frc consts  --      5.7148                 5.6476                 5.8529
 IR Inten    --     11.6037                41.0431                75.8944

                     94                     95                     96
                      A                      A                      A
 Frequencies --   3032.9417              3040.7797              3043.3225
 Red. masses --      1.0798                 1.0650                 1.0348
 Frc consts  --      5.8522                 5.8016                 5.6466
 IR Inten    --     11.3362                41.3996                21.8769

                     97                     98                     99
                      A                      A                      A
 Frequencies --   3049.8810              3069.2261              3082.8492
 Red. masses --      1.0374                 1.0943                 1.0953
 Frc consts  --      5.6856                 6.0733                 6.1332
 IR Inten    --     26.7598                 0.0464                23.0325

                    100                    101                    102
                      A                      A                      A
 Frequencies --   3087.9572              3095.8907              3103.8325
 Red. masses --      1.0949                 1.1009                 1.0993
 Frc consts  --      6.1516                 6.2170                 6.2395
 IR Inten    --      4.6686                41.1190                67.1094

                    103                    104                    105
                      A                      A                      A
 Frequencies --   3105.1262              3111.4746              3116.8134
 Red. masses --      1.0993                 1.0961                 1.1013
 Frc consts  --      6.2450                 6.2524                 6.3037
 IR Inten    --     56.4356                25.9946                26.5874

                    106                    107                    108
                      A                      A                      A
 Frequencies --   3120.9973              3150.8529              3815.4890
 Red. masses --      1.1026                 1.1005                 1.0662
 Frc consts  --      6.3280                 6.4373                 9.1449
 IR Inten    --     28.2251                13.7058                15.9360

 - Thermochemistry -
 -------------------
 Temperature   298.150 Kelvin.  Pressure   1.00000 Atm.
 Atom     1 has atomic number  6 and mass  12.00000

 Molecular mass:   204.17254 amu.
 Principal axes and moments of inertia in atomic units:
                           1         2         3
     Eigenvalues --  2452.742144028.424496055.76698
           X            0.99954   0.03032  -0.00255
           Y           -0.03034   0.99950  -0.00926
           Z            0.00227   0.00933   0.99995
 This molecule is an asymmetric top.
 Rotational symmetry number  1.
 Warning -- assumption of classical behavior for rotation
           may cause significant error
 Rotational temperatures (Kelvin)      0.03531     0.02150     0.01430
 Rotational constants (GHZ):           0.73581     0.44800     0.29802
 Zero-point vibrational energy     901412.6 (Joules/Mol)
                                  215.44279 (Kcal/Mol)
 Warning -- explicit consideration of  28 degrees of freedom as
           vibrations may cause significant error
 Vibrational temperatures:     40.43    64.28    85.87   117.84   131.19
          (Kelvin)            137.31   177.02   180.57   203.70   234.87
                              271.83   318.67   338.35   356.59   363.28
                              368.66   392.18   424.08   451.42   467.53
                              479.67   540.17   584.07   611.04   718.63
                              776.64   790.00   834.93  1061.26  1167.60
                             1181.32  1231.14  1268.19  1285.38  1339.29
                             1381.75  1412.00  1443.86  1470.45  1513.54
                             1529.03  1541.20  1568.03  1585.17  1616.99
                             1625.53  1632.54  1655.10  1663.26  1685.73
                             1699.61  1708.12  1740.98  1752.38  1807.06
                             1858.73  1865.15  1884.07  1916.36  1923.59
                             1940.47  1959.10  1989.06  1994.52  2005.47
                             2016.70  2018.96  2026.98  2032.54  2037.02
                             2062.81  2110.73  2126.06  2132.09  2136.72
                             2139.03  2141.20  2154.28  2157.03  2158.25
                             2167.50  2170.64  2176.66  2199.42  4213.43
                             4225.15  4251.48  4283.92  4304.80  4325.72
                             4330.05  4352.36  4352.68  4363.73  4375.00
                             4378.66  4388.10  4415.93  4435.53  4442.88
                             4454.30  4465.72  4467.58  4476.72  4484.40
                             4490.42  4533.37  5489.64

 Zero-point correction=                           0.343330 (Hartree/Particle)
 Thermal correction to Energy=                    0.361623
 Thermal correction to Enthalpy=                  0.362567
 Thermal correction to Gibbs Free Energy=         0.296843
 Sum of electronic and zero-point Energies=           -658.969712
 Sum of electronic and thermal Energies=              -658.951420
 Sum of electronic and thermal Enthalpies=            -658.950476
 Sum of electronic and thermal Free Energies=         -659.016199

                     E (Thermal)             CV                S
                      KCal/Mol        Cal/Mol-Kelvin    Cal/Mol-Kelvin
 Total                  226.922             65.941            138.327
 Electronic               0.000              0.000              0.000
 Translational            0.889              2.981             41.846
 Rotational               0.889              2.981             32.459
 Vibrational            225.144             59.979             64.022
 Vibration     1          0.593              1.984              5.959
 Vibration     2          0.595              1.980              5.040
 Vibration     3          0.597              1.974              4.468
 Vibration     4          0.600              1.962              3.845
 Vibration     5          0.602              1.955              3.635
 Vibration     6          0.603              1.952              3.545
 Vibration     7          0.610              1.930              3.052
 Vibration     8          0.610              1.928              3.014
 Vibration     9          0.615              1.912              2.782
 Vibration    10          0.623              1.888              2.512
 Vibration    11          0.633              1.855              2.238
 Vibration    12          0.648              1.808              1.947
 Vibration    13          0.655              1.787              1.839
 Vibration    14          0.661              1.766              1.746
 Vibration    15          0.664              1.759              1.713
 Vibration    16          0.666              1.752              1.687
 Vibration    17          0.676              1.724              1.580
 Vibration    18          0.689              1.684              1.447
 Vibration    19          0.702              1.647              1.342
 Vibration    20          0.709              1.626              1.285
 Vibration    21          0.715              1.609              1.244
 Vibration    22          0.746              1.522              1.058
 Vibration    23          0.771              1.457              0.941
 Vibration    24          0.787              1.417              0.876
 Vibration    25          0.855              1.251              0.659
 Vibration    26          0.895              1.162              0.566
 Vibration    27          0.904              1.142              0.546
 Vibration    28          0.937              1.074              0.485

                           ! Non-Optimized Parameters !
 Normal termination of Gaussian 16 at Tue May 23 00:40:26 2023.
