 Gaussian 16, Revision A.03,
 Gaussian 16:  ES64L-G16RevA.03 25-Dec-2016

 -----------------------------
 # opt freq b3lyp/6-31g(2df,p)
 -----------------------------

 -------------------
 Title Card Required
 -------------------
 Symbolic Z-matrix:
 Charge =  0 Multiplicity = 1

 SCF Done:  E(RB3LYP) =  -702.040436040     A.U. after   12 cycles
 SCF Done:  E(RB3LYP) =  -702.057652617     A.U. after   11 cycles
 SCF Done:  E(RB3LYP) =  -702.063943575     A.U. after   10 cycles
 SCF Done:  E(RB3LYP) =  -702.066301716     A.U. after   10 cycles
 SCF Done:  E(RB3LYP) =  -702.066810508     A.U. after   10 cycles
 SCF Done:  E(RB3LYP) =  -702.066992165     A.U. after    9 cycles
 SCF Done:  E(RB3LYP) =  -702.067288316     A.U. after   10 cycles
 SCF Done:  E(RB3LYP) =  -702.065601027     A.U. after   12 cycles
 SCF Done:  E(RB3LYP) =  -702.067561883     A.U. after   11 cycles
 SCF Done:  E(RB3LYP) =  -702.067235359     A.U. after   10 cycles
 SCF Done:  E(RB3LYP) =  -702.067888999     A.U. after    9 cycles
 SCF Done:  E(RB3LYP) =  -702.067862979     A.U. after   10 cycles
 SCF Done:  E(RB3LYP) =  -702.067954745     A.U. after    9 cycles
 SCF Done:  E(RB3LYP) =  -702.067955442     A.U. after    9 cycles
 SCF Done:  E(RB3LYP) =  -702.067963884     A.U. after    8 cycles
 SCF Done:  E(RB3LYP) =  -702.067957269     A.U. after    8 cycles
 SCF Done:  E(RB3LYP) =  -702.067973108     A.U. after    8 cycles
 SCF Done:  E(RB3LYP) =  -702.067973315     A.U. after    7 cycles
 SCF Done:  E(RB3LYP) =  -702.067973521     A.U. after    7 cycles
 Optimization completed.
    -- Stationary point found.
 Normal termination of Gaussian 16 at Mon May 22 19:24:12 2023.

 ----------------------------------------------------------------------
 #N Geom=AllCheck Guess=TCheck SCRF=Check GenChk RB3LYP/6-31G(2df,p) Fr
 eq
 ----------------------------------------------------------------------

 Structure from the checkpoint file:  "CCCCCCqCCCrOCCCCqCrO.chk"
 -------------------
 Title Card Required
 -------------------
 Charge =  0 Multiplicity = 1

                         Standard orientation:
 ---------------------------------------------------------------------
 Center     Atomic      Atomic             Coordinates (Angstroms)
 Number     Number       Type             X           Y           Z
 ---------------------------------------------------------------------
      1          6           0        6.625655   -2.300110    0.022003
      2          6           0        5.641593   -1.168024    0.328998
      3          6           0        4.207823   -1.477798   -0.114160
      4          6           0        3.215553   -0.349508    0.191663
      5          6           0        1.790716   -0.675815   -0.266216
      6          6           0        0.720910    0.360615    0.094105
      7          6           0        0.963004    1.760161   -0.517395
      8          6           0        1.630338    2.771131    0.424979
      9          6           0        1.853150    4.136737   -0.230783
     10          8           0       -0.509378   -0.198684   -0.365355
     11          6           0       -1.662573    0.268771    0.298545
     12          6           0       -2.878360   -0.432258   -0.295997
     13          6           0       -4.185344   -0.019217    0.388883
     14          6           0       -5.456867   -0.589889   -0.255709
     15          6           0       -5.557132   -2.113853   -0.173500
     16          8           0       -6.617237    0.026042    0.300511
     17          1           0        7.639599   -2.049906    0.349722
     18          1           0        6.665422   -2.509357   -1.052885
     19          1           0        6.332132   -3.227460    0.526614
     20          1           0        5.980219   -0.245194   -0.160728
     21          1           0        5.649435   -0.957654    1.406885
     22          1           0        3.868249   -2.402090    0.373770
     23          1           0        4.198338   -1.686716   -1.193122
     24          1           0        3.566333    0.571293   -0.291463
     25          1           0        3.220555   -0.148624    1.272311
     26          1           0        1.476870   -1.632888    0.167197
     27          1           0        1.771719   -0.811916   -1.355590
     28          1           0        0.673718    0.456922    1.193298
     29          1           0       -0.004866    2.166201   -0.833820
     30          1           0        1.556024    1.656756   -1.435756
     31          1           0        2.589298    2.378845    0.782875
     32          1           0        1.003586    2.891915    1.318691
     33          1           0        2.508665    4.054039   -1.104919
     34          1           0        2.314522    4.844442    0.465145
     35          1           0        0.906492    4.571832   -0.570446
     36          1           0       -1.772689    1.361260    0.193130
     37          1           0       -1.590136    0.059332    1.380632
     38          1           0       -2.720369   -1.513453   -0.218275
     39          1           0       -2.924384   -0.198642   -1.367033
     40          1           0       -4.281424    1.073354    0.380237
     41          1           0       -4.160898   -0.320985    1.447250
     42          1           0       -5.474930   -0.289944   -1.311309
     43          1           0       -5.516229   -2.448811    0.871248
     44          1           0       -4.741669   -2.605147   -0.712472
     45          1           0       -6.505236   -2.449039   -0.602435
     46          1           0       -6.666226   -0.232896    1.227500
 ---------------------------------------------------------------------

 SCF Done:  E(RB3LYP) =  -702.067973521     A.U. after    1 cycles

 The electronic state is 1-A.
 Alpha  occ. eigenvalues --  -19.12893 -19.12746 -10.22783 -10.22429 -10.22203
 Alpha  occ. eigenvalues --  -10.17901 -10.17872 -10.17848 -10.17674 -10.17649
 Alpha  occ. eigenvalues --  -10.17472 -10.17305 -10.17303 -10.17212 -10.17172
 Alpha  occ. eigenvalues --  -10.17026  -1.02293  -1.01000  -0.81106  -0.79449
 Alpha  occ. eigenvalues --   -0.78549  -0.75904  -0.73733  -0.71103  -0.67567
 Alpha  occ. eigenvalues --   -0.66720  -0.62230  -0.59894  -0.58726  -0.58130
 Alpha  occ. eigenvalues --   -0.57296  -0.56334  -0.49320  -0.47911  -0.47613
 Alpha  occ. eigenvalues --   -0.47368  -0.46195  -0.45623  -0.43878  -0.43033
 Alpha  occ. eigenvalues --   -0.42294  -0.41876  -0.41276  -0.40224  -0.39586
 Alpha  occ. eigenvalues --   -0.38542  -0.38154  -0.37904  -0.36569  -0.36259
 Alpha  occ. eigenvalues --   -0.35766  -0.34770  -0.34458  -0.34024  -0.33575
 Alpha  occ. eigenvalues --   -0.33138  -0.32742  -0.32305  -0.31901  -0.31568
 Alpha  occ. eigenvalues --   -0.31364  -0.30655  -0.29621  -0.26056  -0.24477
 Alpha virt. eigenvalues --    0.07730   0.08173   0.09329   0.09754   0.10080
 Alpha virt. eigenvalues --    0.11071   0.11479   0.12007   0.12561   0.12936
 Alpha virt. eigenvalues --    0.13776   0.14065   0.14666   0.14954   0.16129

 Mulliken charges:
               1
     1  C   -0.378717
     2  C   -0.165903
     3  C   -0.158193
     4  C   -0.190874
     5  C   -0.201644
     6  C    0.115122
     7  C   -0.188646
     8  C   -0.170179
     9  C   -0.379157
    10  O   -0.264808
    11  C   -0.063709
    12  C   -0.204355
    13  C   -0.199230
    14  C    0.132156
    15  C   -0.397145
    16  O   -0.432565
    17  H    0.109926
    18  H    0.113156
    19  H    0.112957
    20  H    0.092890
    21  H    0.092781
    22  H    0.091883
    23  H    0.092375
    24  H    0.098456
    25  H    0.090827
    26  H    0.095738
    27  H    0.100851
    28  H    0.056056
    29  H    0.099964
    30  H    0.092619
    31  H    0.102370
    32  H    0.093966
    33  H    0.114230
    34  H    0.110619
    35  H    0.113979
    36  H    0.083615
    37  H    0.080319
    38  H    0.107902
    39  H    0.105645
    40  H    0.103680
    41  H    0.081074
    42  H    0.088594
    43  H    0.102792
    44  H    0.121954
    45  H    0.123740
    46  H    0.272889
 Sum of Mulliken charges =  -0.00000

 Dipole moment (field-independent basis, Debye):
    X=              1.1561    Y=             -0.2207    Z=              1.3517  Tot=              1.7924
 Quadrupole moment (field-independent basis, Debye-Ang):
   XX=           -113.6524   YY=           -104.2895   ZZ=           -101.1527
   XY=              5.5166   XZ=             -5.8101   YZ=             -1.0115

  Exact polarizability: 199.882  -0.515 160.941  -1.334   1.158 137.348
 Approx polarizability: 225.156  -0.902 216.493  -2.788   0.272 220.577

                      1                      2                      3
                      A                      A                      A
 Frequencies --     20.3212                23.4656                32.4343
 Red. masses --      4.2020                 2.8493                 3.5731
 Frc consts  --      0.0010                 0.0009                 0.0022
 IR Inten    --      0.1179                 0.8093                 0.0087

                      4                      5                      6
                      A                      A                      A
 Frequencies --     48.1390                55.1052                65.0792
 Red. masses --      2.9852                 1.9288                 2.3209
 Frc consts  --      0.0041                 0.0035                 0.0058
 IR Inten    --      0.0673                 0.0645                 0.4993

                      7                      8                      9
                      A                      A                      A
 Frequencies --     81.4099                87.1775                97.9665
 Red. masses --      1.7958                 3.6661                 2.1396
 Frc consts  --      0.0070                 0.0164                 0.0121
 IR Inten    --      0.0587                 0.5222                 0.1625

                     10                     11                     12
                      A                      A                      A
 Frequencies --    111.7757               135.9231               149.4193
 Red. masses --      2.2742                 2.4081                 1.7573
 Frc consts  --      0.0167                 0.0262                 0.0231
 IR Inten    --      1.2910                 0.3243                 0.0179

                     13                     14                     15
                      A                      A                      A
 Frequencies --    172.0555               173.7294               187.5994
 Red. masses --      2.4125                 3.0083                 3.9176
 Frc consts  --      0.0421                 0.0535                 0.0812
 IR Inten    --      0.2896                 0.5339                 0.1207

                     16                     17                     18
                      A                      A                      A
 Frequencies --    218.7900               232.3613               247.5021
 Red. masses --      2.9422                 2.2609                 1.1264
 Frc consts  --      0.0830                 0.0719                 0.0407
 IR Inten    --      2.3422                 1.8651                 0.1601

                     19                     20                     21
                      A                      A                      A
 Frequencies --    248.1631               250.6421               276.6756
 Red. masses --      1.1391                 1.2673                 1.1836
 Frc consts  --      0.0413                 0.0469                 0.0534
 IR Inten    --      0.8009                 0.3378                77.5880

                     22                     23                     24
                      A                      A                      A
 Frequencies --    309.7191               333.4776               352.5568
 Red. masses --      3.2023                 3.1257                 2.7627
 Frc consts  --      0.1810                 0.2048                 0.2023
 IR Inten    --     22.9260                 1.2153                 2.1471

                     25                     26                     27
                      A                      A                      A
 Frequencies --    409.0687               438.9725               445.8899
 Red. masses --      3.1383                 3.1140                 2.5337
 Frc consts  --      0.3094                 0.3535                 0.2968
 IR Inten    --      3.0507                 9.9646                 4.1696

                     28                     29                     30
                      A                      A                      A
 Frequencies --    472.5018               485.6745               541.2657
 Red. masses --      2.8558                 2.6863                 2.6628
 Frc consts  --      0.3757                 0.3733                 0.4596
 IR Inten    --      3.8808                 1.1210                 0.4292

                     31                     32                     33
                      A                      A                      A
 Frequencies --    580.2654               734.1137               736.2129
 Red. masses --      3.6290                 1.1141                 1.0724
 Frc consts  --      0.7199                 0.3537                 0.3425
 IR Inten    --      9.3682                 3.3208                 3.1856

                     34                     35                     36
                      A                      A                      A
 Frequencies --    760.6523               761.8245               832.3607
 Red. masses --      1.1217                 1.1399                 2.2368
 Frc consts  --      0.3824                 0.3898                 0.9131
 IR Inten    --      1.5019                 0.0476                 4.5584

                     37                     38                     39
                      A                      A                      A
 Frequencies --    837.9814               857.2451               873.7329
 Red. masses --      1.2676                 1.4416                 1.3074
 Frc consts  --      0.5244                 0.6242                 0.5880
 IR Inten    --      0.6168                 1.8580                 3.7231

                     40                     41                     42
                      A                      A                      A
 Frequencies --    897.8579               904.7319               937.5050
 Red. masses --      1.7033                 1.7575                 2.0170
 Frc consts  --      0.8090                 0.8476                 1.0445
 IR Inten    --      0.9285                 7.4386                 0.5702

                     43                     44                     45
                      A                      A                      A
 Frequencies --    950.9766               978.0600               992.6217
 Red. masses --      1.9715                 2.4433                 1.5854
 Frc consts  --      1.0505                 1.3771                 0.9204
 IR Inten    --      9.4827                15.1214                 2.4286

                     46                     47                     48
                      A                      A                      A
 Frequencies --    995.9831              1019.8390              1044.6777
 Red. masses --      1.2665                 3.3017                 3.4478
 Frc consts  --      0.7402                 2.0233                 2.2169
 IR Inten    --      1.8818                 2.1406                23.0905

                     49                     50                     51
                      A                      A                      A
 Frequencies --   1052.3868              1055.8523              1057.5497
 Red. masses --      2.6030                 2.5549                 2.2177
 Frc consts  --      1.6986                 1.6781                 1.4614
 IR Inten    --     13.3700                 1.3430                10.7240

                     52                     53                     54
                      A                      A                      A
 Frequencies --   1065.8667              1071.3604              1087.4793
 Red. masses --      1.8207                 1.8073                 2.0854
 Frc consts  --      1.2187                 1.2222                 1.4531
 IR Inten    --      6.8335                 4.7984                55.1334

                     55                     56                     57
                      A                      A                      A
 Frequencies --   1097.2885              1127.4319              1137.0032
 Red. masses --      1.9287                 3.3455                 2.5848
 Frc consts  --      1.3682                 2.5055                 1.9688
 IR Inten    --     26.4055                91.8049                55.0900

                     58                     59                     60
                      A                      A                      A
 Frequencies --   1138.9172              1152.1072              1176.2250
 Red. masses --      2.9156                 2.8707                 1.9744
 Frc consts  --      2.2282                 2.2450                 1.6094
 IR Inten    --    117.2849                 1.9075                23.5400

                     61                     62                     63
                      A                      A                      A
 Frequencies --   1196.0740              1218.8988              1231.5786
 Red. masses --      2.0571                 1.3539                 1.5695
 Frc consts  --      1.7339                 1.1851                 1.4026
 IR Inten    --     12.4481                 2.8023                 1.7158

                     64                     65                     66
                      A                      A                      A
 Frequencies --   1256.4939              1262.0504              1265.5296
 Red. masses --      1.2800                 1.3361                 1.3344
 Frc consts  --      1.1906                 1.2538                 1.2592
 IR Inten    --      0.5337                17.0297                 4.1730

                     67                     68                     69
                      A                      A                      A
 Frequencies --   1291.1931              1293.7770              1303.3089
 Red. masses --      1.2627                 1.2307                 1.2721
 Frc consts  --      1.2403                 1.2137                 1.2731
 IR Inten    --      0.9424                 0.2196                 5.3884

                     70                     71                     72
                      A                      A                      A
 Frequencies --   1314.2514              1319.4045              1324.2632
 Red. masses --      1.1466                 1.2363                 1.2009
 Frc consts  --      1.1668                 1.2680                 1.2408
 IR Inten    --      2.2462                 7.9881                 3.1836

                     73                     74                     75
                      A                      A                      A
 Frequencies --   1327.8868              1331.9114              1334.4236
 Red. masses --      1.1340                 1.0858                 1.1624
 Frc consts  --      1.1781                 1.1348                 1.2195
 IR Inten    --      0.4709                 0.9380                 0.4034

                     76                     77                     78
                      A                      A                      A
 Frequencies --   1363.0306              1371.3633              1375.9497
 Red. masses --      1.2971                 1.3231                 1.3525
 Frc consts  --      1.4198                 1.4661                 1.5087
 IR Inten    --      7.0148                32.0819                 2.7299

                     79                     80                     81
                      A                      A                      A
 Frequencies --   1387.6154              1390.4443              1397.2592
 Red. masses --      1.5204                 1.5530                 1.5312
 Frc consts  --      1.7248                 1.7690                 1.7613
 IR Inten    --      6.4927                 6.9194                10.6270

                     82                     83                     84
                      A                      A                      A
 Frequencies --   1402.1917              1403.4760              1412.6266
 Red. masses --      1.5337                 1.2643                 1.2349
 Frc consts  --      1.7767                 1.4673                 1.4519
 IR Inten    --     17.5340                 4.4525                 1.0894

                     85                     86                     87
                      A                      A                      A
 Frequencies --   1413.4529              1423.0871              1441.5324
 Red. masses --      1.2551                 1.2284                 1.4619
 Frc consts  --      1.4774                 1.4657                 1.7899
 IR Inten    --      1.2988                53.1115                 5.6327

                     88                     89                     90
                      A                      A                      A
 Frequencies --   1480.0585              1481.4902              1483.5922
 Red. masses --      1.0784                 1.0738                 1.0694
 Frc consts  --      1.3919                 1.3886                 1.3868
 IR Inten    --      2.0174                 0.5668                 0.6197

                     91                     92                     93
                      A                      A                      A
 Frequencies --   1486.6995              1492.2768              1493.2074
 Red. masses --      1.0689                 1.0654                 1.0605
 Frc consts  --      1.3920                 1.3978                 1.3931
 IR Inten    --      3.4996                 0.3942                 4.7341

                     94                     95                     96
                      A                      A                      A
 Frequencies --   1494.9843              1497.6268              1499.3852
 Red. masses --      1.0653                 1.0643                 1.0406
 Frc consts  --      1.4027                 1.4065                 1.3783
 IR Inten    --      1.9572                 0.8972                 5.3919

                     97                     98                     99
                      A                      A                      A
 Frequencies --   1499.8097              1502.5589              1505.0540
 Red. masses --      1.0402                 1.0816                 1.0816
 Frc consts  --      1.3787                 1.4387                 1.4435
 IR Inten    --      4.9192                 4.4157                 1.1918

                    100                    101                    102
                      A                      A                      A
 Frequencies --   1511.0462              1514.8716              1528.3166
 Red. masses --      1.0841                 1.0937                 1.0896
 Frc consts  --      1.4584                 1.4788                 1.4995
 IR Inten    --      4.6560                 2.0423                 4.7390

                    103                    104                    105
                      A                      A                      A
 Frequencies --   2937.5889              2947.0138              2971.6972
 Red. masses --      1.0710                 1.0676                 1.1005
 Frc consts  --      5.4452                 5.4628                 5.7262
 IR Inten    --      7.3300                59.9935                38.1474

                    106                    107                    108
                      A                      A                      A
 Frequencies --   2993.6064              3001.3817              3005.0808
 Red. masses --      1.0661                 1.0581                 1.0604
 Frc consts  --      5.6291                 5.6161                 5.6419
 IR Inten    --     20.2961                 0.2496                 5.1057

                    109                    110                    111
                      A                      A                      A
 Frequencies --   3014.3120              3015.4092              3020.9339
 Red. masses --      1.0610                 1.0638                 1.0505
 Frc consts  --      5.6798                 5.6989                 5.6482
 IR Inten    --     25.9106                12.7951                 6.8670

                    112                    113                    114
                      A                      A                      A
 Frequencies --   3022.7638              3024.9174              3025.4503
 Red. masses --      1.0619                 1.0737                 1.0761
 Frc consts  --      5.7168                 5.7882                 5.8037
 IR Inten    --     19.2235                21.4747                39.5778

                    115                    116                    117
                      A                      A                      A
 Frequencies --   3028.1674              3029.1347              3030.2341
 Red. masses --      1.0361                 1.0427                 1.0657
 Frc consts  --      5.5977                 5.6367                 5.7656
 IR Inten    --     53.4494                42.6695                 7.9661

                    118                    119                    120
                      A                      A                      A
 Frequencies --   3035.0840              3039.0223              3049.2163
 Red. masses --      1.0670                 1.0995                 1.0938
 Frc consts  --      5.7909                 5.9829                 5.9921
 IR Inten    --     48.7981                 1.7994                 5.4471

                    121                    122                    123
                      A                      A                      A
 Frequencies --   3051.7391              3054.6353              3068.0263
 Red. masses --      1.0950                 1.1035                 1.1008
 Frc consts  --      6.0086                 6.0667                 6.1049
 IR Inten    --     10.9704                10.5526                38.9214

                    124                    125                    126
                      A                      A                      A
 Frequencies --   3073.2547              3082.4346              3094.3182
 Red. masses --      1.1032                 1.1027                 1.1020
 Frc consts  --      6.1393                 6.1727                 6.2169
 IR Inten    --     64.4187                59.7314                57.0090

                    127                    128                    129
                      A                      A                      A
 Frequencies --   3096.0877              3096.3312              3099.7759
 Red. masses --      1.1020                 1.0943                 1.1010
 Frc consts  --      6.2238                 6.1815                 6.2329
 IR Inten    --     60.1087                38.9046                32.6867

                    130                    131                    132
                      A                      A                      A
 Frequencies --   3100.3267              3120.6746              3796.4124
 Red. masses --      1.1009                 1.1018                 1.0658
 Frc consts  --      6.2344                 6.3219                 9.0506
 IR Inten    --     44.5892                27.4389                11.4756

 - Thermochemistry -
 -------------------
 Temperature   298.150 Kelvin.  Pressure   1.00000 Atm.
 Atom     1 has atomic number  6 and mass  12.00000

 Molecular mass:   230.22458 amu.
 Principal axes and moments of inertia in atomic units:
                           1         2         3
     Eigenvalues --  2494.62261********************
           X            1.00000   0.00098  -0.00028
           Y           -0.00098   1.00000  -0.00018
           Z            0.00028   0.00018   1.00000
 This molecule is an asymmetric top.
 Rotational symmetry number  1.
 Warning -- assumption of classical behavior for rotation
           may cause significant error
 Rotational temperatures (Kelvin)      0.03472     0.00652     0.00561
 Rotational constants (GHZ):           0.72345     0.13587     0.11680
 Zero-point vibrational energy    1112946.1 (Joules/Mol)
                                  266.00050 (Kcal/Mol)
 Warning -- explicit consideration of  31 degrees of freedom as
           vibrations may cause significant error
 Vibrational temperatures:     29.24    33.76    46.67    69.26    79.28
          (Kelvin)             93.63   117.13   125.43   140.95   160.82
                              195.56   214.98   247.55   249.96   269.91
                              314.79   334.32   356.10   357.05   360.62
                              398.07   445.62   479.80   507.25   588.56
                              631.58   641.54   679.82   698.78   778.76
                              834.87  1056.23  1059.25  1094.41  1096.10
                             1197.58  1205.67  1233.38  1257.11  1291.82
                             1301.71  1348.86  1368.24  1407.21  1428.16
                             1433.00  1467.32  1503.06  1514.15  1519.14
                             1521.58  1533.54  1541.45  1564.64  1578.75
                             1622.12  1635.89  1638.65  1657.63  1692.33
                             1720.88  1753.72  1771.97  1807.81  1815.81
                             1820.81  1857.74  1861.46  1875.17  1890.91
                             1898.33  1905.32  1910.53  1916.32  1919.94
                             1961.10  1973.09  1979.68  1996.47  2000.54
                             2010.34  2017.44  2019.29  2032.45  2033.64
                             2047.50  2074.04  2129.47  2131.53  2134.56
                             2139.03  2147.05  2148.39  2150.95  2154.75
                             2157.28  2157.89  2161.85  2165.44  2174.06
                             2179.56  2198.91  4226.54  4240.10  4275.61
                             4307.13  4318.32  4323.64  4336.92  4338.50
                             4346.45  4349.08  4352.18  4352.95  4356.86
                             4358.25  4359.83  4366.81  4372.48  4387.14
                             4390.77  4394.94  4414.21  4421.73  4434.94
                             4452.03  4454.58  4454.93  4459.89  4460.68
                             4489.95  5462.19

 Zero-point correction=                           0.423899 (Hartree/Particle)
 Thermal correction to Energy=                    0.445403
 Thermal correction to Enthalpy=                  0.446347
 Thermal correction to Gibbs Free Energy=         0.370430
 Sum of electronic and zero-point Energies=           -701.644075
 Sum of electronic and thermal Energies=              -701.622571
 Sum of electronic and thermal Enthalpies=            -701.621627
 Sum of electronic and thermal Free Energies=         -701.697544

                     E (Thermal)             CV                S
                      KCal/Mol        Cal/Mol-Kelvin    Cal/Mol-Kelvin
 Total                  279.494             76.683            159.781
 Electronic               0.000              0.000              0.000
 Translational            0.889              2.981             42.204
 Rotational               0.889              2.981             34.592
 Vibrational            277.717             70.722             82.985
 Vibration     1          0.593              1.986              6.603
 Vibration     2          0.593              1.985              6.317
 Vibration     3          0.594              1.983              5.675
 Vibration     4          0.595              1.978              4.892
 Vibration     5          0.596              1.976              4.625
 Vibration     6          0.597              1.971              4.297
 Vibration     7          0.600              1.962              3.857
 Vibration     8          0.601              1.958              3.722
 Vibration     9          0.603              1.951              3.494
 Vibration    10          0.607              1.940              3.238
 Vibration    11          0.614              1.917              2.860
 Vibration    12          0.618              1.903              2.680
 Vibration    13          0.626              1.877              2.413
 Vibration    14          0.627              1.875              2.395
 Vibration    15          0.632              1.857              2.251
 Vibration    16          0.647              1.812              1.969
 Vibration    17          0.653              1.791              1.861
 Vibration    18          0.661              1.767              1.748
 Vibration    19          0.662              1.766              1.744
 Vibration    20          0.663              1.762              1.726
 Vibration    21          0.678              1.717              1.554
 Vibration    22          0.699              1.655              1.364
 Vibration    23          0.715              1.609              1.243
 Vibration    24          0.729              1.570              1.155
 Vibration    25          0.773              1.451              0.930
 Vibration    26          0.799              1.385              0.830
 Vibration    27          0.805              1.370              0.808
 Vibration    28          0.829              1.311              0.731
 Vibration    29          0.842              1.282              0.695
 Vibration    30          0.896              1.159              0.563
 Vibration    31          0.937              1.074              0.485

                           ! Non-Optimized Parameters !
 Normal termination of Gaussian 16 at Mon May 22 22:50:48 2023.
