 Gaussian 16, Revision A.03,
 Gaussian 16:  ES64L-G16RevA.03 25-Dec-2016

 -----------------------------
 # opt freq b3lyp/6-31g(2df,p)
 -----------------------------

 -------------------
 Title Card Required
 -------------------
 Symbolic Z-matrix:
 Charge =  0 Multiplicity = 1

 SCF Done:  E(RB3LYP) =  -626.776726270     A.U. after   12 cycles
 SCF Done:  E(RB3LYP) =  -626.786006799     A.U. after   10 cycles
 SCF Done:  E(RB3LYP) =  -626.792116638     A.U. after   11 cycles
 SCF Done:  E(RB3LYP) =  -626.778499188     A.U. after   11 cycles
 SCF Done:  E(RB3LYP) =  -626.793924603     A.U. after   11 cycles
 SCF Done:  E(RB3LYP) =  -626.795736821     A.U. after   10 cycles
 SCF Done:  E(RB3LYP) =  -626.795741545     A.U. after   10 cycles
 SCF Done:  E(RB3LYP) =  -626.803397423     A.U. after   10 cycles
 SCF Done:  E(RB3LYP) =  -626.806018062     A.U. after   11 cycles
 SCF Done:  E(RB3LYP) =  -626.811348167     A.U. after   10 cycles
 SCF Done:  E(RB3LYP) =  -626.828104387     A.U. after    9 cycles
 SCF Done:  E(RB3LYP) =  -626.828143203     A.U. after    8 cycles
 SCF Done:  E(RB3LYP) =  -626.828158121     A.U. after    8 cycles
 SCF Done:  E(RB3LYP) =  -626.828173665     A.U. after    8 cycles
 SCF Done:  E(RB3LYP) =  -626.828177617     A.U. after    8 cycles
 SCF Done:  E(RB3LYP) =  -626.828180284     A.U. after    7 cycles
 SCF Done:  E(RB3LYP) =  -626.828180816     A.U. after    6 cycles
 SCF Done:  E(RB3LYP) =  -626.828181013     A.U. after    6 cycles
 SCF Done:  E(RB3LYP) =  -626.828181047     A.U. after    6 cycles
 Optimization completed.
    -- Stationary point found.
 Normal termination of Gaussian 16 at Tue May 23 23:48:19 2023.

 ----------------------------------------------------------------------
 #N Geom=AllCheck Guess=TCheck SCRF=Check GenChk RB3LYP/6-31G(2df,p) Fr
 eq
 ----------------------------------------------------------------------

 Structure from the checkpoint file:  "CCCCqCCCrCqCCrCqCrCOC.chk"
 -------------------
 Title Card Required
 -------------------
 Charge =  0 Multiplicity = 1

                         Standard orientation:
 ---------------------------------------------------------------------
 Center     Atomic      Atomic             Coordinates (Angstroms)
 Number     Number       Type             X           Y           Z
 ---------------------------------------------------------------------
      1          6           0       -2.481694   -3.585606   -0.241963
      2          6           0       -2.288038   -2.108264   -0.596883
      3          6           0       -1.179158   -1.439754    0.226371
      4          6           0       -0.925024    0.040823   -0.127208
      5          6           0       -2.142971    0.948825    0.210027
      6          6           0       -2.922081    1.425739   -1.024400
      7          6           0       -4.121877    2.309370   -0.673506
      8          6           0        0.430540    0.574453    0.445989
      9          6           0        0.678838    0.210098    1.927820
     10          6           0       -0.362477    0.724605    2.930182
     11          6           0        1.599989    0.157686   -0.503743
     12          6           0        1.623253    1.036220   -1.766720
     13          6           0        2.985715    0.186700    0.151222
     14          8           0        3.944616   -0.223894   -0.804293
     15          6           0        5.253480   -0.238885   -0.293056
     16          1           0       -3.273585   -4.041857   -0.844388
     17          1           0       -2.754252   -3.707157    0.812491
     18          1           0       -1.562520   -4.157548   -0.411778
     19          1           0       -3.235786   -1.575928   -0.449690
     20          1           0       -2.050459   -2.016344   -1.665132
     21          1           0       -0.254220   -2.013735    0.081624
     22          1           0       -1.427063   -1.532817    1.291794
     23          1           0       -0.816469    0.073593   -1.218205
     24          1           0       -1.809988    1.834010    0.763287
     25          1           0       -2.833348    0.424022    0.883591
     26          1           0       -3.261774    0.557918   -1.603575
     27          1           0       -2.240360    1.978861   -1.684437
     28          1           0       -4.839996    1.771076   -0.044515
     29          1           0       -4.651285    2.642139   -1.571977
     30          1           0       -3.808008    3.202852   -0.121920
     31          1           0        0.379315    1.672614    0.401917
     32          1           0        1.645318    0.627634    2.228302
     33          1           0        0.778176   -0.877076    2.035600
     34          1           0       -0.473820    1.812590    2.864420
     35          1           0       -0.051265    0.487703    3.952977
     36          1           0       -1.350193    0.282737    2.777907
     37          1           0        1.438793   -0.883667   -0.814160
     38          1           0        1.840109    2.078526   -1.501365
     39          1           0        0.666813    1.022574   -2.296134
     40          1           0        2.399555    0.698283   -2.455188
     41          1           0        3.030131   -0.485415    1.020889
     42          1           0        3.222575    1.204953    0.511839
     43          1           0        5.916565   -0.573135   -1.095123
     44          1           0        5.353258   -0.929253    0.560349
     45          1           0        5.575886    0.760935    0.040151
 ---------------------------------------------------------------------

 SCF Done:  E(RB3LYP) =  -626.828181047     A.U. after    1 cycles

 The electronic state is 1-A.
 Alpha  occ. eigenvalues --  -19.13450 -10.22042 -10.21848 -10.18016 -10.17958
 Alpha  occ. eigenvalues --  -10.17654 -10.17499 -10.17494 -10.17399 -10.17116
 Alpha  occ. eigenvalues --  -10.16970 -10.16964 -10.16924 -10.16865 -10.16128
 Alpha  occ. eigenvalues --   -1.02782  -0.82768  -0.78987  -0.77103  -0.75700
 Alpha  occ. eigenvalues --   -0.72735  -0.69650  -0.67093  -0.66769  -0.63806
 Alpha  occ. eigenvalues --   -0.60774  -0.58644  -0.57902  -0.56207  -0.53712
 Alpha  occ. eigenvalues --   -0.48334  -0.47751  -0.46832  -0.45687  -0.45185
 Alpha  occ. eigenvalues --   -0.44677  -0.42666  -0.41998  -0.41817  -0.40418
 Alpha  occ. eigenvalues --   -0.40170  -0.39019  -0.38853  -0.38545  -0.37643
 Alpha  occ. eigenvalues --   -0.37446  -0.36281  -0.35729  -0.34630  -0.34153
 Alpha  occ. eigenvalues --   -0.33530  -0.33369  -0.32591  -0.32470  -0.32009
 Alpha  occ. eigenvalues --   -0.31303  -0.30860  -0.29376  -0.29293  -0.28171
 Alpha  occ. eigenvalues --   -0.25009
 Alpha virt. eigenvalues --    0.08128   0.08944   0.09280   0.09765   0.10125
 Alpha virt. eigenvalues --    0.11935   0.12137   0.12699   0.12924   0.14063
 Alpha virt. eigenvalues --    0.14244   0.15107   0.15691   0.16053   0.16119

 Mulliken charges:
               1
     1  C   -0.383142
     2  C   -0.173893
     3  C   -0.180065
     4  C    0.028290
     5  C   -0.192089
     6  C   -0.177810
     7  C   -0.381926
     8  C   -0.020811
     9  C   -0.190318
    10  C   -0.395872
    11  C    0.004190
    12  C   -0.398252
    13  C   -0.084507
    14  O   -0.235045
    15  C   -0.226613
    16  H    0.109720
    17  H    0.112188
    18  H    0.113245
    19  H    0.099359
    20  H    0.093497
    21  H    0.092705
    22  H    0.093078
    23  H    0.071417
    24  H    0.091148
    25  H    0.087694
    26  H    0.098296
    27  H    0.095370
    28  H    0.112244
    29  H    0.109773
    30  H    0.112513
    31  H    0.060696
    32  H    0.096721
    33  H    0.097441
    34  H    0.112465
    35  H    0.106694
    36  H    0.122464
    37  H    0.079512
    38  H    0.104855
    39  H    0.110932
    40  H    0.132518
    41  H    0.085730
    42  H    0.079545
    43  H    0.124293
    44  H    0.100572
    45  H    0.101178
 Sum of Mulliken charges =  -0.00000

 Dipole moment (field-independent basis, Debye):
    X=              0.2566    Y=              0.1380    Z=              0.8818  Tot=              0.9287
 Quadrupole moment (field-independent basis, Debye-Ang):
   XX=            -95.7023   YY=            -99.8815   ZZ=           -100.6813
   XY=              0.9259   XZ=              3.4244   YZ=             -0.0371

  Exact polarizability: 182.205  -2.199 150.874   0.991  -0.526 147.508
 Approx polarizability: 221.595  -0.621 215.230  -0.800   0.693 216.490

                      1                      2                      3
                      A                      A                      A
 Frequencies --     28.3483                43.8085                54.0877
 Red. masses --      3.3360                 2.9352                 3.0375
 Frc consts  --      0.0016                 0.0033                 0.0052
 IR Inten    --      0.0704                 0.0683                 0.1405

                      4                      5                      6
                      A                      A                      A
 Frequencies --     76.5796                81.2437                94.8682
 Red. masses --      2.5731                 1.8853                 2.3727
 Frc consts  --      0.0089                 0.0073                 0.0126
 IR Inten    --      0.2865                 0.4539                 0.0853

                      7                      8                      9
                      A                      A                      A
 Frequencies --     98.1199               108.2886               118.5656
 Red. masses --      2.4093                 1.6195                 2.5793
 Frc consts  --      0.0137                 0.0112                 0.0214
 IR Inten    --      1.8942                 0.1171                 0.1033

                     10                     11                     12
                      A                      A                      A
 Frequencies --    148.4078               163.8793               189.3870
 Red. masses --      2.5196                 1.8412                 2.3235
 Frc consts  --      0.0327                 0.0291                 0.0491
 IR Inten    --      0.7792                 0.1787                 0.0879

                     13                     14                     15
                      A                      A                      A
 Frequencies --    209.3426               219.4394               238.1630
 Red. masses --      1.0837                 2.7727                 1.8354
 Frc consts  --      0.0280                 0.0787                 0.0613
 IR Inten    --      0.3745                 0.3486                 0.6482

                     16                     17                     18
                      A                      A                      A
 Frequencies --    242.3274               247.7907               252.4554
 Red. masses --      1.2324                 1.2277                 1.4214
 Frc consts  --      0.0426                 0.0444                 0.0534
 IR Inten    --      0.1628                 0.1937                 0.1918

                     19                     20                     21
                      A                      A                      A
 Frequencies --    257.1635               284.7068               291.5773
 Red. masses --      1.6813                 2.6987                 2.1141
 Frc consts  --      0.0655                 0.1289                 0.1059
 IR Inten    --      1.7422                 0.8373                 0.6233

                     22                     23                     24
                      A                      A                      A
 Frequencies --    316.1830               338.4240               362.0059
 Red. masses --      2.5982                 2.7640                 2.6942
 Frc consts  --      0.1530                 0.1865                 0.2080
 IR Inten    --      0.0749                 0.6159                 0.3255

                     25                     26                     27
                      A                      A                      A
 Frequencies --    395.5021               438.9222               461.0681
 Red. masses --      2.5626                 3.1285                 2.5018
 Frc consts  --      0.2362                 0.3551                 0.3134
 IR Inten    --      0.2600                 0.4423                 0.3798

                     28                     29                     30
                      A                      A                      A
 Frequencies --    497.5600               582.8280               607.6607
 Red. masses --      2.4655                 2.6885                 2.3693
 Frc consts  --      0.3596                 0.5381                 0.5155
 IR Inten    --      0.6357                 1.3406                 1.4660

                     31                     32                     33
                      A                      A                      A
 Frequencies --    738.3970               749.2923               788.2427
 Red. masses --      1.1076                 1.1148                 1.4956
 Frc consts  --      0.3558                 0.3688                 0.5475
 IR Inten    --      1.7924                 2.1726                 4.6947

                     34                     35                     36
                      A                      A                      A
 Frequencies --    836.0962               850.1942               867.4328
 Red. masses --      1.7692                 1.5628                 1.7201
 Frc consts  --      0.7287                 0.6656                 0.7625
 IR Inten    --      0.5033                 0.2622                 0.2150

                     37                     38                     39
                      A                      A                      A
 Frequencies --    876.3810               905.8208               912.5379
 Red. masses --      1.6634                 1.7972                 1.7311
 Frc consts  --      0.7527                 0.8688                 0.8493
 IR Inten    --      0.0966                 0.8448                 3.3391

                     40                     41                     42
                      A                      A                      A
 Frequencies --    929.7657               938.7630               971.8529
 Red. masses --      1.2267                 2.0835                 1.9935
 Frc consts  --      0.6248                 1.0818                 1.1094
 IR Inten    --      2.2906                 1.5094                 2.7508

                     43                     44                     45
                      A                      A                      A
 Frequencies --    990.3719               997.5179              1023.2233
 Red. masses --      3.5489                 1.7752                 2.3362
 Frc consts  --      2.0509                 1.0407                 1.4411
 IR Inten    --     23.2034                 4.6639                 0.1242

                     46                     47                     48
                      A                      A                      A
 Frequencies --   1039.7464              1055.7190              1058.2380
 Red. masses --      1.8635                 2.4718                 2.0536
 Frc consts  --      1.1870                 1.6232                 1.3550
 IR Inten    --      0.3079                 0.3161                 0.2382

                     49                     50                     51
                      A                      A                      A
 Frequencies --   1078.0134              1078.1794              1093.1328
 Red. masses --      2.0791                 1.9786                 1.7410
 Frc consts  --      1.4235                 1.3551                 1.2257
 IR Inten    --      2.4776                 0.8234                 1.3014

                     52                     53                     54
                      A                      A                      A
 Frequencies --   1096.3842              1131.9567              1154.3973
 Red. masses --      1.7314                 2.0848                 2.5082
 Frc consts  --      1.2262                 1.5739                 1.9693
 IR Inten    --      1.2383                11.3100                22.9139

                     55                     56                     57
                      A                      A                      A
 Frequencies --   1159.4990              1171.6418              1183.7571
 Red. masses --      4.1283                 1.9709                 1.9683
 Frc consts  --      3.2701                 1.5941                 1.6250
 IR Inten    --    147.4395                33.1370                 0.4695

                     58                     59                     60
                      A                      A                      A
 Frequencies --   1190.3739              1196.1975              1226.7942
 Red. masses --      1.8740                 1.8314                 1.6041
 Frc consts  --      1.5645                 1.5440                 1.4224
 IR Inten    --      2.1197                 1.6452                33.8367

                     61                     62                     63
                      A                      A                      A
 Frequencies --   1253.2120              1267.0840              1278.0738
 Red. masses --      1.3850                 1.2742                 1.2728
 Frc consts  --      1.2816                 1.2053                 1.2249
 IR Inten    --      0.3525                 2.3385                 3.9687

                     64                     65                     66
                      A                      A                      A
 Frequencies --   1285.1531              1295.0281              1300.6103
 Red. masses --      1.2527                 1.2487                 1.2867
 Frc consts  --      1.2190                 1.2338                 1.2824
 IR Inten    --      2.2153                 0.1647                 3.1606

                     67                     68                     69
                      A                      A                      A
 Frequencies --   1309.8452              1330.6029              1336.9612
 Red. masses --      1.2382                 1.1119                 1.0940
 Frc consts  --      1.2517                 1.1598                 1.1521
 IR Inten    --      3.6251                 0.2429                 0.6432

                     70                     71                     72
                      A                      A                      A
 Frequencies --   1353.2213              1353.3512              1360.1183
 Red. masses --      1.1936                 1.3518                 1.2396
 Frc consts  --      1.2878                 1.4587                 1.3511
 IR Inten    --      1.2496                 1.9393                 2.7720

                     73                     74                     75
                      A                      A                      A
 Frequencies --   1365.5921              1383.0673              1390.0848
 Red. masses --      1.3268                 1.3539                 1.4419
 Frc consts  --      1.4578                 1.5259                 1.6416
 IR Inten    --      1.9684                 1.1085                 2.5042

                     76                     77                     78
                      A                      A                      A
 Frequencies --   1394.0560              1403.1404              1409.1132
 Red. masses --      1.4488                 1.3112                 1.3259
 Frc consts  --      1.6588                 1.5210                 1.5511
 IR Inten    --      1.3071                 4.1861                 2.7305

                     79                     80                     81
                      A                      A                      A
 Frequencies --   1411.7471              1414.0646              1414.8747
 Red. masses --      1.2337                 1.2409                 1.2779
 Frc consts  --      1.4487                 1.4620                 1.5072
 IR Inten    --      0.8842                 1.2118                 3.0937

                     82                     83                     84
                      A                      A                      A
 Frequencies --   1425.4380              1478.5380              1480.2160
 Red. masses --      1.3042                 1.0748                 1.1514
 Frc consts  --      1.5613                 1.3843                 1.4864
 IR Inten    --     18.7769                 0.4176                 2.9169

                     85                     86                     87
                      A                      A                      A
 Frequencies --   1484.8981              1485.2962              1490.7259
 Red. masses --      1.0470                 1.0646                 1.0591
 Frc consts  --      1.3602                 1.3837                 1.3867
 IR Inten    --      4.8171                 2.2493                 1.0841

                     88                     89                     90
                      A                      A                      A
 Frequencies --   1492.9410              1493.2185              1496.2649
 Red. masses --      1.0635                 1.0509                 1.0632
 Frc consts  --      1.3966                 1.3806                 1.4024
 IR Inten    --      0.1713                 2.8341                 0.4061

                     91                     92                     93
                      A                      A                      A
 Frequencies --   1499.2942              1499.6579              1501.6752
 Red. masses --      1.0406                 1.0404                 1.0481
 Frc consts  --      1.3782                 1.3786                 1.3925
 IR Inten    --      5.2185                 6.2554                 5.8274

                     94                     95                     96
                      A                      A                      A
 Frequencies --   1504.0308              1505.9873              1507.6000
 Red. masses --      1.0592                 1.0553                 1.0702
 Frc consts  --      1.4117                 1.4101                 1.4331
 IR Inten    --     10.1323                 4.8015                 8.0990

                     97                     98                     99
                      A                      A                      A
 Frequencies --   1511.6480              1514.3152              1530.6761
 Red. masses --      1.0841                 1.0747                 1.0856
 Frc consts  --      1.4595                 1.4519                 1.4986
 IR Inten    --      0.1607                 2.2084                 1.3849

                    100                    101                    102
                      A                      A                      A
 Frequencies --   2932.7070              2964.4245              2982.3315
 Red. masses --      1.0648                 1.0393                 1.0817
 Frc consts  --      5.3957                 5.3810                 5.6683
 IR Inten    --     36.2524                78.1008                13.6926

                    103                    104                    105
                      A                      A                      A
 Frequencies --   2997.5474              3005.6752              3007.6053
 Red. masses --      1.0871                 1.1017                 1.0603
 Frc consts  --      5.7550                 5.8640                 5.6510
 IR Inten    --     39.7126                54.5477                 3.2436

                    106                    107                    108
                      A                      A                      A
 Frequencies --   3011.4304              3013.7655              3016.8437
 Red. masses --      1.0625                 1.0716                 1.0682
 Frc consts  --      5.6772                 5.7343                 5.7282
 IR Inten    --      3.4145                 3.8332                16.5528

                    109                    110                    111
                      A                      A                      A
 Frequencies --   3018.5953              3023.8726              3027.1242
 Red. masses --      1.0749                 1.0653                 1.0372
 Frc consts  --      5.7707                 5.7390                 5.5997
 IR Inten    --     16.6613                30.6711                48.7119

                    112                    113                    114
                      A                      A                      A
 Frequencies --   3027.7161              3031.4695              3033.5746
 Red. masses --      1.0405                 1.0560                 1.0503
 Frc consts  --      5.6196                 5.7174                 5.6948
 IR Inten    --     28.6565                 9.1145                62.1054

                    115                    116                    117
                      A                      A                      A
 Frequencies --   3034.2229              3039.2144              3042.2274
 Red. masses --      1.0465                 1.0936                 1.0940
 Frc consts  --      5.6764                 5.9517                 5.9657
 IR Inten    --     56.2608                20.7522                 3.1629

                    118                    119                    120
                      A                      A                      A
 Frequencies --   3059.8864              3065.4169              3067.0458
 Red. masses --      1.1018                 1.1010                 1.0976
 Frc consts  --      6.0781                 6.0957                 6.0831
 IR Inten    --     47.3541                13.8950                34.8696

                    121                    122                    123
                      A                      A                      A
 Frequencies --   3093.0080              3094.2728              3094.6210
 Red. masses --      1.1019                 1.1016                 1.1016
 Frc consts  --      6.2111                 6.2142                 6.2155
 IR Inten    --     33.2287                45.5843                75.0577

                    124                    125                    126
                      A                      A                      A
 Frequencies --   3098.7212              3099.3367              3100.0159
 Red. masses --      1.1008                 1.1009                 1.0939
 Frc consts  --      6.2276                 6.2305                 6.1936
 IR Inten    --     19.3735                49.9383                44.7010

                    127                    128                    129
                      A                      A                      A
 Frequencies --   3108.9089              3118.9976              3135.7585
 Red. masses --      1.0954                 1.0992                 1.0990
 Frc consts  --      6.2379                 6.3003                 6.3671
 IR Inten    --     34.1795                42.8374                19.9234

 - Thermochemistry -
 -------------------
 Temperature   298.150 Kelvin.  Pressure   1.00000 Atm.
 Atom     1 has atomic number  6 and mass  12.00000

 Molecular mass:   214.22967 amu.
 Principal axes and moments of inertia in atomic units:
                           1         2         3
     Eigenvalues --  2736.703826583.540607164.70111
           X            0.99998   0.00086   0.00671
           Y           -0.00082   0.99998  -0.00692
           Z           -0.00672   0.00691   0.99995
 This molecule is an asymmetric top.
 Rotational symmetry number  1.
 Warning -- assumption of classical behavior for rotation
           may cause significant error
 Rotational temperatures (Kelvin)      0.03165     0.01316     0.01209
 Rotational constants (GHZ):           0.65946     0.27413     0.25189
 Zero-point vibrational energy    1102337.2 (Joules/Mol)
                                  263.46491 (Kcal/Mol)
 Warning -- explicit consideration of  30 degrees of freedom as
           vibrations may cause significant error
 Vibrational temperatures:     40.79    63.03    77.82   110.18   116.89
          (Kelvin)            136.49   141.17   155.80   170.59   213.53
                              235.79   272.49   301.20   315.72   342.66
                              348.66   356.52   363.23   370.00   409.63
                              419.51   454.92   486.92   520.85   569.04
                              631.51   663.37   715.88   838.56   874.29
                             1062.39  1078.06  1134.11  1202.96  1223.24
                             1248.04  1260.92  1303.27  1312.94  1337.73
                             1350.67  1398.28  1424.92  1435.21  1472.19
                             1495.96  1518.94  1522.57  1551.02  1551.26
                             1572.77  1577.45  1628.63  1660.92  1668.26
                             1685.73  1703.16  1712.68  1721.06  1765.08
                             1803.09  1823.05  1838.86  1849.05  1863.26
                             1871.29  1884.58  1914.44  1923.59  1946.98
                             1947.17  1956.91  1964.78  1989.93  2000.02
                             2005.74  2018.81  2027.40  2031.19  2034.52
                             2035.69  2050.89  2127.29  2129.70  2136.44
                             2137.01  2144.82  2148.01  2148.41  2152.79
                             2157.15  2157.67  2160.58  2163.96  2166.78
                             2169.10  2174.92  2178.76  2202.30  4219.51
                             4265.15  4290.91  4312.80  4324.50  4327.27
                             4332.78  4336.14  4340.57  4343.09  4350.68
                             4355.36  4356.21  4361.61  4364.64  4365.57
                             4372.75  4377.09  4402.49  4410.45  4412.79
                             4450.15  4451.97  4452.47  4458.37  4459.25
                             4460.23  4473.03  4487.54  4511.66

 Zero-point correction=                           0.419858 (Hartree/Particle)
 Thermal correction to Energy=                    0.439965
 Thermal correction to Enthalpy=                  0.440909
 Thermal correction to Gibbs Free Energy=         0.371054
 Sum of electronic and zero-point Energies=           -626.408323
 Sum of electronic and thermal Energies=              -626.388216
 Sum of electronic and thermal Enthalpies=            -626.387272
 Sum of electronic and thermal Free Energies=         -626.457127

                     E (Thermal)             CV                S
                      KCal/Mol        Cal/Mol-Kelvin    Cal/Mol-Kelvin
 Total                  276.082             73.253            147.023
 Electronic               0.000              0.000              0.000
 Translational            0.889              2.981             41.989
 Rotational               0.889              2.981             33.223
 Vibrational            274.305             67.292             71.811
 Vibration     1          0.593              1.984              5.942
 Vibration     2          0.595              1.980              5.079
 Vibration     3          0.596              1.976              4.662
 Vibration     4          0.599              1.965              3.977
 Vibration     5          0.600              1.962              3.861
 Vibration     6          0.603              1.953              3.557
 Vibration     7          0.604              1.950              3.491
 Vibration     8          0.606              1.943              3.299
 Vibration     9          0.609              1.934              3.124
 Vibration    10          0.618              1.904              2.693
 Vibration    11          0.623              1.887              2.505
 Vibration    12          0.633              1.854              2.234
 Vibration    13          0.642              1.826              2.049
 Vibration    14          0.647              1.811              1.964
 Vibration    15          0.656              1.782              1.817
 Vibration    16          0.659              1.775              1.786
 Vibration    17          0.661              1.766              1.746
 Vibration    18          0.664              1.759              1.713
 Vibration    19          0.667              1.751              1.681
 Vibration    20          0.683              1.702              1.505
 Vibration    21          0.687              1.689              1.465
 Vibration    22          0.703              1.643              1.330
 Vibration    23          0.719              1.599              1.220
 Vibration    24          0.736              1.551              1.113
 Vibration    25          0.762              1.480              0.979
 Vibration    26          0.799              1.385              0.830
 Vibration    27          0.819              1.336              0.763
 Vibration    28          0.853              1.255              0.664
 Vibration    29          0.940              1.068              0.480
 Vibration    30          0.966              1.016              0.437

 Optimization completed.
    -- Stationary point found.
 Normal termination of Gaussian 16 at Wed May 24 03:45:58 2023.
