 Gaussian 16, Revision A.03,
 Gaussian 16:  ES64L-G16RevA.03 25-Dec-2016

 -----------------------------
 # opt freq b3lyp/6-31g(2df,p)
 -----------------------------

 -------------------
 Title Card Required
 -------------------
 Symbolic Z-matrix:
 Charge =  0 Multiplicity = 1

 SCF Done:  E(RB3LYP) =  -602.277880291     A.U. after   12 cycles
 SCF Done:  E(RB3LYP) =  -602.300763532     A.U. after   10 cycles
 SCF Done:  E(RB3LYP) =  -602.311302849     A.U. after   10 cycles
 SCF Done:  E(RB3LYP) =  -602.315881728     A.U. after   10 cycles
 SCF Done:  E(RB3LYP) =  -602.316973301     A.U. after   10 cycles
 SCF Done:  E(RB3LYP) =  -602.317348157     A.U. after   10 cycles
 SCF Done:  E(RB3LYP) =  -602.317426473     A.U. after    9 cycles
 SCF Done:  E(RB3LYP) =  -602.317483026     A.U. after    9 cycles
 SCF Done:  E(RB3LYP) =  -602.317505771     A.U. after    8 cycles
 SCF Done:  E(RB3LYP) =  -602.317516079     A.U. after    8 cycles
 SCF Done:  E(RB3LYP) =  -602.319685198     A.U. after   11 cycles
 SCF Done:  E(RB3LYP) =  -602.319858974     A.U. after   11 cycles
 SCF Done:  E(RB3LYP) =  -602.320027118     A.U. after   11 cycles
 SCF Done:  E(RB3LYP) =  -602.320474559     A.U. after   10 cycles
 SCF Done:  E(RB3LYP) =  -602.320687031     A.U. after   10 cycles
 SCF Done:  E(RB3LYP) =  -602.320721525     A.U. after    8 cycles
 SCF Done:  E(RB3LYP) =  -602.320732375     A.U. after    8 cycles
 SCF Done:  E(RB3LYP) =  -602.320734921     A.U. after    7 cycles
 SCF Done:  E(RB3LYP) =  -602.320735375     A.U. after    7 cycles
 Optimization completed.
    -- Stationary point found.
 Normal termination of Gaussian 16 at Mon May 22 04:00:24 2023.

 ----------------------------------------------------------------------
 #N Geom=AllCheck Guess=TCheck SCRF=Check GenChk RB3LYP/6-31G(2df,p) Fr
 eq
 ----------------------------------------------------------------------

 Structure from the checkpoint file:  "CCCCNCqCCCrC1qCrCC1O.chk"
 -------------------
 Title Card Required
 -------------------
 Charge =  0 Multiplicity = 1

                         Standard orientation:
 ---------------------------------------------------------------------
 Center     Atomic      Atomic             Coordinates (Angstroms)
 Number     Number       Type             X           Y           Z
 ---------------------------------------------------------------------
      1          6           0       -5.557425   -1.032252    0.082432
      2          6           0       -4.345916   -0.169792   -0.281816
      3          6           0       -3.014425   -0.794472    0.146722
      4          6           0       -1.799405    0.057112   -0.222981
      5          7           0       -0.567223   -0.561669    0.253379
      6          6           0        0.688273    0.051821   -0.196014
      7          6           0        0.892438    1.460274    0.416898
      8          6           0        0.489044    2.630777   -0.491791
      9          6           0        0.705181    3.994596    0.169843
     10          6           0        1.830329   -0.901765    0.155434
     11          6           0        2.046639   -1.177098    1.632068
     12          6           0        2.088553   -2.042620   -0.819983
     13          6           0        3.037892   -0.882990   -0.756784
     14          8           0        4.314912   -1.160818   -0.254509
     15          1           0       -6.493462   -0.560600   -0.232659
     16          1           0       -5.614751   -1.197131    1.164078
     17          1           0       -5.502082   -2.015620   -0.397814
     18          1           0       -4.447743    0.819327    0.183972
     19          1           0       -4.334113    0.005885   -1.365620
     20          1           0       -2.914495   -1.786888   -0.317335
     21          1           0       -3.008966   -0.961397    1.231059
     22          1           0       -1.902361    1.043858    0.244863
     23          1           0       -1.792108    0.232096   -1.317527
     24          1           0       -0.558801   -1.533651   -0.043352
     25          1           0        0.694133    0.171181   -1.298589
     26          1           0        1.953109    1.584966    0.668707
     27          1           0        0.345070    1.510832    1.365702
     28          1           0       -0.560019    2.534173   -0.793675
     29          1           0        1.072924    2.578696   -1.420291
     30          1           0        0.103808    4.092507    1.080601
     31          1           0        0.428522    4.813769   -0.501337
     32          1           0        1.754471    4.136029    0.453105
     33          1           0        1.152936   -1.625343    2.073805
     34          1           0        2.253865   -0.253111    2.184260
     35          1           0        2.893600   -1.850319    1.780045
     36          1           0        1.458529   -2.143542   -1.698224
     37          1           0        2.451586   -2.978845   -0.410029
     38          1           0        3.024544   -0.180336   -1.591045
     39          1           0        4.626003   -0.379861    0.215555
 ---------------------------------------------------------------------

 SCF Done:  E(RB3LYP) =  -602.320735375     A.U. after    1 cycles

 The electronic state is 1-A.
 Alpha  occ. eigenvalues --  -19.14025 -14.30405 -10.22831 -10.20591 -10.19802
 Alpha  occ. eigenvalues --  -10.18881 -10.17888 -10.17755 -10.17689 -10.17580
 Alpha  occ. eigenvalues --  -10.17265 -10.17170 -10.17165 -10.16644  -1.02407
 Alpha  occ. eigenvalues --   -0.90239  -0.84624  -0.79062  -0.77894  -0.72814
 Alpha  occ. eigenvalues --   -0.70136  -0.69024  -0.63739  -0.60396  -0.58955
 Alpha  occ. eigenvalues --   -0.57918  -0.57851  -0.54267  -0.51226  -0.48685
 Alpha  occ. eigenvalues --   -0.47739  -0.46469  -0.44599  -0.43573  -0.42383
 Alpha  occ. eigenvalues --   -0.41715  -0.41530  -0.40493  -0.40233  -0.38354
 Alpha  occ. eigenvalues --   -0.37940  -0.37439  -0.37109  -0.36468  -0.35785
 Alpha  occ. eigenvalues --   -0.34632  -0.33573  -0.33123  -0.32880  -0.32324
 Alpha  occ. eigenvalues --   -0.31901  -0.31016  -0.30723  -0.26981  -0.24545
 Alpha  occ. eigenvalues --   -0.21598
 Alpha virt. eigenvalues --    0.06932   0.08814   0.09188   0.09636   0.10369
 Alpha virt. eigenvalues --    0.12200   0.12415   0.12829   0.13616   0.14027
 Alpha virt. eigenvalues --    0.14336   0.14690   0.15268   0.15890   0.16879

 Mulliken charges:
               1
     1  C   -0.379116
     2  C   -0.162570
     3  C   -0.181647
     4  C   -0.123271
     5  N   -0.305821
     6  C   -0.023486
     7  C   -0.165786
     8  C   -0.175957
     9  C   -0.380744
    10  C    0.277501
    11  C   -0.466770
    12  C   -0.357726
    13  C    0.056608
    14  O   -0.422925
    15  H    0.110726
    16  H    0.114743
    17  H    0.113135
    18  H    0.095696
    19  H    0.094914
    20  H    0.086785
    21  H    0.104506
    22  H    0.102946
    23  H    0.068936
    24  H    0.211695
    25  H    0.039834
    26  H    0.085914
    27  H    0.104018
    28  H    0.101429
    29  H    0.092359
    30  H    0.114377
    31  H    0.110427
    32  H    0.111110
    33  H    0.127201
    34  H    0.107952
    35  H    0.122315
    36  H    0.105302
    37  H    0.119576
    38  H    0.080474
    39  H    0.285341
 Sum of Mulliken charges =  -0.00000

 Dipole moment (field-independent basis, Debye):
    X=             -0.7350    Y=              1.0465    Z=             -0.2782  Tot=              1.3087
 Quadrupole moment (field-independent basis, Debye-Ang):
   XX=            -92.2762   YY=            -90.8178   ZZ=            -90.8152
   XY=              6.3543   XZ=              3.1678   YZ=              0.3881

  Exact polarizability: 162.558   0.078 142.972   0.977   0.431 121.538
 Approx polarizability: 199.147   0.339 195.239   0.198   2.138 190.074

                      1                      2                      3
                      A                      A                      A
 Frequencies --     32.7895                51.3294                55.4953
 Red. masses --      3.4143                 2.5160                 2.0219
 Frc consts  --      0.0022                 0.0039                 0.0037
 IR Inten    --      0.0837                 0.1137                 0.2408

                      4                      5                      6
                      A                      A                      A
 Frequencies --     59.0990                77.1999                89.6629
 Red. masses --      3.1768                 2.0213                 2.2532
 Frc consts  --      0.0065                 0.0071                 0.0107
 IR Inten    --      0.2097                 0.0854                 0.4597

                      7                      8                      9
                      A                      A                      A
 Frequencies --    119.7193               141.2639               154.4666
 Red. masses --      2.8051                 2.5763                 1.8619
 Frc consts  --      0.0237                 0.0303                 0.0262
 IR Inten    --      0.5425                 1.2881                 1.1461

                     10                     11                     12
                      A                      A                      A
 Frequencies --    170.4555               178.4628               222.5127
 Red. masses --      1.4745                 1.8884                 3.4434
 Frc consts  --      0.0252                 0.0354                 0.1005
 IR Inten    --      3.1292                 0.8437                 1.2431

                     13                     14                     15
                      A                      A                      A
 Frequencies --    236.5868               246.7045               248.9530
 Red. masses --      2.3428                 1.2255                 1.1421
 Frc consts  --      0.0773                 0.0439                 0.0417
 IR Inten    --      0.7363                 0.3874                 0.2088

                     16                     17                     18
                      A                      A                      A
 Frequencies --    255.5437               275.0956               291.7122
 Red. masses --      2.8696                 2.3903                 2.5672
 Frc consts  --      0.1104                 0.1066                 0.1287
 IR Inten    --      1.9128                 7.4374                 8.6383

                     19                     20                     21
                      A                      A                      A
 Frequencies --    320.4699               350.2604               401.5958
 Red. masses --      1.4008                 2.9511                 2.8929
 Frc consts  --      0.0848                 0.2133                 0.2749
 IR Inten    --     87.6834                 7.2663                 1.8060

                     22                     23                     24
                      A                      A                      A
 Frequencies --    436.8869               470.2283               504.5622
 Red. masses --      3.0787                 2.4759                 2.9774
 Frc consts  --      0.3462                 0.3226                 0.4466
 IR Inten    --      3.5276                 2.2585                 1.8760

                     25                     26                     27
                      A                      A                      A
 Frequencies --    546.2728               598.5521               733.2314
 Red. masses --      2.4949                 3.0028                 1.1876
 Frc consts  --      0.4387                 0.6338                 0.3762
 IR Inten    --      8.5604                 3.9700                 2.8679

                     28                     29                     30
                      A                      A                      A
 Frequencies --    743.8315               762.1478               787.3538
 Red. masses --      1.0793                 2.5981                 1.3061
 Frc consts  --      0.3519                 0.8892                 0.4770
 IR Inten    --      2.2769                 1.3377                47.7389

                     31                     32                     33
                      A                      A                      A
 Frequencies --    817.0477               837.3126               863.7542
 Red. masses --      1.1962                 2.2586                 1.4290
 Frc consts  --      0.4705                 0.9330                 0.6282
 IR Inten    --      4.0474                10.1108                 3.9260

                     34                     35                     36
                      A                      A                      A
 Frequencies --    892.8361               907.6075               910.8322
 Red. masses --      2.1738                 1.6778                 1.8139
 Frc consts  --      1.0210                 0.8143                 0.8866
 IR Inten    --     14.6807                 0.4217                 1.2777

                     37                     38                     39
                      A                      A                      A
 Frequencies --    931.1898               957.9873               964.3367
 Red. masses --      1.6345                 1.1911                 1.7722
 Frc consts  --      0.8350                 0.6441                 0.9710
 IR Inten    --      1.8195                 1.6424                 5.6926

                     40                     41                     42
                      A                      A                      A
 Frequencies --    973.7326              1022.3260              1038.0412
 Red. masses --      2.3458                 3.2507                 1.8768
 Frc consts  --      1.3105                 2.0017                 1.1915
 IR Inten    --      4.7350                 0.3230                 4.1964

                     43                     44                     45
                      A                      A                      A
 Frequencies --   1043.9622              1052.0192              1069.1992
 Red. masses --      1.3528                 2.5792                 2.3030
 Frc consts  --      0.8687                 1.6818                 1.5512
 IR Inten    --      6.2210                 0.5880                 1.2185

                     46                     47                     48
                      A                      A                      A
 Frequencies --   1085.1951              1105.3666              1109.9744
 Red. masses --      1.9967                 1.7683                 1.7883
 Frc consts  --      1.3854                 1.2730                 1.2981
 IR Inten    --      3.2363                 1.0339                 3.4475

                     49                     50                     51
                      A                      A                      A
 Frequencies --   1120.3282              1129.8641              1153.3694
 Red. masses --      2.0312                 1.6247                 2.2112
 Frc consts  --      1.5021                 1.2220                 1.7330
 IR Inten    --     39.5127                13.6706                 8.3716

                     52                     53                     54
                      A                      A                      A
 Frequencies --   1168.0108              1188.2041              1194.4809
 Red. masses --      2.6592                 2.3939                 2.1033
 Frc consts  --      2.1375                 1.9913                 1.7681
 IR Inten    --     60.9707                42.1305                 8.2185

                     55                     56                     57
                      A                      A                      A
 Frequencies --   1244.5832              1258.7189              1263.8338
 Red. masses --      1.3781                 1.5060                 1.3774
 Frc consts  --      1.2577                 1.4058                 1.2963
 IR Inten    --      9.2384                 0.9227                 1.9606

                     58                     59                     60
                      A                      A                      A
 Frequencies --   1275.9390              1291.2728              1301.6986
 Red. masses --      1.7555                 1.3175                 1.2955
 Frc consts  --      1.6839                 1.2943                 1.2933
 IR Inten    --      6.2164                15.3481                66.2136

                     61                     62                     63
                      A                      A                      A
 Frequencies --   1313.4867              1318.5013              1326.0781
 Red. masses --      1.1717                 1.5645                 1.0761
 Frc consts  --      1.1910                 1.6025                 1.1149
 IR Inten    --      6.6240                 5.3835                 0.2867

                     64                     65                     66
                      A                      A                      A
 Frequencies --   1334.7793              1367.2183              1373.2696
 Red. masses --      1.2299                 1.3546                 1.3243
 Frc consts  --      1.2911                 1.4919                 1.4715
 IR Inten    --      1.2512                12.5673                 7.1087

                     67                     68                     69
                      A                      A                      A
 Frequencies --   1382.8573              1393.6749              1407.0462
 Red. masses --      1.4320                 1.4312                 1.4564
 Frc consts  --      1.6135                 1.6379                 1.6988
 IR Inten    --     10.5590                 4.7571                 3.0873

                     70                     71                     72
                      A                      A                      A
 Frequencies --   1411.7786              1413.4428              1420.6470
 Red. masses --      1.2451                 1.2559                 1.3912
 Frc consts  --      1.4622                 1.4783                 1.6544
 IR Inten    --      1.0806                 3.3828                 3.6233

                     73                     74                     75
                      A                      A                      A
 Frequencies --   1428.6205              1479.3259              1483.9965
 Red. masses --      1.4184                 1.0795                 1.3437
 Frc consts  --      1.7056                 1.3919                 1.7435
 IR Inten    --      0.4636                 1.5750                14.6059

                     76                     77                     78
                      A                      A                      A
 Frequencies --   1486.1144              1491.3714              1493.8143
 Red. masses --      1.0666                 1.0600                 1.0890
 Frc consts  --      1.3879                 1.3891                 1.4318
 IR Inten    --      0.4847                 1.6073                 2.7144

                     79                     80                     81
                      A                      A                      A
 Frequencies --   1494.6015              1499.0041              1499.8358
 Red. masses --      1.0693                 1.0547                 1.0493
 Frc consts  --      1.4074                 1.3963                 1.3907
 IR Inten    --      0.1218                 1.0132                 9.8285

                     82                     83                     84
                      A                      A                      A
 Frequencies --   1501.4033              1508.9365              1510.9062
 Red. masses --      1.2019                 1.0832                 1.0870
 Frc consts  --      1.5963                 1.4531                 1.4621
 IR Inten    --     21.6481                 1.7437                 2.7081

                     85                     86                     87
                      A                      A                      A
 Frequencies --   1511.5420              1525.3831              2876.9372
 Red. masses --      1.1380                 1.0912                 1.0806
 Frc consts  --      1.5319                 1.4959                 5.2696
 IR Inten    --     24.2332                 5.0223                46.6799

                     88                     89                     90
                      A                      A                      A
 Frequencies --   2898.6689              2999.2543              3014.6629
 Red. masses --      1.0728                 1.0649                 1.0607
 Frc consts  --      5.3109                 5.6439                 5.6796
 IR Inten    --     71.9865                10.1965                27.1648

                     91                     92                     93
                      A                      A                      A
 Frequencies --   3017.4649              3021.7098              3027.5286
 Red. masses --      1.0596                 1.0654                 1.0382
 Frc consts  --      5.6844                 5.7315                 5.6066
 IR Inten    --      6.6841                22.9806                40.6373

                     94                     95                     96
                      A                      A                      A
 Frequencies --   3028.8559              3036.3835              3036.8379
 Red. masses --      1.0365                 1.0760                 1.0497
 Frc consts  --      5.6024                 5.8447                 5.7040
 IR Inten    --     29.3793                26.7719                38.1276

                     97                     98                     99
                      A                      A                      A
 Frequencies --   3039.0885              3053.3304              3063.2922
 Red. masses --      1.0933                 1.0907                 1.1010
 Frc consts  --      5.9492                 5.9911                 6.0872
 IR Inten    --      7.3525                11.0345                37.5836

                    100                    101                    102
                      A                      A                      A
 Frequencies --   3070.3066              3084.9848              3095.2560
 Red. masses --      1.1015                 1.0869                 1.1021
 Frc consts  --      6.1177                 6.0944                 6.2210
 IR Inten    --     21.7855                30.8146                50.4471

                    103                    104                    105
                      A                      A                      A
 Frequencies --   3095.7374              3099.5086              3099.9542
 Red. masses --      1.1021                 1.0950                 1.0997
 Frc consts  --      6.2228                 6.1982                 6.2261
 IR Inten    --     69.6901                34.7388                22.4111

                    106                    107                    108
                      A                      A                      A
 Frequencies --   3101.0165              3125.5016              3131.7514
 Red. masses --      1.1010                 1.0566                 1.1005
 Frc consts  --      6.2382                 6.0813                 6.3591
 IR Inten    --     40.9710                10.1612                15.8611

                    109                    110                    111
                      A                      A                      A
 Frequencies --   3215.4691              3496.0400              3802.0626
 Red. masses --      1.1161                 1.0731                 1.0661
 Frc consts  --      6.7987                 7.7274                 9.0803
 IR Inten    --      8.1632                 0.6052                17.0871

 - Thermochemistry -
 -------------------
 Temperature   298.150 Kelvin.  Pressure   1.00000 Atm.
 Atom     1 has atomic number  6 and mass  12.00000

 Molecular mass:   199.19361 amu.
 Principal axes and moments of inertia in atomic units:
                           1         2         3
     Eigenvalues --  2256.457845879.116217492.45601
           X            0.99983   0.01785   0.00467
           Y           -0.01783   0.99983  -0.00403
           Z           -0.00474   0.00394   0.99998
 This molecule is an asymmetric top.
 Rotational symmetry number  1.
 Warning -- assumption of classical behavior for rotation
           may cause significant error
 Rotational temperatures (Kelvin)      0.03838     0.01473     0.01156
 Rotational constants (GHZ):           0.79981     0.30697     0.24087
 Zero-point vibrational energy     936943.4 (Joules/Mol)
                                  223.93485 (Kcal/Mol)
 Warning -- explicit consideration of  26 degrees of freedom as
           vibrations may cause significant error
 Vibrational temperatures:     47.18    73.85    79.85    85.03   111.07
          (Kelvin)            129.00   172.25   203.25   222.24   245.25
                              256.77   320.15   340.40   354.95   358.19
                              367.67   395.80   419.71   461.08   503.95
                              577.81   628.58   676.55   725.95   785.96
                              861.18  1054.96  1070.21  1096.56  1132.83
                             1175.55  1204.71  1242.75  1284.59  1305.84
                             1310.48  1339.77  1378.33  1387.47  1400.98
                             1470.90  1493.51  1502.03  1513.62  1538.34
                             1561.35  1590.38  1597.01  1611.90  1625.62
                             1659.44  1680.51  1709.56  1718.59  1790.68
                             1811.02  1818.37  1835.79  1857.85  1872.85
                             1889.81  1897.03  1907.93  1920.45  1967.12
                             1975.83  1989.62  2005.19  2024.43  2031.23
                             2033.63  2043.99  2055.47  2128.42  2135.14
                             2138.19  2145.75  2149.27  2150.40  2156.73
                             2157.93  2160.18  2171.02  2173.86  2174.77
                             2194.69  4139.27  4170.54  4315.26  4337.43
                             4341.46  4347.57  4355.94  4357.85  4368.68
                             4369.33  4372.57  4393.06  4407.39  4417.49
                             4438.61  4453.38  4454.08  4459.50  4460.14
                             4461.67  4496.90  4505.89  4626.34  5030.02
                             5470.32

 Zero-point correction=                           0.356863 (Hartree/Particle)
 Thermal correction to Energy=                    0.374803
 Thermal correction to Enthalpy=                  0.375747
 Thermal correction to Gibbs Free Energy=         0.310346
 Sum of electronic and zero-point Energies=           -601.963872
 Sum of electronic and thermal Energies=              -601.945933
 Sum of electronic and thermal Enthalpies=            -601.944989
 Sum of electronic and thermal Free Energies=         -602.010389

                     E (Thermal)             CV                S
                      KCal/Mol        Cal/Mol-Kelvin    Cal/Mol-Kelvin
 Total                  235.192             65.590            137.648
 Electronic               0.000              0.000              0.000
 Translational            0.889              2.981             41.772
 Rotational               0.889              2.981             32.963
 Vibrational            233.415             59.629             62.912
 Vibration     1          0.594              1.983              5.653
 Vibration     2          0.596              1.977              4.765
 Vibration     3          0.596              1.975              4.611
 Vibration     4          0.596              1.974              4.487
 Vibration     5          0.599              1.964              3.961
 Vibration     6          0.602              1.956              3.667
 Vibration     7          0.609              1.933              3.105
 Vibration     8          0.615              1.912              2.787
 Vibration     9          0.620              1.898              2.616
 Vibration    10          0.626              1.879              2.430
 Vibration    11          0.629              1.869              2.344
 Vibration    12          0.648              1.807              1.939
 Vibration    13          0.655              1.785              1.828
 Vibration    14          0.661              1.768              1.754
 Vibration    15          0.662              1.765              1.738
 Vibration    16          0.666              1.753              1.692
 Vibration    17          0.677              1.719              1.564
 Vibration    18          0.687              1.689              1.464
 Vibration    19          0.706              1.634              1.308
 Vibration    20          0.727              1.575              1.165
 Vibration    21          0.767              1.467              0.957
 Vibration    22          0.797              1.390              0.836
 Vibration    23          0.827              1.316              0.737
 Vibration    24          0.860              1.240              0.647
 Vibration    25          0.901              1.148              0.552
 Vibration    26          0.957              1.035              0.452

                           ! Non-Optimized Parameters !
 Normal termination of Gaussian 16 at Mon May 22 06:29:46 2023.
