 Gaussian 16, Revision A.03,
 Gaussian 16:  ES64L-G16RevA.03 25-Dec-2016

 -----------------------------
 # opt freq b3lyp/6-31g(2df,p)
 -----------------------------

 -------------------
 Title Card Required
 -------------------
 Symbolic Z-matrix:
 Charge =  0 Multiplicity = 1

 SCF Done:  E(RB3LYP) =  -355.040997646     A.U. after   12 cycles
 SCF Done:  E(RB3LYP) =  -355.044831468     A.U. after   10 cycles
 SCF Done:  E(RB3LYP) =  -355.046823651     A.U. after   10 cycles
 SCF Done:  E(RB3LYP) =  -355.048202824     A.U. after   10 cycles
 SCF Done:  E(RB3LYP) =  -355.048734414     A.U. after   10 cycles
 SCF Done:  E(RB3LYP) =  -355.048912642     A.U. after    9 cycles
 SCF Done:  E(RB3LYP) =  -355.049063830     A.U. after    9 cycles
 SCF Done:  E(RB3LYP) =  -355.049010893     A.U. after    9 cycles
 SCF Done:  E(RB3LYP) =  -355.049553164     A.U. after    9 cycles
 SCF Done:  E(RB3LYP) =  -355.049505230     A.U. after    9 cycles
 SCF Done:  E(RB3LYP) =  -355.049792004     A.U. after    9 cycles
 SCF Done:  E(RB3LYP) =  -355.050138184     A.U. after    9 cycles
 SCF Done:  E(RB3LYP) =  -355.050109216     A.U. after    9 cycles
 SCF Done:  E(RB3LYP) =  -355.050164953     A.U. after    9 cycles
 SCF Done:  E(RB3LYP) =  -355.050215160     A.U. after    8 cycles
 SCF Done:  E(RB3LYP) =  -355.050162030     A.U. after    8 cycles
 SCF Done:  E(RB3LYP) =  -355.050218532     A.U. after    8 cycles
 SCF Done:  E(RB3LYP) =  -355.050218670     A.U. after    6 cycles
 SCF Done:  E(RB3LYP) =  -355.050218693     A.U. after    5 cycles
 Optimization completed.
    -- Stationary point found.
 Normal termination of Gaussian 16 at Sun May 28 12:42:52 2023.

 ----------------------------------------------------------------------
 #N Geom=AllCheck Guess=TCheck SCRF=Check GenChk RB3LYP/6-31G(2df,p) Fr
 eq
 ----------------------------------------------------------------------

 Structure from the checkpoint file:  "CCCCqCCrCCC.chk"
 -------------------
 Title Card Required
 -------------------
 Charge =  0 Multiplicity = 1

                         Standard orientation:
 ---------------------------------------------------------------------
 Center     Atomic      Atomic             Coordinates (Angstroms)
 Number     Number       Type             X           Y           Z
 ---------------------------------------------------------------------
      1          6           0       -3.674453   -1.251074   -0.020126
      2          6           0       -2.529151   -0.258073   -0.242675
      3          6           0       -1.163625   -0.839331    0.142474
      4          6           0        0.061733    0.056826   -0.128167
      5          6           0       -0.009673    1.411226    0.626168
      6          6           0       -0.527343    2.587259   -0.210905
      7          6           0        1.352858   -0.715874    0.213027
      8          6           0        2.635198   -0.116833   -0.377129
      9          6           0        3.892597   -0.902930    0.006043
     10          1           0       -4.640231   -0.818310   -0.299683
     11          1           0       -3.737080   -1.553138    1.031429
     12          1           0       -3.531691   -2.160253   -0.614943
     13          1           0       -2.727263    0.651925    0.335798
     14          1           0       -2.510507    0.047318   -1.297447
     15          1           0       -1.026606   -1.786124   -0.398013
     16          1           0       -1.176523   -1.104611    1.210252
     17          1           0        0.084535    0.270203   -1.207962
     18          1           0        0.986452    1.673693    1.000210
     19          1           0       -0.634614    1.291194    1.520995
     20          1           0        0.127335    2.770562   -1.070272
     21          1           0       -0.563089    3.508319    0.380471
     22          1           0       -1.532888    2.403181   -0.600080
     23          1           0        1.257988   -1.749561   -0.146152
     24          1           0        1.450432   -0.786391    1.306401
     25          1           0        2.749519    0.925355   -0.053755
     26          1           0        2.542924   -0.084412   -1.471044
     27          1           0        4.033264   -0.919261    1.092673
     28          1           0        4.791084   -0.463620   -0.438887
     29          1           0        3.828108   -1.943246   -0.332247
 ---------------------------------------------------------------------

 SCF Done:  E(RB3LYP) =  -355.050218693     A.U. after    1 cycles

 The electronic state is 1-A.
 Alpha  occ. eigenvalues --  -10.17695 -10.17421 -10.17418 -10.17244 -10.17055
 Alpha  occ. eigenvalues --  -10.17011 -10.16891 -10.16884 -10.16789  -0.81497
 Alpha  occ. eigenvalues --   -0.77331  -0.75375  -0.71375  -0.66657  -0.62244
 Alpha  occ. eigenvalues --   -0.59419  -0.56952  -0.55220  -0.46539  -0.45883
 Alpha  occ. eigenvalues --   -0.43939  -0.43427  -0.40976  -0.40616  -0.39645
 Alpha  occ. eigenvalues --   -0.38734  -0.36982  -0.36540  -0.35866  -0.34351
 Alpha  occ. eigenvalues --   -0.33966  -0.33087  -0.32353  -0.31826  -0.30883
 Alpha  occ. eigenvalues --   -0.29921  -0.29138
 Alpha virt. eigenvalues --    0.08755   0.10055   0.10706   0.11263   0.11983
 Alpha virt. eigenvalues --    0.13487   0.14331   0.15420   0.16207   0.16373
 Alpha virt. eigenvalues --    0.16860   0.17464   0.17574   0.18572   0.18902

 Mulliken charges:
               1
     1  C   -0.379460
     2  C   -0.177169
     3  C   -0.170689
     4  C    0.036854
     5  C   -0.174718
     6  C   -0.382352
     7  C   -0.178012
     8  C   -0.174922
     9  C   -0.377224
    10  H    0.109042
    11  H    0.112544
    12  H    0.112294
    13  H    0.099934
    14  H    0.092472
    15  H    0.085372
    16  H    0.087942
    17  H    0.061290
    18  H    0.092050
    19  H    0.090350
    20  H    0.113020
    21  H    0.107568
    22  H    0.118274
    23  H    0.084578
    24  H    0.087608
    25  H    0.097094
    26  H    0.092314
    27  H    0.112536
    28  H    0.109061
    29  H    0.112350
 Sum of Mulliken charges =  -0.00000

 Dipole moment (field-independent basis, Debye):
    X=              0.0085    Y=              0.0249    Z=             -0.0173  Tot=              0.0315
 Quadrupole moment (field-independent basis, Debye-Ang):
   XX=            -62.2007   YY=            -61.9320   ZZ=            -60.7467
   XY=              0.1339   XZ=             -0.1664   YZ=              0.5506

  Exact polarizability: 117.256  -0.067  98.938  -0.073  -0.330  85.853
 Approx polarizability: 136.384   0.182 135.432  -0.461   0.781 135.244

                      1                      2                      3
                      A                      A                      A
 Frequencies --     57.7799                70.8929                76.2084
 Red. masses --      2.1725                 2.5013                 1.8360
 Frc consts  --      0.0043                 0.0074                 0.0063
 IR Inten    --      0.0035                 0.0031                 0.0082

                      4                      5                      6
                      A                      A                      A
 Frequencies --    109.6084               123.4656               145.5198
 Red. masses --      1.7332                 2.7637                 1.7757
 Frc consts  --      0.0123                 0.0248                 0.0222
 IR Inten    --      0.0112                 0.0083                 0.0004

                      7                      8                      9
                      A                      A                      A
 Frequencies --    209.8852               236.7065               248.5160
 Red. masses --      1.3523                 1.6989                 1.1675
 Frc consts  --      0.0351                 0.0561                 0.0425
 IR Inten    --      0.0112                 0.0331                 0.0015

                     10                     11                     12
                      A                      A                      A
 Frequencies --    249.2953               286.2226               312.5533
 Red. masses --      1.2070                 2.3495                 3.0229
 Frc consts  --      0.0442                 0.1134                 0.1740
 IR Inten    --      0.0110                 0.0240                 0.0357

                     13                     14                     15
                      A                      A                      A
 Frequencies --    328.4046               369.3328               492.2028
 Red. masses --      2.5322                 2.3903                 2.3968
 Frc consts  --      0.1609                 0.1921                 0.3421
 IR Inten    --      0.1710                 0.1611                 0.0870

                     16                     17                     18
                      A                      A                      A
 Frequencies --    536.9184               738.3111               747.9439
 Red. masses --      2.4938                 1.1288                 1.1457
 Frc consts  --      0.4236                 0.3625                 0.3776
 IR Inten    --      0.0241                 1.3138                 2.3387

                     19                     20                     21
                      A                      A                      A
 Frequencies --    770.9031               809.7015               866.0991
 Red. masses --      1.2291                 1.6448                 1.2495
 Frc consts  --      0.4304                 0.6353                 0.5522
 IR Inten    --      4.2767                 1.1130                 0.0582

                     22                     23                     24
                      A                      A                      A
 Frequencies --    877.6008               912.7076               928.7588
 Red. masses --      2.0577                 1.3729                 1.5798
 Frc consts  --      0.9338                 0.6738                 0.8029
 IR Inten    --      2.0245                 0.7798                 0.5030

                     25                     26                     27
                      A                      A                      A
 Frequencies --    994.8318              1007.1107              1044.3359
 Red. masses --      2.9002                 2.2270                 1.4962
 Frc consts  --      1.6911                 1.3308                 0.9614
 IR Inten    --      1.0735                 0.4465                 0.7246

                     28                     29                     30
                      A                      A                      A
 Frequencies --   1045.2228              1052.6403              1057.3793
 Red. masses --      2.1228                 2.1569                 1.3943
 Frc consts  --      1.3664                 1.4081                 0.9185
 IR Inten    --      0.7757                 0.4453                 0.1259

                     31                     32                     33
                      A                      A                      A
 Frequencies --   1084.9715              1092.6351              1161.9518
 Red. masses --      2.4362                 1.7597                 2.6285
 Frc consts  --      1.6897                 1.2378                 2.0909
 IR Inten    --      0.2207                 2.4747                 0.6541

                     34                     35                     36
                      A                      A                      A
 Frequencies --   1173.4544              1189.7244              1250.9747
 Red. masses --      1.9473                 2.0041                 1.4007
 Frc consts  --      1.5799                 1.6713                 1.2915
 IR Inten    --      1.2367                 0.1807                 3.0894

                     37                     38                     39
                      A                      A                      A
 Frequencies --   1263.6717              1288.7194              1304.7378
 Red. masses --      1.3391                 1.2378                 1.1704
 Frc consts  --      1.2599                 1.2112                 1.1739
 IR Inten    --      0.7380                 1.6597                 1.1490

                     40                     41                     42
                      A                      A                      A
 Frequencies --   1316.1883              1327.7324              1329.0233
 Red. masses --      1.2602                 1.1736                 1.1147
 Frc consts  --      1.2862                 1.2190                 1.1601
 IR Inten    --      1.9911                 0.2522                 0.1173

                     43                     44                     45
                      A                      A                      A
 Frequencies --   1351.8055              1365.8115              1385.5094
 Red. masses --      1.2314                 1.3339                 1.4445
 Frc consts  --      1.3257                 1.4661                 1.6338
 IR Inten    --      2.2519                 1.6556                 0.1195

                     46                     47                     48
                      A                      A                      A
 Frequencies --   1395.4016              1404.9018              1411.6026
 Red. masses --      1.5535                 1.4697                 1.2394
 Frc consts  --      1.7823                 1.7091                 1.4550
 IR Inten    --      0.9353                 1.1649                 0.5309

                     49                     50                     51
                      A                      A                      A
 Frequencies --   1412.3860              1414.1498              1477.0663
 Red. masses --      1.2396                 1.2313                 1.0770
 Frc consts  --      1.4569                 1.4508                 1.3844
 IR Inten    --      0.3901                 2.7481                 0.0084

                     52                     53                     54
                      A                      A                      A
 Frequencies --   1484.2379              1491.2151              1494.1563
 Red. masses --      1.0705                 1.0556                 1.0556
 Frc consts  --      1.3894                 1.3831                 1.3885
 IR Inten    --      0.6810                 0.8507                 0.9099

                     55                     56                     57
                      A                      A                      A
 Frequencies --   1495.4592              1499.4951              1499.7571
 Red. masses --      1.0673                 1.0405                 1.0404
 Frc consts  --      1.4063                 1.3784                 1.3788
 IR Inten    --      0.2232                 0.6818                 9.8391

                     58                     59                     60
                      A                      A                      A
 Frequencies --   1500.8921              1509.0176              1510.7895
 Red. masses --      1.0411                 1.0704                 1.0832
 Frc consts  --      1.3818                 1.4360                 1.4567
 IR Inten    --      3.4786                 3.4542                 0.8443

                     61                     62                     63
                      A                      A                      A
 Frequencies --   1512.8928              2980.0761              2992.4492
 Red. masses --      1.0849                 1.0802                 1.0592
 Frc consts  --      1.4631                 5.6520                 5.5882
 IR Inten    --      4.5097                 4.4312                 2.7643

                     64                     65                     66
                      A                      A                      A
 Frequencies --   3000.1768              3015.7951              3017.6002
 Red. masses --      1.0605                 1.0642                 1.0635
 Frc consts  --      5.6239                 5.7029                 5.7057
 IR Inten    --     22.4544                 3.3872                51.7925

                     67                     68                     69
                      A                      A                      A
 Frequencies --   3019.7003              3025.1613              3027.2197
 Red. masses --      1.0653                 1.0931                 1.0355
 Frc consts  --      5.7232                 5.8938                 5.5909
 IR Inten    --     37.7509                 4.9089                44.9775

                     70                     71                     72
                      A                      A                      A
 Frequencies --   3027.6660              3031.4361              3033.0650
 Red. masses --      1.0360                 1.0584                 1.0745
 Frc consts  --      5.5954                 5.7303                 5.8241
 IR Inten    --     44.3284                22.0470                30.2504

                     73                     74                     75
                      A                      A                      A
 Frequencies --   3050.1993              3056.9941              3059.5334
 Red. masses --      1.0996                 1.0991                 1.1005
 Frc consts  --      6.0278                 6.0515                 6.0697
 IR Inten    --     19.5692                28.2769                43.4870

                     76                     77                     78
                      A                      A                      A
 Frequencies --   3093.9253              3094.0298              3094.9221
 Red. masses --      1.1017                 1.1020                 1.1019
 Frc consts  --      6.2132                 6.2154                 6.2184
 IR Inten    --     15.1329                23.0591               114.3562

                     79                     80                     81
                      A                      A                      A
 Frequencies --   3098.8720              3099.3518              3110.8659
 Red. masses --      1.1010                 1.1009                 1.0999
 Frc consts  --      6.2293                 6.2309                 6.2716
 IR Inten    --     38.2790                38.9268                41.4854

 - Thermochemistry -
 -------------------
 Temperature   298.150 Kelvin.  Pressure   1.00000 Atm.
 Atom     1 has atomic number  6 and mass  12.00000

 Molecular mass:   128.15650 amu.
 Principal axes and moments of inertia in atomic units:
                           1         2         3
     Eigenvalues --   809.243372542.467563169.35016
           X            1.00000  -0.00074   0.00057
           Y            0.00074   0.99998  -0.00628
           Z           -0.00057   0.00628   0.99998
 This molecule is an asymmetric top.
 Rotational symmetry number  1.
 Warning -- assumption of classical behavior for rotation
           may cause significant error
 Rotational temperatures (Kelvin)      0.10703     0.03407     0.02733
 Rotational constants (GHZ):           2.23016     0.70984     0.56944
 Zero-point vibrational energy     717977.3 (Joules/Mol)
                                  171.60069 (Kcal/Mol)
 Warning -- explicit consideration of  16 degrees of freedom as
           vibrations may cause significant error
 Vibrational temperatures:     83.13   102.00   109.65   157.70   177.64
          (Kelvin)            209.37   301.98   340.57   357.56   358.68
                              411.81   449.69   472.50   531.39   708.17
                              772.51  1062.26  1076.12  1109.16  1164.98
                             1246.12  1262.67  1313.18  1336.28  1431.34
                             1449.01  1502.57  1503.84  1514.51  1521.33
                             1561.03  1572.06  1671.79  1688.34  1711.75
                             1799.87  1818.14  1854.18  1877.23  1893.70
                             1910.31  1912.17  1944.95  1965.10  1993.44
                             2007.67  2021.34  2030.98  2032.11  2034.65
                             2125.17  2135.49  2145.53  2149.76  2151.63
                             2157.44  2157.82  2159.45  2171.14  2173.69
                             2176.72  4287.66  4305.47  4316.59  4339.06
                             4341.65  4344.68  4352.53  4355.49  4356.14
                             4361.56  4363.90  4388.56  4398.33  4401.99
                             4451.47  4451.62  4452.90  4458.59  4459.28
                             4475.84

 Zero-point correction=                           0.273463 (Hartree/Particle)
 Thermal correction to Energy=                    0.285844
 Thermal correction to Enthalpy=                  0.286788
 Thermal correction to Gibbs Free Energy=         0.235017
 Sum of electronic and zero-point Energies=           -354.776756
 Sum of electronic and thermal Energies=              -354.764375
 Sum of electronic and thermal Enthalpies=            -354.763431
 Sum of electronic and thermal Free Energies=         -354.815201

                     E (Thermal)             CV                S
                      KCal/Mol        Cal/Mol-Kelvin    Cal/Mol-Kelvin
 Total                  179.370             44.637            108.960
 Electronic               0.000              0.000              0.000
 Translational            0.889              2.981             40.457
 Rotational               0.889              2.981             30.257
 Vibrational            177.592             38.676             38.246
 Vibration     1          0.596              1.974              4.532
 Vibration     2          0.598              1.968              4.128
 Vibration     3          0.599              1.965              3.986
 Vibration     4          0.606              1.942              3.276
 Vibration     5          0.610              1.929              3.045
 Vibration     6          0.617              1.908              2.730
 Vibration     7          0.642              1.826              2.045
 Vibration     8          0.656              1.785              1.828
 Vibration     9          0.662              1.765              1.741
 Vibration    10          0.662              1.764              1.736
 Vibration    11          0.684              1.699              1.496
 Vibration    12          0.701              1.650              1.349
 Vibration    13          0.712              1.619              1.268
 Vibration    14          0.742              1.535              1.083
 Vibration    15          0.848              1.267              0.678
 Vibration    16          0.892              1.168              0.572

 Optimization completed.
    -- Stationary point found.
 Normal termination of Gaussian 16 at Sun May 28 13:24:48 2023.
