 Gaussian 16, Revision A.03,
 Gaussian 16:  ES64L-G16RevA.03 25-Dec-2016

 -----------------------------
 # opt freq b3lyp/6-31g(2df,p)
 -----------------------------

 -------------------
 Title Card Required
 -------------------
 Symbolic Z-matrix:
 Charge =  0 Multiplicity = 1

 SCF Done:  E(RB3LYP) =  -493.597215014     A.U. after   12 cycles
 SCF Done:  E(RB3LYP) =  -493.602152120     A.U. after   10 cycles
 SCF Done:  E(RB3LYP) =  -493.605521551     A.U. after   10 cycles
 SCF Done:  E(RB3LYP) =  -493.607437899     A.U. after   10 cycles
 SCF Done:  E(RB3LYP) =  -493.608357083     A.U. after   10 cycles
 SCF Done:  E(RB3LYP) =  -493.608814279     A.U. after   10 cycles
 SCF Done:  E(RB3LYP) =  -493.609040051     A.U. after   10 cycles
 SCF Done:  E(RB3LYP) =  -493.609312021     A.U. after    9 cycles
 SCF Done:  E(RB3LYP) =  -493.609358270     A.U. after    9 cycles
 SCF Done:  E(RB3LYP) =  -493.609414994     A.U. after    9 cycles
 SCF Done:  E(RB3LYP) =  -493.609421007     A.U. after    7 cycles
 SCF Done:  E(RB3LYP) =  -493.609421426     A.U. after    6 cycles
 SCF Done:  E(RB3LYP) =  -493.609421481     A.U. after    5 cycles
 SCF Done:  E(RB3LYP) =  -493.609421510     A.U. after    5 cycles
 Optimization completed.
    -- Stationary point found.
 Normal termination of Gaussian 16 at Mon May 22 08:19:53 2023.

 ----------------------------------------------------------------------
 #N Geom=AllCheck Guess=TCheck SCRF=Check GenChk RB3LYP/6-31G(2df,p) Fr
 eq
 ----------------------------------------------------------------------

 Structure from the checkpoint file:  "CCCCCqCCrCqCrqCrF.chk"
 -------------------
 Title Card Required
 -------------------
 Charge =  0 Multiplicity = 1

                         Standard orientation:
 ---------------------------------------------------------------------
 Center     Atomic      Atomic             Coordinates (Angstroms)
 Number     Number       Type             X           Y           Z
 ---------------------------------------------------------------------
      1          6           0       -4.526373   -0.277810   -0.124215
      2          6           0       -3.166622   -0.900743    0.203020
      3          6           0       -1.985569    0.014402   -0.141289
      4          6           0       -0.626674   -0.614633    0.192459
      5          6           0        0.596961    0.236405   -0.204232
      6          6           0        0.654098    1.593068    0.549582
      7          6           0        0.162269    2.784317   -0.281897
      8          6           0        1.928346   -0.545557   -0.064636
      9          6           0        2.250883   -0.980822    1.364623
     10          6           0        2.040921   -1.714519   -1.043270
     11          9           0        2.942340    0.356601   -0.444193
     12          1           0       -5.348486   -0.953701    0.131287
     13          1           0       -4.607853   -0.043296   -1.191492
     14          1           0       -4.678232    0.655210    0.429951
     15          1           0       -3.058463   -1.850491   -0.337706
     16          1           0       -3.127373   -1.155365    1.270619
     17          1           0       -2.103331    0.963316    0.396450
     18          1           0       -2.020368    0.263255   -1.211151
     19          1           0       -0.573966   -1.590161   -0.306119
     20          1           0       -0.589610   -0.820843    1.270681
     21          1           0        0.513949    0.457589   -1.277649
     22          1           0        1.686540    1.796025    0.844171
     23          1           0        0.072578    1.525721    1.477612
     24          1           0        0.785483    2.912213   -1.173490
     25          1           0        0.212913    3.713739    0.294841
     26          1           0       -0.871586    2.656354   -0.616713
     27          1           0        1.559238   -1.756505    1.704124
     28          1           0        2.192420   -0.138817    2.058774
     29          1           0        3.265517   -1.386833    1.404413
     30          1           0        1.356038   -2.526570   -0.787650
     31          1           0        3.059900   -2.111097   -1.020871
     32          1           0        1.824189   -1.383796   -2.063215
 ---------------------------------------------------------------------

 SCF Done:  E(RB3LYP) =  -493.609421510     A.U. after    1 cycles

 The electronic state is 1-A.
 Alpha  occ. eigenvalues --  -24.65229 -10.25435 -10.18251 -10.17903 -10.17875
 Alpha  occ. eigenvalues --  -10.17723 -10.17441 -10.17431 -10.17241 -10.17201
 Alpha  occ. eigenvalues --  -10.16770  -1.16413  -0.82274  -0.78616  -0.75983
 Alpha  occ. eigenvalues --   -0.72571  -0.69378  -0.67517  -0.61821  -0.59355
 Alpha  occ. eigenvalues --   -0.57717  -0.54253  -0.48115  -0.47519  -0.46505
 Alpha  occ. eigenvalues --   -0.45222  -0.43856  -0.42273  -0.41789  -0.40694
 Alpha  occ. eigenvalues --   -0.39346  -0.39124  -0.38684  -0.37465  -0.36809
 Alpha  occ. eigenvalues --   -0.36671  -0.34964  -0.34725  -0.33461  -0.33394
 Alpha  occ. eigenvalues --   -0.32985  -0.32167  -0.31114  -0.29917  -0.29069
 Alpha virt. eigenvalues --    0.08245   0.09262   0.10358   0.10861   0.11342
 Alpha virt. eigenvalues --    0.12971   0.13734   0.14293   0.14821   0.15051
 Alpha virt. eigenvalues --    0.15555   0.16613   0.17008   0.17322   0.18086

 Mulliken charges:
               1
     1  C   -0.380623
     2  C   -0.166215
     3  C   -0.166525
     4  C   -0.211924
     5  C   -0.005431
     6  C   -0.196167
     7  C   -0.388351
     8  C    0.329552
     9  C   -0.430841
    10  C   -0.431434
    11  F   -0.198604
    12  H    0.110889
    13  H    0.113568
    14  H    0.113641
    15  H    0.093280
    16  H    0.093670
    17  H    0.100985
    18  H    0.091946
    19  H    0.091119
    20  H    0.095682
    21  H    0.069460
    22  H    0.112638
    23  H    0.086190
    24  H    0.120355
    25  H    0.108561
    26  H    0.115271
    27  H    0.119893
    28  H    0.125247
    29  H    0.121584
    30  H    0.120274
    31  H    0.121828
    32  H    0.120484
 Sum of Mulliken charges =  -0.00000

 Dipole moment (field-independent basis, Debye):
    X=             -1.1597    Y=             -1.0199    Z=              0.4379  Tot=              1.6052
 Quadrupole moment (field-independent basis, Debye-Ang):
   XX=            -76.6562   YY=            -71.0331   ZZ=            -70.7375
   XY=             -2.2622   XZ=              1.2929   YZ=              0.6391

  Exact polarizability: 124.457  -2.395 110.742   0.942   0.363  98.079
 Approx polarizability: 152.977   0.775 152.369  -0.904   0.109 150.330

                      1                      2                      3
                      A                      A                      A
 Frequencies --     43.8918                55.2880                84.3794
 Red. masses --      2.2346                 2.7250                 2.9292
 Frc consts  --      0.0025                 0.0049                 0.0123
 IR Inten    --      0.2307                 0.2168                 0.3873

                      4                      5                      6
                      A                      A                      A
 Frequencies --     92.5933               104.0517               144.9205
 Red. masses --      1.9911                 2.5201                 2.0146
 Frc consts  --      0.0101                 0.0161                 0.0249
 IR Inten    --      0.0108                 0.0735                 0.0109

                      7                      8                      9
                      A                      A                      A
 Frequencies --    187.1137               213.4045               220.2286
 Red. masses --      1.3317                 1.1910                 2.6985
 Frc consts  --      0.0275                 0.0320                 0.0771
 IR Inten    --      0.0607                 0.3553                 0.1569

                     10                     11                     12
                      A                      A                      A
 Frequencies --    238.3784               244.2963               256.8266
 Red. masses --      1.1718                 1.1543                 1.4343
 Frc consts  --      0.0392                 0.0406                 0.0557
 IR Inten    --      0.2684                 0.2543                 0.0650

                     13                     14                     15
                      A                      A                      A
 Frequencies --    280.8817               316.0957               333.5505
 Red. masses --      3.4930                 2.6566                 2.7476
 Frc consts  --      0.1624                 0.1564                 0.1801
 IR Inten    --      0.8756                 0.8487                 2.6141

                     16                     17                     18
                      A                      A                      A
 Frequencies --    359.1507               401.2209               413.4684
 Red. masses --      2.6652                 2.8031                 2.7024
 Frc consts  --      0.2026                 0.2659                 0.2722
 IR Inten    --      0.9668                 2.4447                 0.8570

                     19                     20                     21
                      A                      A                      A
 Frequencies --    478.2260               525.7660               553.2733
 Red. masses --      2.9025                 2.8668                 2.7931
 Frc consts  --      0.3911                 0.4669                 0.5037
 IR Inten    --      3.1560                 4.6603                 1.5914

                     22                     23                     24
                      A                      A                      A
 Frequencies --    739.4066               758.0757               786.8315
 Red. masses --      1.0888                 1.6655                 1.3453
 Frc consts  --      0.3507                 0.5639                 0.4907
 IR Inten    --      2.4582                 1.0231                 1.3221

                     25                     26                     27
                      A                      A                      A
 Frequencies --    792.1221               859.1011               898.9501
 Red. masses --      1.7891                 1.8564                 2.0285
 Frc consts  --      0.6614                 0.8072                 0.9658
 IR Inten    --      8.1119                 3.8042                 3.9300

                     28                     29                     30
                      A                      A                      A
 Frequencies --    910.6259               927.6108               948.3362
 Red. masses --      1.9607                 1.5231                 1.3223
 Frc consts  --      0.9580                 0.7722                 0.7007
 IR Inten    --     19.8488                 2.5841                 5.5512

                     31                     32                     33
                      A                      A                      A
 Frequencies --    971.9148              1006.0245              1009.5822
 Red. masses --      2.3761                 1.7749                 1.6267
 Frc consts  --      1.3224                 1.0584                 0.9769
 IR Inten    --      8.2548                 1.6340                 0.0741

                     34                     35                     36
                      A                      A                      A
 Frequencies --   1036.1385              1055.2693              1068.0868
 Red. masses --      2.7521                 1.2534                 2.3379
 Frc consts  --      1.7408                 0.8224                 1.5714
 IR Inten    --      0.7182                 0.3477                 0.4970

                     37                     38                     39
                      A                      A                      A
 Frequencies --   1071.6100              1106.1938              1134.9339
 Red. masses --      2.1895                 1.7468                 2.2782
 Frc consts  --      1.4814                 1.2594                 1.7289
 IR Inten    --      1.8967                 0.8119                 2.5080

                     40                     41                     42
                      A                      A                      A
 Frequencies --   1170.4983              1193.2926              1219.1244
 Red. masses --      2.1838                 2.1644                 2.5861
 Frc consts  --      1.7628                 1.8159                 2.2646
 IR Inten    --     25.1267                10.7516                18.6904

                     43                     44                     45
                      A                      A                      A
 Frequencies --   1245.7650              1260.4422              1286.9960
 Red. masses --      1.4777                 2.2533                 1.5249
 Frc consts  --      1.3512                 2.1092                 1.4882
 IR Inten    --      0.2585                28.5669                10.7445

                     46                     47                     48
                      A                      A                      A
 Frequencies --   1300.7283              1327.7927              1334.5890
 Red. masses --      1.2525                 1.1537                 1.0982
 Frc consts  --      1.2485                 1.1984                 1.1525
 IR Inten    --      0.5513                 0.7692                 0.4426

                     49                     50                     51
                      A                      A                      A
 Frequencies --   1340.3629              1348.2686              1377.0584
 Red. masses --      1.3596                 1.2191                 1.4076
 Frc consts  --      1.4391                 1.3057                 1.5726
 IR Inten    --      7.3427                 1.0393                 2.4875

                     52                     53                     54
                      A                      A                      A
 Frequencies --   1392.4200              1400.2855              1406.2367
 Red. masses --      1.5016                 1.3173                 1.4424
 Frc consts  --      1.7153                 1.5218                 1.6805
 IR Inten    --      1.3691                12.2984                 1.6673

                     55                     56                     57
                      A                      A                      A
 Frequencies --   1411.2431              1414.1650              1418.4563
 Red. masses --      1.2351                 1.2666                 1.2551
 Frc consts  --      1.4493                 1.4924                 1.4879
 IR Inten    --      3.3168                 4.3319                13.0790

                     58                     59                     60
                      A                      A                      A
 Frequencies --   1476.8124              1480.8443              1485.0228
 Red. masses --      1.0572                 1.0633                 1.0590
 Frc consts  --      1.3585                 1.3738                 1.3759
 IR Inten    --      0.2411                 0.2979                 0.7531

                     61                     62                     63
                      A                      A                      A
 Frequencies --   1487.5820              1492.9907              1498.3807
 Red. masses --      1.0645                 1.0589                 1.0603
 Frc consts  --      1.3879                 1.3906                 1.4026
 IR Inten    --      0.8690                 1.4098                 1.8051

                     64                     65                     66
                      A                      A                      A
 Frequencies --   1498.9417              1499.8984              1502.2130
 Red. masses --      1.0555                 1.0408                 1.0564
 Frc consts  --      1.3972                 1.3796                 1.4045
 IR Inten    --      1.9059                 4.9395                 0.6029

                     67                     68                     69
                      A                      A                      A
 Frequencies --   1507.0901              1508.4783              1513.5766
 Red. masses --      1.0586                 1.0640                 1.0892
 Frc consts  --      1.4167                 1.4265                 1.4702
 IR Inten    --      2.6021                 3.3138                 2.6977

                     70                     71                     72
                      A                      A                      A
 Frequencies --   3000.2825              3006.3795              3010.5242
 Red. masses --      1.0803                 1.0604                 1.0605
 Frc consts  --      5.7294                 5.6471                 5.6629
 IR Inten    --      5.6955                 0.7959                 2.9966

                     73                     74                     75
                      A                      A                      A
 Frequencies --   3019.7147              3027.0825              3028.5391
 Red. masses --      1.0623                 1.0677                 1.0375
 Frc consts  --      5.7070                 5.7643                 5.6066
 IR Inten    --     52.7027                30.6128                36.2710

                     76                     77                     78
                      A                      A                      A
 Frequencies --   3033.1270              3034.7580              3042.6741
 Red. masses --      1.0474                 1.0816                 1.0507
 Frc consts  --      5.6773                 5.8692                 5.7310
 IR Inten    --     22.0181                26.0392                 6.9670

                     79                     80                     81
                      A                      A                      A
 Frequencies --   3048.5162              3050.3699              3069.6231
 Red. masses --      1.0833                 1.0366                 1.1026
 Frc consts  --      5.9315                 5.6827                 6.1215
 IR Inten    --      4.8908                 9.8711                63.6498

                     82                     83                     84
                      A                      A                      A
 Frequencies --   3086.7184              3094.9329              3098.9145
 Red. masses --      1.0934                 1.1021                 1.1015
 Frc consts  --      6.1377                 6.2195                 6.2324
 IR Inten    --      0.7124                55.3622                39.6327

                     85                     86                     87
                      A                      A                      A
 Frequencies --   3100.4177              3112.0051              3116.1875
 Red. masses --      1.1010                 1.1002                 1.1022
 Frc consts  --      6.2354                 6.2775                 6.3061
 IR Inten    --     39.8334                39.2047                12.5752

                     88                     89                     90
                      A                      A                      A
 Frequencies --   3120.5240              3125.9103              3128.7234
 Red. masses --      1.1015                 1.1014                 1.1006
 Frc consts  --      6.3195                 6.3409                 6.3475
 IR Inten    --     22.0041                18.2171                37.1317

 - Thermochemistry -
 -------------------
 Temperature   298.150 Kelvin.  Pressure   1.00000 Atm.
 Atom     1 has atomic number  6 and mass  12.00000

 Molecular mass:   160.16273 amu.
 Principal axes and moments of inertia in atomic units:
                           1         2         3
     Eigenvalues --  1177.179573423.921714073.37318
           X            0.99992  -0.01018   0.00783
           Y            0.01019   0.99995  -0.00018
           Z           -0.00783   0.00026   0.99997
 This molecule is an asymmetric top.
 Rotational symmetry number  1.
 Warning -- assumption of classical behavior for rotation
           may cause significant error
 Rotational temperatures (Kelvin)      0.07358     0.02530     0.02126
 Rotational constants (GHZ):           1.53311     0.52710     0.44306
 Zero-point vibrational energy     770295.2 (Joules/Mol)
                                  184.10497 (Kcal/Mol)
 Warning -- explicit consideration of  21 degrees of freedom as
           vibrations may cause significant error
 Vibrational temperatures:     63.15    79.55   121.40   133.22   149.71
          (Kelvin)            208.51   269.21   307.04   316.86   342.97
                              351.49   369.52   404.13   454.79   479.90
                              516.74   577.27   594.89   688.06   756.46
                              796.04  1063.84  1090.70  1132.08  1139.69
                             1236.05  1293.39  1310.19  1334.63  1364.44
                             1398.37  1447.44  1452.56  1490.77  1518.30
                             1536.74  1541.81  1591.57  1632.92  1684.09
                             1716.88  1754.05  1792.38  1813.50  1851.70
                             1871.46  1910.40  1920.18  1928.48  1939.86
                             1981.28  2003.38  2014.70  2023.26  2030.46
                             2034.67  2040.84  2124.80  2130.60  2136.62
                             2140.30  2148.08  2155.84  2156.64  2158.02
                             2161.35  2168.37  2170.36  2177.70  4316.74
                             4325.51  4331.47  4344.70  4355.30  4357.39
                             4363.99  4366.34  4377.73  4386.13  4388.80
                             4416.50  4441.10  4452.92  4458.65  4460.81
                             4477.48  4483.50  4489.74  4497.49  4501.54

 Zero-point correction=                           0.293390 (Hartree/Particle)
 Thermal correction to Energy=                    0.307870
 Thermal correction to Enthalpy=                  0.308814
 Thermal correction to Gibbs Free Energy=         0.252336
 Sum of electronic and zero-point Energies=           -493.316032
 Sum of electronic and thermal Energies=              -493.301551
 Sum of electronic and thermal Enthalpies=            -493.300607
 Sum of electronic and thermal Free Energies=         -493.357085

                     E (Thermal)             CV                S
                      KCal/Mol        Cal/Mol-Kelvin    Cal/Mol-Kelvin
 Total                  193.191             53.182            118.868
 Electronic               0.000              0.000              0.000
 Translational            0.889              2.981             41.122
 Rotational               0.889              2.981             31.174
 Vibrational            191.414             47.220             46.572
 Vibration     1          0.595              1.980              5.075
 Vibration     2          0.596              1.975              4.619
 Vibration     3          0.601              1.960              3.786
 Vibration     4          0.602              1.954              3.605
 Vibration     5          0.605              1.946              3.377
 Vibration     6          0.616              1.908              2.738
 Vibration     7          0.632              1.858              2.256
 Vibration     8          0.644              1.821              2.014
 Vibration     9          0.647              1.810              1.957
 Vibration    10          0.656              1.782              1.815
 Vibration    11          0.660              1.772              1.771
 Vibration    12          0.666              1.751              1.683
 Vibration    13          0.681              1.709              1.528
 Vibration    14          0.703              1.643              1.330
 Vibration    15          0.715              1.609              1.243
 Vibration    16          0.734              1.556              1.126
 Vibration    17          0.767              1.467              0.958
 Vibration    18          0.777              1.441              0.914
 Vibration    19          0.835              1.298              0.715
 Vibration    20          0.881              1.193              0.597
 Vibration    21          0.909              1.133              0.537

                           ! Non-Optimized Parameters !
 Normal termination of Gaussian 16 at Mon May 22 09:41:50 2023.
