 Gaussian 16, Revision A.03,
 Gaussian 16:  ES64L-G16RevA.03 25-Dec-2016

 -----------------------------
 # opt freq b3lyp/6-31g(2df,p)
 -----------------------------

 -------------------
 Title Card Required
 -------------------
 Symbolic Z-matrix:
 Charge =  0 Multiplicity = 1

 SCF Done:  E(RB3LYP) =  -625.611967326     A.U. after   12 cycles
 SCF Done:  E(RB3LYP) =  -625.616078331     A.U. after   11 cycles
 SCF Done:  E(RB3LYP) =  -625.619239816     A.U. after   10 cycles
 SCF Done:  E(RB3LYP) =  -625.620465864     A.U. after   10 cycles
 SCF Done:  E(RB3LYP) =  -625.620902191     A.U. after   10 cycles
 SCF Done:  E(RB3LYP) =  -625.621034111     A.U. after    9 cycles
 SCF Done:  E(RB3LYP) =  -625.621066020     A.U. after    8 cycles
 SCF Done:  E(RB3LYP) =  -625.621076928     A.U. after    8 cycles
 SCF Done:  E(RB3LYP) =  -625.621081414     A.U. after    8 cycles
 SCF Done:  E(RB3LYP) =  -625.621082526     A.U. after    6 cycles
 SCF Done:  E(RB3LYP) =  -625.621082693     A.U. after    6 cycles
 SCF Done:  E(RB3LYP) =  -625.621082865     A.U. after    6 cycles
 Optimization completed.
    -- Stationary point found.
 Normal termination of Gaussian 16 at Tue May 23 18:13:03 2023.

 ----------------------------------------------------------------------
 #N Geom=AllCheck Guess=TCheck SCRF=Check GenChk RB3LYP/6-31G(2df,p) Fr
 eq
 ----------------------------------------------------------------------

 Structure from the checkpoint file:  "CCCCOC1CCCCCCqCrCC1.chk"
 -------------------
 Title Card Required
 -------------------
 Charge =  0 Multiplicity = 1

                         Standard orientation:
 ---------------------------------------------------------------------
 Center     Atomic      Atomic             Coordinates (Angstroms)
 Number     Number       Type             X           Y           Z
 ---------------------------------------------------------------------
      1          6           0       -5.206148    0.641845   -1.036315
      2          6           0       -4.298747    0.018916    0.028038
      3          6           0       -2.846726   -0.127503   -0.438560
      4          6           0       -1.943880   -0.743780    0.621635
      5          8           0       -0.639927   -0.873932    0.089022
      6          6           0        0.308890   -1.491916    0.961439
      7          6           0        1.224183   -2.417424    0.128469
      8          6           0        2.401623   -1.812491   -0.656061
      9          6           0        2.033160   -0.741021   -1.711765
     10          6           0        2.818833    0.577856   -1.581569
     11          6           0        2.707523    1.281670   -0.215621
     12          6           0        1.254884    1.610149    0.219617
     13          6           0        1.006522    3.126276    0.209171
     14          6           0        0.872089    1.035689    1.600691
     15          6           0        1.064557   -0.471988    1.871129
     16          1           0       -6.236269    0.734244   -0.678455
     17          1           0       -5.222523    0.033134   -1.947064
     18          1           0       -4.858772    1.642724   -1.315326
     19          1           0       -4.691884   -0.966179    0.312350
     20          1           0       -4.330089    0.631740    0.938724
     21          1           0       -2.443771    0.853611   -0.719273
     22          1           0       -2.801315   -0.751468   -1.339731
     23          1           0       -2.327233   -1.735246    0.919251
     24          1           0       -1.941747   -0.117104    1.528376
     25          1           0       -0.256249   -2.167123    1.621371
     26          1           0        0.566608   -2.964178   -0.558113
     27          1           0        1.634041   -3.163936    0.821873
     28          1           0        2.924841   -2.644892   -1.140827
     29          1           0        3.129866   -1.402313    0.051928
     30          1           0        0.961575   -0.536281   -1.657973
     31          1           0        2.206237   -1.141152   -2.717461
     32          1           0        2.472723    1.264337   -2.366090
     33          1           0        3.880627    0.390385   -1.791472
     34          1           0        3.295391    2.206621   -0.259203
     35          1           0        3.201427    0.670615    0.547544
     36          1           0        0.570020    1.166738   -0.506154
     37          1           0        1.642085    3.636119    0.943902
     38          1           0       -0.035684    3.365883    0.448783
     39          1           0        1.228989    3.555351   -0.773869
     40          1           0       -0.174502    1.300919    1.793722
     41          1           0        1.454054    1.565696    2.368979
     42          1           0        0.757657   -0.643144    2.909447
     43          1           0        2.132735   -0.711314    1.850798
 ---------------------------------------------------------------------

 SCF Done:  E(RB3LYP) =  -625.621082865     A.U. after    1 cycles

 The electronic state is 1-A.
 Alpha  occ. eigenvalues --  -19.13147 -10.22569 -10.22209 -10.18118 -10.17583
 Alpha  occ. eigenvalues --  -10.17327 -10.17272 -10.17269 -10.17100 -10.16937
 Alpha  occ. eigenvalues --  -10.16851 -10.16751 -10.16397 -10.16226 -10.16173
 Alpha  occ. eigenvalues --   -1.02315  -0.81280  -0.79442  -0.77778  -0.76623
 Alpha  occ. eigenvalues --   -0.71700  -0.71142  -0.68250  -0.64883  -0.62440
 Alpha  occ. eigenvalues --   -0.60213  -0.58041  -0.57978  -0.54063  -0.53355
 Alpha  occ. eigenvalues --   -0.48962  -0.47962  -0.46900  -0.45111  -0.44049
 Alpha  occ. eigenvalues --   -0.43447  -0.43038  -0.41503  -0.41092  -0.40407
 Alpha  occ. eigenvalues --   -0.39797  -0.39321  -0.38876  -0.36671  -0.36193
 Alpha  occ. eigenvalues --   -0.35411  -0.35327  -0.34825  -0.34164  -0.33657
 Alpha  occ. eigenvalues --   -0.33416  -0.32478  -0.31721  -0.30967  -0.30580
 Alpha  occ. eigenvalues --   -0.29955  -0.29423  -0.28990  -0.28248  -0.24310
 Alpha virt. eigenvalues --    0.07178   0.08355   0.09908   0.10109   0.10605
 Alpha virt. eigenvalues --    0.12385   0.12536   0.12784   0.13113   0.14398
 Alpha virt. eigenvalues --    0.14652   0.15904   0.16138   0.16468   0.16756

 Mulliken charges:
               1
     1  C   -0.379087
     2  C   -0.165103
     3  C   -0.183045
     4  C   -0.066770
     5  O   -0.247840
     6  C    0.134826
     7  C   -0.221513
     8  C   -0.190437
     9  C   -0.191737
    10  C   -0.197018
    11  C   -0.201897
    12  C    0.067249
    13  C   -0.403246
    14  C   -0.182348
    15  C   -0.261707
    16  H    0.111222
    17  H    0.115406
    18  H    0.115393
    19  H    0.096062
    20  H    0.095900
    21  H    0.104517
    22  H    0.102949
    23  H    0.084240
    24  H    0.088002
    25  H    0.065453
    26  H    0.099244
    27  H    0.089669
    28  H    0.090180
    29  H    0.094547
    30  H    0.130720
    31  H    0.083082
    32  H    0.087854
    33  H    0.084264
    34  H    0.084491
    35  H    0.087763
    36  H    0.093921
    37  H    0.106902
    38  H    0.102324
    39  H    0.106415
    40  H    0.090139
    41  H    0.084352
    42  H    0.093586
    43  H    0.101074
 Sum of Mulliken charges =  -0.00000

 Dipole moment (field-independent basis, Debye):
    X=             -0.6645    Y=             -0.5149    Z=              0.7794  Tot=              1.1463
 Quadrupole moment (field-independent basis, Debye-Ang):
   XX=            -95.3868   YY=            -97.5259   ZZ=            -97.1362
   XY=             -0.3869   XZ=             -0.1600   YZ=             -0.9065

  Exact polarizability: 167.197  -2.595 154.228  -3.819  -0.966 141.592
 Approx polarizability: 216.179  -0.702 212.044  -1.309  -0.740 211.213

                      1                      2                      3
                      A                      A                      A
 Frequencies --     29.5268                47.5965                52.5620
 Red. masses --      3.1637                 3.2227                 1.6951
 Frc consts  --      0.0016                 0.0043                 0.0028
 IR Inten    --      0.0211                 0.0157                 0.2887

                      4                      5                      6
                      A                      A                      A
 Frequencies --     90.5823               112.1651               124.7053
 Red. masses --      2.9185                 2.8788                 2.5947
 Frc consts  --      0.0141                 0.0213                 0.0238
 IR Inten    --      0.1619                 0.2720                 0.2069

                      7                      8                      9
                      A                      A                      A
 Frequencies --    143.8410               155.2911               171.9064
 Red. masses --      2.4326                 2.5323                 2.5338
 Frc consts  --      0.0297                 0.0360                 0.0441
 IR Inten    --      2.4654                 0.4914                 0.0269

                     10                     11                     12
                      A                      A                      A
 Frequencies --    199.6268               241.0673               249.2130
 Red. masses --      2.8545                 2.6160                 1.1713
 Frc consts  --      0.0670                 0.0896                 0.0429
 IR Inten    --      0.5539                 0.7051                 0.1262

                     13                     14                     15
                      A                      A                      A
 Frequencies --    255.2480               259.5586               272.1873
 Red. masses --      1.1570                 2.3557                 2.2612
 Frc consts  --      0.0444                 0.0935                 0.0987
 IR Inten    --      0.1234                 0.4499                 0.1389

                     16                     17                     18
                      A                      A                      A
 Frequencies --    292.4751               334.6267               338.7592
 Red. masses --      2.5718                 1.9717                 2.3187
 Frc consts  --      0.1296                 0.1301                 0.1568
 IR Inten    --      2.0628                 0.0997                 0.7974

                     19                     20                     21
                      A                      A                      A
 Frequencies --    381.1879               402.1240               422.8756
 Red. masses --      2.3517                 2.1523                 2.3310
 Frc consts  --      0.2013                 0.2051                 0.2456
 IR Inten    --      1.2725                 0.2281                 0.1995

                     22                     23                     24
                      A                      A                      A
 Frequencies --    428.6898               458.6590               495.7109
 Red. masses --      3.2276                 2.8459                 2.4609
 Frc consts  --      0.3495                 0.3527                 0.3563
 IR Inten    --      2.3363                 1.0578                 0.6011

                     25                     26                     27
                      A                      A                      A
 Frequencies --    563.9996               624.2989               714.4972
 Red. masses --      2.8023                 2.0498                 1.5149
 Frc consts  --      0.5252                 0.4707                 0.4556
 IR Inten    --      0.6357                 2.4741                 6.1011

                     28                     29                     30
                      A                      A                      A
 Frequencies --    743.6914               749.0315               782.6500
 Red. masses --      1.1061                 2.3643                 2.1285
 Frc consts  --      0.3604                 0.7816                 0.7682
 IR Inten    --      2.4255                 0.9827                 3.8678

                     31                     32                     33
                      A                      A                      A
 Frequencies --    803.8361               814.2136               826.8480
 Red. masses --      2.1324                 1.2225                 1.7928
 Frc consts  --      0.8118                 0.4775                 0.7222
 IR Inten    --      1.1322                 0.4049                 0.4771

                     34                     35                     36
                      A                      A                      A
 Frequencies --    864.9871               899.2243               915.3717
 Red. masses --      1.7615                 2.2064                 1.7911
 Frc consts  --      0.7765                 1.0511                 0.8842
 IR Inten    --      5.6619                 2.8216                 4.9201

                     37                     38                     39
                      A                      A                      A
 Frequencies --    918.7802               936.5919               953.5442
 Red. masses --      2.0808                 1.8344                 1.1458
 Frc consts  --      1.0349                 0.9481                 0.6138
 IR Inten    --      0.4006                 1.5965                 0.0458

                     40                     41                     42
                      A                      A                      A
 Frequencies --    974.0812               994.4970              1008.5537
 Red. masses --      2.0829                 1.8634                 2.0779
 Frc consts  --      1.1644                 1.0858                 1.2453
 IR Inten    --      0.4262                16.7372                 0.3997

                     43                     44                     45
                      A                      A                      A
 Frequencies --   1027.3159              1033.3611              1061.2369
 Red. masses --      2.8470                 2.0547                 2.6270
 Frc consts  --      1.7703                 1.2927                 1.7432
 IR Inten    --      1.6168                 2.6445                 0.2280

                     46                     47                     48
                      A                      A                      A
 Frequencies --   1069.4257              1073.0117              1083.6299
 Red. masses --      1.9892                 2.1901                 1.8048
 Frc consts  --      1.3404                 1.4857                 1.2486
 IR Inten    --      2.7525                 0.9211                 2.2695

                     49                     50                     51
                      A                      A                      A
 Frequencies --   1100.2496              1113.6305              1125.0756
 Red. masses --      2.5806                 2.1521                 3.5296
 Frc consts  --      1.8406                 1.5725                 2.6323
 IR Inten    --     15.6740                41.5336               155.4433

                     52                     53                     54
                      A                      A                      A
 Frequencies --   1137.7796              1151.2164              1163.7558
 Red. masses --      2.4528                 2.5294                 2.1459
 Frc consts  --      1.8708                 1.9751                 1.7124
 IR Inten    --      7.3895                13.3496                 0.7765

                     55                     56                     57
                      A                      A                      A
 Frequencies --   1188.8019              1193.4487              1219.0089
 Red. masses --      1.2360                 1.6308                 1.3394
 Frc consts  --      1.0292                 1.3685                 1.1727
 IR Inten    --      2.4696                 2.7550                13.2854

                     58                     59                     60
                      A                      A                      A
 Frequencies --   1239.1257              1250.8451              1253.6289
 Red. masses --      1.2876                 1.2992                 1.2066
 Frc consts  --      1.1648                 1.1977                 1.1173
 IR Inten    --      0.9419                 1.3125                 4.6770

                     61                     62                     63
                      A                      A                      A
 Frequencies --   1262.9504              1292.0494              1303.4399
 Red. masses --      1.3242                 1.3052                 1.2603
 Frc consts  --      1.2445                 1.2837                 1.2615
 IR Inten    --      2.1655                 2.7422                 4.2545

                     64                     65                     66
                      A                      A                      A
 Frequencies --   1310.7169              1317.7070              1323.7255
 Red. masses --      1.1231                 1.1793                 1.0893
 Frc consts  --      1.1368                 1.2064                 1.1246
 IR Inten    --      0.1424                 0.4231                 0.1652

                     67                     68                     69
                      A                      A                      A
 Frequencies --   1336.1642              1342.4600              1352.9622
 Red. masses --      1.3021                 1.2451                 1.2367
 Frc consts  --      1.3697                 1.3221                 1.3338
 IR Inten    --      0.8633                 2.8181                 5.2144

                     70                     71                     72
                      A                      A                      A
 Frequencies --   1365.7327              1373.4524              1378.8055
 Red. masses --      1.3324                 1.2687                 1.3394
 Frc consts  --      1.4642                 1.4101                 1.5003
 IR Inten    --      3.3082                 9.3180                 1.7379

                     73                     74                     75
                      A                      A                      A
 Frequencies --   1383.1047              1393.0921              1398.9914
 Red. masses --      1.3599                 1.4093                 1.3816
 Frc consts  --      1.5327                 1.6114                 1.5932
 IR Inten    --      3.9617                 8.3840                13.6500

                     76                     77                     78
                      A                      A                      A
 Frequencies --   1401.9996              1403.0087              1408.4441
 Red. masses --      1.3542                 1.3460                 1.3278
 Frc consts  --      1.5683                 1.5611                 1.5519
 IR Inten    --      9.1442                 5.2856                 1.7233

                     79                     80                     81
                      A                      A                      A
 Frequencies --   1413.1203              1416.3566              1446.7605
 Red. masses --      1.2374                 1.2961                 1.3860
 Frc consts  --      1.4558                 1.5319                 1.7093
 IR Inten    --      1.5187                 3.9564                 3.5879

                     82                     83                     84
                      A                      A                      A
 Frequencies --   1470.0315              1479.8185              1485.0885
 Red. masses --      1.0901                 1.0825                 1.0817
 Frc consts  --      1.3880                 1.3966                 1.4056
 IR Inten    --      2.3767                 2.7030                 0.5264

                     85                     86                     87
                      A                      A                      A
 Frequencies --   1487.3179              1491.1335              1492.1222
 Red. masses --      1.0649                 1.0855                 1.0863
 Frc consts  --      1.3879                 1.4221                 1.4250
 IR Inten    --      0.2569                 5.3589                 4.9552

                     88                     89                     90
                      A                      A                      A
 Frequencies --   1495.6834              1498.1846              1499.8532
 Red. masses --      1.0702                 1.0478                 1.0403
 Frc consts  --      1.4106                 1.3857                 1.3788
 IR Inten    --      0.7081                 4.4195                 4.7123

                     91                     92                     93
                      A                      A                      A
 Frequencies --   1500.6223              1509.5842              1510.5350
 Red. masses --      1.0596                 1.0784                 1.0795
 Frc consts  --      1.4058                 1.4480                 1.4512
 IR Inten    --      3.4195                 4.0419                 0.5956

                     94                     95                     96
                      A                      A                      A
 Frequencies --   1522.5697              1528.4703              2948.7553
 Red. masses --      1.0796                 1.0892                 1.0588
 Frc consts  --      1.4745                 1.4993                 5.4243
 IR Inten    --      7.4884                 5.5011                30.8754

                     97                     98                     99
                      A                      A                      A
 Frequencies --   2970.3167              2980.8674              2998.9425
 Red. masses --      1.0824                 1.0998                 1.0653
 Frc consts  --      5.6266                 5.7575                 5.6452
 IR Inten    --     44.1107                30.2641                24.7112

                    100                    101                    102
                      A                      A                      A
 Frequencies --   3004.3979              3012.4297              3015.6366
 Red. masses --      1.0606                 1.0586                 1.0639
 Frc consts  --      5.6402                 5.6601                 5.7002
 IR Inten    --     29.7064                15.6365                32.7145

                    103                    104                    105
                      A                      A                      A
 Frequencies --   3016.3410              3026.8781              3027.4340
 Red. masses --      1.0368                 1.0517                 1.0676
 Frc consts  --      5.5580                 5.6773                 5.7651
 IR Inten    --     27.1285                21.5234                26.1291

                    106                    107                    108
                      A                      A                      A
 Frequencies --   3031.1023              3031.3637              3037.0225
 Red. masses --      1.0679                 1.0423                 1.0736
 Frc consts  --      5.7807                 5.6434                 5.8344
 IR Inten    --     27.3591                44.2960                59.8492

                    109                    110                    111
                      A                      A                      A
 Frequencies --   3038.1667              3038.2683              3043.0155
 Red. masses --      1.0897                 1.0998                 1.0867
 Frc consts  --      5.9264                 5.9818                 5.9288
 IR Inten    --     51.3700                 5.4504                21.4323

                    112                    113                    114
                      A                      A                      A
 Frequencies --   3043.6072              3053.9523              3061.1445
 Red. masses --      1.0758                 1.0964                 1.0989
 Frc consts  --      5.8717                 6.0246                 6.0672
 IR Inten    --      5.2089                32.7167                37.1664

                    115                    116                    117
                      A                      A                      A
 Frequencies --   3068.4049              3071.5060              3072.4778
 Red. masses --      1.0983                 1.1045                 1.0933
 Frc consts  --      6.0927                 6.1394                 6.0807
 IR Inten    --     47.3049                44.8385                13.8673

                    118                    119                    120
                      A                      A                      A
 Frequencies --   3078.2854              3089.6752              3095.8600
 Red. masses --      1.0949                 1.1009                 1.0922
 Frc consts  --      6.1129                 6.1918                 6.1676
 IR Inten    --     52.0824                43.5042                42.0232

                    121                    122                    123
                      A                      A                      A
 Frequencies --   3097.5970              3102.1948              3107.7793
 Red. masses --      1.1021                 1.1012                 1.0901
 Frc consts  --      6.2307                 6.2436                 6.2033
 IR Inten    --     51.1924                38.6584                28.1076

 - Thermochemistry -
 -------------------
 Temperature   298.150 Kelvin.  Pressure   1.00000 Atm.
 Atom     1 has atomic number  6 and mass  12.00000

 Molecular mass:   212.21402 amu.
 Principal axes and moments of inertia in atomic units:
                           1         2         3
     Eigenvalues --  2444.728645512.437956272.89197
           X            0.99999  -0.00365   0.00297
           Y            0.00366   0.99999  -0.00374
           Z           -0.00295   0.00375   0.99999
 This molecule is an asymmetric top.
 Rotational symmetry number  1.
 Warning -- assumption of classical behavior for rotation
           may cause significant error
 Rotational temperatures (Kelvin)      0.03543     0.01571     0.01381
 Rotational constants (GHZ):           0.73822     0.32739     0.28770
 Zero-point vibrational energy    1054465.8 (Joules/Mol)
                                  252.02337 (Kcal/Mol)
 Warning -- explicit consideration of  25 degrees of freedom as
           vibrations may cause significant error
 Vibrational temperatures:     42.48    68.48    75.62   130.33   161.38
          (Kelvin)            179.42   206.96   223.43   247.33   287.22
                              346.84   358.56   367.25   373.45   391.62
                              420.81   481.45   487.40   548.44   578.57
                              608.42   616.79   659.91   713.22   811.47
                              898.23  1028.00  1070.01  1077.69  1126.06
                             1156.54  1171.47  1189.65  1244.52  1293.78
                             1317.02  1321.92  1347.55  1371.94  1401.49
                             1430.86  1451.08  1478.08  1486.78  1526.88
                             1538.66  1543.82  1559.10  1583.01  1602.27
                             1618.73  1637.01  1656.34  1674.39  1710.42
                             1717.11  1753.88  1782.83  1799.69  1803.69
                             1817.10  1858.97  1875.36  1885.83  1895.89
                             1904.55  1922.44  1931.50  1946.61  1964.98
                             1976.09  1983.79  1989.98  2004.35  2012.84
                             2017.16  2018.62  2026.44  2033.16  2037.82
                             2081.57  2115.05  2129.13  2136.71  2139.92
                             2145.41  2146.83  2151.95  2155.55  2157.95
                             2159.06  2171.96  2173.32  2190.64  2199.13
                             4242.60  4273.62  4288.80  4314.81  4322.66
                             4334.21  4338.83  4339.84  4355.00  4355.80
                             4361.08  4361.46  4369.60  4371.24  4371.39
                             4378.22  4379.07  4393.96  4404.30  4414.75
                             4419.21  4420.61  4428.97  4445.35  4454.25
                             4456.75  4463.37  4471.40

 Zero-point correction=                           0.401625 (Hartree/Particle)
 Thermal correction to Energy=                    0.418890
 Thermal correction to Enthalpy=                  0.419834
 Thermal correction to Gibbs Free Energy=         0.356704
 Sum of electronic and zero-point Energies=           -625.219458
 Sum of electronic and thermal Energies=              -625.202193
 Sum of electronic and thermal Enthalpies=            -625.201248
 Sum of electronic and thermal Free Energies=         -625.264379

                     E (Thermal)             CV                S
                      KCal/Mol        Cal/Mol-Kelvin    Cal/Mol-Kelvin
 Total                  262.858             66.482            132.869
 Electronic               0.000              0.000              0.000
 Translational            0.889              2.981             41.961
 Rotational               0.889              2.981             32.802
 Vibrational            261.080             60.521             58.106
 Vibration     1          0.593              1.984              5.861
 Vibration     2          0.595              1.978              4.915
 Vibration     3          0.596              1.977              4.719
 Vibration     4          0.602              1.956              3.647
 Vibration     5          0.607              1.939              3.231
 Vibration     6          0.610              1.928              3.026
 Vibration     7          0.616              1.909              2.752
 Vibration     8          0.620              1.897              2.606
 Vibration     9          0.626              1.877              2.415
 Vibration    10          0.638              1.840              2.137
 Vibration    11          0.658              1.777              1.795
 Vibration    12          0.662              1.764              1.736
 Vibration    13          0.666              1.754              1.694
 Vibration    14          0.668              1.747              1.665
 Vibration    15          0.675              1.725              1.582
 Vibration    16          0.688              1.688              1.460
 Vibration    17          0.716              1.606              1.238
 Vibration    18          0.719              1.598              1.218
 Vibration    19          0.751              1.510              1.034
 Vibration    20          0.768              1.466              0.955
 Vibration    21          0.785              1.420              0.882
 Vibration    22          0.790              1.408              0.863
 Vibration    23          0.817              1.342              0.770
 Vibration    24          0.851              1.260              0.669
 Vibration    25          0.920              1.109              0.516

 Optimization completed.
    -- Stationary point found.
 Normal termination of Gaussian 16 at Tue May 23 22:17:21 2023.
