 Gaussian 16, Revision A.03,
 Gaussian 16:  ES64L-G16RevA.03 25-Dec-2016

 -----------------------------
 # opt freq b3lyp/6-31g(2df,p)
 -----------------------------

 -------------------
 Title Card Required
 -------------------
 Symbolic Z-matrix:
 Charge =  0 Multiplicity = 1

 SCF Done:  E(RB3LYP) =  -1152.10522034     A.U. after   13 cycles
 SCF Done:  E(RB3LYP) =  -1152.11150519     A.U. after   12 cycles
 SCF Done:  E(RB3LYP) =  -1152.11235571     A.U. after   10 cycles
 SCF Done:  E(RB3LYP) =  -1152.11274982     A.U. after   10 cycles
 SCF Done:  E(RB3LYP) =  -1152.11394971     A.U. after   13 cycles
 SCF Done:  E(RB3LYP) =  -1152.11350149     A.U. after   13 cycles
 SCF Done:  E(RB3LYP) =  -1152.11551870     A.U. after   11 cycles
 SCF Done:  E(RB3LYP) =  -1152.11503409     A.U. after   12 cycles
 SCF Done:  E(RB3LYP) =  -1152.11529849     A.U. after   11 cycles
 SCF Done:  E(RB3LYP) =  -1152.11641607     A.U. after    8 cycles
 SCF Done:  E(RB3LYP) =  -1152.11658883     A.U. after   10 cycles
 SCF Done:  E(RB3LYP) =  -1152.11663915     A.U. after   10 cycles
 SCF Done:  E(RB3LYP) =  -1152.11664379     A.U. after    9 cycles
 SCF Done:  E(RB3LYP) =  -1152.11664525     A.U. after    7 cycles
 SCF Done:  E(RB3LYP) =  -1152.11664554     A.U. after    7 cycles
 SCF Done:  E(RB3LYP) =  -1152.11664560     A.U. after    6 cycles
 SCF Done:  E(RB3LYP) =  -1152.11664560     A.U. after    6 cycles
 Optimization completed.
    -- Stationary point found.
 Normal termination of Gaussian 16 at Mon May 22 09:55:37 2023.

 ----------------------------------------------------------------------
 #N Geom=AllCheck Guess=TCheck SCRF=Check GenChk RB3LYP/6-31G(2df,p) Fr
 eq
 ----------------------------------------------------------------------

 Structure from the checkpoint file:  "CCCCOCCCSCCqNrOOCCC.chk"
 -------------------
 Title Card Required
 -------------------
 Charge =  0 Multiplicity = 1

                         Standard orientation:
 ---------------------------------------------------------------------
 Center     Atomic      Atomic             Coordinates (Angstroms)
 Number     Number       Type             X           Y           Z
 ---------------------------------------------------------------------
      1          6           0       -9.526561    0.551071   -0.134452
      2          6           0       -8.332200   -0.378961    0.095189
      3          6           0       -6.984472    0.329248   -0.074881
      4          6           0       -5.797276   -0.595903    0.153216
      5          8           0       -4.604948    0.140489   -0.024578
      6          6           0       -3.438924   -0.626696    0.163955
      7          6           0       -2.229535    0.276355   -0.057271
      8          6           0       -0.913322   -0.478853    0.130716
      9         16           0        0.501797    0.645915   -0.153371
     10          6           0        1.874344   -0.520707    0.161165
     11          6           0        3.203033    0.096412   -0.302226
     12          7           0        3.533615    1.384711    0.267157
     13          8           0        4.151866   -0.896124    0.067088
     14          8           0        5.374513   -0.614308   -0.653836
     15          6           0        6.366360   -0.270900    0.305709
     16          6           0        7.660144   -0.050148   -0.470823
     17          6           0        8.824816    0.312544    0.455082
     18          1           0      -10.475498    0.021004   -0.007027
     19          1           0       -9.511871    0.970661   -1.146352
     20          1           0       -9.515548    1.389885    0.570176
     21          1           0       -8.389914   -1.226340   -0.600856
     22          1           0       -8.393555   -0.810346    1.103168
     23          1           0       -6.910725    1.171309    0.624308
     24          1           0       -6.907246    0.754651   -1.083057
     25          1           0       -5.830343   -1.445162   -0.551932
     26          1           0       -5.833412   -1.024514    1.170375
     27          1           0       -3.417392   -1.477143   -0.540416
     28          1           0       -3.417860   -1.054579    1.182032
     29          1           0       -2.285331    1.117638    0.641658
     30          1           0       -2.283022    0.695624   -1.067666
     31          1           0       -0.842660   -1.315405   -0.572755
     32          1           0       -0.841790   -0.883548    1.146043
     33          1           0        1.694415   -1.450943   -0.383389
     34          1           0        1.932614   -0.751082    1.230791
     35          1           0        3.207557    0.199826   -1.392875
     36          1           0        3.144106    1.495275    1.197918
     37          1           0        3.186353    2.142376   -0.308872
     38          1           0        6.480430   -1.090386    1.029292
     39          1           0        6.063221    0.634919    0.843198
     40          1           0        7.499075    0.747020   -1.205397
     41          1           0        7.894485   -0.958666   -1.037091
     42          1           0        8.617561    1.230830    1.014986
     43          1           0        9.743750    0.471513   -0.116509
     44          1           0        9.018661   -0.483261    1.182425
 ---------------------------------------------------------------------

 SCF Done:  E(RB3LYP) =  -1152.11664560     A.U. after    1 cycles

 The electronic state is 1-A.
 Alpha  occ. eigenvalues --  -88.86779 -19.17925 -19.17596 -19.13805 -14.31621
 Alpha  occ. eigenvalues --  -10.26261 -10.23061 -10.22526 -10.21662 -10.21422
 Alpha  occ. eigenvalues --  -10.21329 -10.18928 -10.18260 -10.17912 -10.17752
 Alpha  occ. eigenvalues --  -10.17492 -10.17379  -7.93105  -5.89588  -5.89259
 Alpha  occ. eigenvalues --   -5.88613  -1.10614  -1.03317  -0.93414  -0.86830
 Alpha  occ. eigenvalues --   -0.81641  -0.79527  -0.77285  -0.76297  -0.72542
 Alpha  occ. eigenvalues --   -0.69051  -0.65960  -0.63299  -0.61127  -0.59690
 Alpha  occ. eigenvalues --   -0.58718  -0.58155  -0.57810  -0.52397  -0.49735
 Alpha  occ. eigenvalues --   -0.49052  -0.48688  -0.47804  -0.47322  -0.46151
 Alpha  occ. eigenvalues --   -0.45090  -0.44732  -0.44290  -0.43175  -0.41620
 Alpha  occ. eigenvalues --   -0.41332  -0.40437  -0.39763  -0.39345  -0.37583
 Alpha  occ. eigenvalues --   -0.37124  -0.37011  -0.36521  -0.36190  -0.34945
 Alpha  occ. eigenvalues --   -0.34206  -0.33691  -0.33305  -0.32919  -0.32523
 Alpha  occ. eigenvalues --   -0.32082  -0.31345  -0.31168  -0.28212  -0.25907
 Alpha  occ. eigenvalues --   -0.25529  -0.23894  -0.22195
 Alpha virt. eigenvalues --    0.02555   0.03986   0.07862   0.08812   0.08990
 Alpha virt. eigenvalues --    0.09478   0.09834   0.11131   0.11486   0.12506
 Alpha virt. eigenvalues --    0.12686   0.13201   0.13981   0.14378   0.14433

 Mulliken charges:
               1
     1  C   -0.379195
     2  C   -0.165395
     3  C   -0.178315
     4  C   -0.051699
     5  O   -0.247629
     6  C   -0.057552
     7  C   -0.206625
     8  C   -0.195274
     9  S   -0.171907
    10  C   -0.228268
    11  C    0.156053
    12  N   -0.496101
    13  O   -0.195221
    14  O   -0.192560
    15  C   -0.001106
    16  C   -0.192911
    17  C   -0.380484
    18  H    0.111579
    19  H    0.115791
    20  H    0.115655
    21  H    0.096131
    22  H    0.095970
    23  H    0.103784
    24  H    0.104038
    25  H    0.082427
    26  H    0.082132
    27  H    0.084413
    28  H    0.083758
    29  H    0.124234
    30  H    0.125152
    31  H    0.123218
    32  H    0.122114
    33  H    0.134867
    34  H    0.126861
    35  H    0.099996
    36  H    0.235990
    37  H    0.247017
    38  H    0.091469
    39  H    0.106474
    40  H    0.109317
    41  H    0.108596
    42  H    0.118789
    43  H    0.116924
    44  H    0.117494
 Sum of Mulliken charges =  -0.00000

 Dipole moment (field-independent basis, Debye):
    X=             -1.4498    Y=             -0.6643    Z=              1.1055  Tot=              1.9404
 Quadrupole moment (field-independent basis, Debye-Ang):
   XX=           -106.4736   YY=           -113.9227   ZZ=           -112.9174
   XY=              8.8817   XZ=              1.8936   YZ=             -0.3884

  Exact polarizability: 264.069  -0.205 146.962   0.570  -1.372 138.697
 Approx polarizability: 268.998   0.393 230.905  -2.634  -3.090 221.655

                      1                      2                      3
                      A                      A                      A
 Frequencies --      9.8137                19.3649                24.4053
 Red. masses --      4.7462                 4.1023                 2.6009
 Frc consts  --      0.0003                 0.0009                 0.0009
 IR Inten    --      0.0374                 0.1847                 0.8107

                      4                      5                      6
                      A                      A                      A
 Frequencies --     34.8080                44.4593                54.8277
 Red. masses --      2.6786                 4.1933                 5.0010
 Frc consts  --      0.0019                 0.0049                 0.0089
 IR Inten    --      0.5539                 0.2987                 0.0382

                      7                      8                      9
                      A                      A                      A
 Frequencies --     63.1445                72.6539                77.4308
 Red. masses --      1.7990                 2.1418                 4.0897
 Frc consts  --      0.0042                 0.0067                 0.0144
 IR Inten    --      0.9821                 2.0217                 0.4794

                     10                     11                     12
                      A                      A                      A
 Frequencies --     94.4116               106.9717               121.3363
 Red. masses --      2.4674                 2.4415                 2.5423
 Frc consts  --      0.0130                 0.0165                 0.0221
 IR Inten    --      0.0209                 1.5390                 0.4292

                     13                     14                     15
                      A                      A                      A
 Frequencies --    127.7016               143.2546               145.4701
 Red. masses --      3.1969                 4.2202                 2.0568
 Frc consts  --      0.0307                 0.0510                 0.0256
 IR Inten    --      1.7412                 1.3129                 0.6294

                     16                     17                     18
                      A                      A                      A
 Frequencies --    158.8219               162.3154               196.0081
 Red. masses --      3.0390                 3.6207                 2.9964
 Frc consts  --      0.0452                 0.0562                 0.0678
 IR Inten    --      4.3442                 0.4531                 1.6951

                     19                     20                     21
                      A                      A                      A
 Frequencies --    212.9384               233.3961               236.8986
 Red. masses --      1.3711                 2.2367                 1.3046
 Frc consts  --      0.0366                 0.0718                 0.0431
 IR Inten    --     22.7130                 6.1533                 0.8289

                     22                     23                     24
                      A                      A                      A
 Frequencies --    249.0511               272.5717               302.0739
 Red. masses --      1.1238                 5.5845                 4.1447
 Frc consts  --      0.0411                 0.2445                 0.2228
 IR Inten    --      0.0652                 0.7046                 1.6859

                     25                     26                     27
                      A                      A                      A
 Frequencies --    318.7989               369.3331               418.1181
 Red. masses --      3.6581                 3.8083                 3.2595
 Frc consts  --      0.2190                 0.3061                 0.3357
 IR Inten    --      1.3057                 1.0551                 0.8630

                     28                     29                     30
                      A                      A                      A
 Frequencies --    471.0291               486.7261               503.6975
 Red. masses --      4.3111                 4.2900                 3.2375
 Frc consts  --      0.5635                 0.5988                 0.4839
 IR Inten    --      8.5255                13.0073                 2.7325

                     31                     32                     33
                      A                      A                      A
 Frequencies --    526.6442               590.5995               744.3569
 Red. masses --      2.8841                 3.9957                 1.0723
 Frc consts  --      0.4713                 0.8212                 0.3500
 IR Inten    --      3.2905                 6.2104                 2.5775

                     34                     35                     36
                      A                      A                      A
 Frequencies --    761.5701               762.4064               769.1835
 Red. masses --      4.8642                 1.0869                 1.0849
 Frc consts  --      1.6622                 0.3722                 0.3782
 IR Inten    --      6.7980                 2.4208                 1.6821

                     37                     38                     39
                      A                      A                      A
 Frequencies --    778.9110               784.8603               814.1795
 Red. masses --      4.8777                 1.8122                 1.1309
 Frc consts  --      1.7436                 0.6577                 0.4417
 IR Inten    --     19.1837               174.3894                 0.3514

                     40                     41                     42
                      A                      A                      A
 Frequencies --    860.1545               876.8960               907.2337
 Red. masses --      1.2478                 1.7185                 1.8834
 Frc consts  --      0.5439                 0.7785                 0.9133
 IR Inten    --      1.4943                 5.8247                 4.7444

                     43                     44                     45
                      A                      A                      A
 Frequencies --    907.8285               913.9619               939.3074
 Red. masses --      1.1252                 1.7582                 6.5060
 Frc consts  --      0.5464                 0.8653                 3.3821
 IR Inten    --      2.2203                 2.8790                 0.6915

                     46                     47                     48
                      A                      A                      A
 Frequencies --    953.2341               962.6894              1007.3132
 Red. masses --      1.1405                 2.0384                 4.1498
 Frc consts  --      0.6106                 1.1130                 2.4809
 IR Inten    --      0.0106                15.7558                11.3368

                     49                     50                     51
                      A                      A                      A
 Frequencies --   1025.6424              1031.5383              1033.4916
 Red. masses --      2.6288                 3.6401                 4.6724
 Frc consts  --      1.6293                 2.2821                 2.9404
 IR Inten    --    175.8399                 2.3752                18.7425

                     52                     53                     54
                      A                      A                      A
 Frequencies --   1055.1145              1055.5708              1058.4957
 Red. masses --      2.6628                 2.6148                 1.2726
 Frc consts  --      1.7466                 1.7166                 0.8401
 IR Inten    --     28.3030                 2.4323                 9.7975

                     55                     56                     57
                      A                      A                      A
 Frequencies --   1065.8803              1081.2514              1105.8520
 Red. masses --      2.8315                 2.5823                 1.2939
 Frc consts  --      1.8953                 1.7788                 0.9323
 IR Inten    --      4.8797                 1.3668                13.1162

                     58                     59                     60
                      A                      A                      A
 Frequencies --   1134.3257              1150.4983              1161.9746
 Red. masses --      2.3165                 2.7746                 7.8307
 Frc consts  --      1.7561                 2.1639                 6.2294
 IR Inten    --     55.8499                10.0810               301.6180

                     61                     62                     63
                      A                      A                      A
 Frequencies --   1163.3222              1189.3730              1193.7186
 Red. masses --      2.7744                 1.5026                 1.5359
 Frc consts  --      2.2122                 1.2523                 1.2895
 IR Inten    --     12.0380                 0.4202                 0.7899

                     64                     65                     66
                      A                      A                      A
 Frequencies --   1215.8873              1235.7696              1253.4274
 Red. masses --      1.5013                 1.3151                 1.3036
 Frc consts  --      1.3077                 1.1832                 1.2067
 IR Inten    --      5.5916                16.8295                 2.5816

                     67                     68                     69
                      A                      A                      A
 Frequencies --   1254.9524              1261.1831              1288.5222
 Red. masses --      1.2355                 1.2868                 1.2376
 Frc consts  --      1.1464                 1.2059                 1.2106
 IR Inten    --      0.5412                 2.3863                 0.6433

                     70                     71                     72
                      A                      A                      A
 Frequencies --   1290.8596              1294.0657              1307.6598
 Red. masses --      1.4595                 1.3317                 1.1044
 Frc consts  --      1.4329                 1.3139                 1.1127
 IR Inten    --      4.3552                 7.0920                 0.8383

                     73                     74                     75
                      A                      A                      A
 Frequencies --   1310.5248              1311.8661              1323.9869
 Red. masses --      1.0930                 1.0925                 1.0904
 Frc consts  --      1.1060                 1.1077                 1.1262
 IR Inten    --      0.1010                 0.0492                 0.0534

                     76                     77                     78
                      A                      A                      A
 Frequencies --   1331.0868              1335.4075              1348.2210
 Red. masses --      1.3438                 1.3718                 1.3870
 Frc consts  --      1.4028                 1.4414                 1.4855
 IR Inten    --     15.6722                 3.1811                 5.1771

                     79                     80                     81
                      A                      A                      A
 Frequencies --   1385.3277              1405.3115              1405.4613
 Red. masses --      1.4275                 1.4401                 1.4376
 Frc consts  --      1.6142                 1.6757                 1.6731
 IR Inten    --      8.7376                58.4493                15.5518

                     82                     83                     84
                      A                      A                      A
 Frequencies --   1413.5505              1415.1865              1438.4412
 Red. masses --      1.2380                 1.2480                 1.2165
 Frc consts  --      1.4575                 1.4726                 1.4830
 IR Inten    --      4.8924                 1.8386                 8.9731

                     85                     86                     87
                      A                      A                      A
 Frequencies --   1454.9805              1477.6294              1485.4918
 Red. masses --      1.5069                 1.0948                 1.0891
 Frc consts  --      1.8795                 1.4083                 1.4160
 IR Inten    --      1.9172                16.1170                 0.8144

                     88                     89                     90
                      A                      A                      A
 Frequencies --   1487.7041              1493.9043              1495.4308
 Red. masses --      1.0648                 1.0510                 1.0735
 Frc consts  --      1.3885                 1.3819                 1.4145
 IR Inten    --      0.5341                 1.2825                 0.0122

                     91                     92                     93
                      A                      A                      A
 Frequencies --   1499.5584              1499.8684              1500.2171
 Red. masses --      1.0843                 1.0400                 1.0395
 Frc consts  --      1.4366                 1.3785                 1.3785
 IR Inten    --      1.3076                 5.1276                 5.1184

                     94                     95                     96
                      A                      A                      A
 Frequencies --   1508.5127              1509.4668              1519.1732
 Red. masses --      1.0817                 1.0795                 1.0905
 Frc consts  --      1.4503                 1.4492                 1.4828
 IR Inten    --      1.5273                 4.6412                 5.0602

                     97                     98                     99
                      A                      A                      A
 Frequencies --   1527.3673              1538.1759              1655.8336
 Red. masses --      1.0878                 1.0964                 1.1038
 Frc consts  --      1.4952                 1.5284                 1.7831
 IR Inten    --      4.6277                 0.6186                24.8417

                    100                    101                    102
                      A                      A                      A
 Frequencies --   2934.4526              2947.6228              2963.7902
 Red. masses --      1.0534                 1.0542                 1.1042
 Frc consts  --      5.3444                 5.3964                 5.7145
 IR Inten    --     16.9391                76.3204                83.2099

                    103                    104                    105
                      A                      A                      A
 Frequencies --   2966.5246              3003.7785              3012.4201
 Red. masses --      1.1056                 1.0608                 1.0587
 Frc consts  --      5.7327                 5.6393                 5.6603
 IR Inten    --     15.8591                38.1976                18.4041

                    106                    107                    108
                      A                      A                      A
 Frequencies --   3028.0764              3029.6768              3032.1580
 Red. masses --      1.0476                 1.0557                 1.0463
 Frc consts  --      5.6593                 5.7093                 5.6677
 IR Inten    --     16.2859                19.7920                52.0439

                    109                    110                    111
                      A                      A                      A
 Frequencies --   3033.1531              3037.5135              3038.4537
 Red. masses --      1.0374                 1.0611                 1.1008
 Frc consts  --      5.6234                 5.7683                 5.9880
 IR Inten    --     25.1283                11.4148                 4.7324

                    112                    113                    114
                      A                      A                      A
 Frequencies --   3039.0873              3049.2368              3054.9620
 Red. masses --      1.0575                 1.0582                 1.0828
 Frc consts  --      5.7548                 5.7972                 5.9540
 IR Inten    --     30.8220                21.1868                22.2107

                    115                    116                    117
                      A                      A                      A
 Frequencies --   3057.6597              3071.0969              3072.9477
 Red. masses --      1.0984                 1.1061                 1.1047
 Frc consts  --      6.0503                 6.1467                 6.1462
 IR Inten    --      7.7205                 2.6079                31.4042

                    118                    119                    120
                      A                      A                      A
 Frequencies --   3077.7253              3097.8360              3098.2407
 Red. masses --      1.1036                 1.1023                 1.1059
 Frc consts  --      6.1594                 6.2328                 6.2545
 IR Inten    --     10.4344                40.2054                57.9459

                    121                    122                    123
                      A                      A                      A
 Frequencies --   3102.5320              3103.2482              3103.6735
 Red. masses --      1.1012                 1.1053                 1.1033
 Frc consts  --      6.2450                 6.2715                 6.2619
 IR Inten    --     37.7160                 2.7303                60.9546

                    124                    125                    126
                      A                      A                      A
 Frequencies --   3108.1649              3512.3771              3603.3340
 Red. masses --      1.1008                 1.0498                 1.0931
 Frc consts  --      6.2657                 7.6303                 8.3618
 IR Inten    --     33.5335                 3.0458                 6.8707

 - Thermochemistry -
 -------------------
 Temperature   298.150 Kelvin.  Pressure   1.00000 Atm.
 Atom     1 has atomic number  6 and mass  12.00000

 Molecular mass:   265.17117 amu.
 Principal axes and moments of inertia in atomic units:
                           1         2         3
     Eigenvalues --   562.50622********************
           X            1.00000   0.00206   0.00149
           Y           -0.00204   0.99990  -0.01407
           Z           -0.00152   0.01407   0.99990
 This molecule is an asymmetric top.
 Rotational symmetry number  1.
 Warning -- assumption of classical behavior for rotation
           may cause significant error
 Rotational temperatures (Kelvin)      0.15398     0.00310     0.00307
 Rotational constants (GHZ):           3.20839     0.06449     0.06387
 Zero-point vibrational energy    1021365.4 (Joules/Mol)
                                  244.11220 (Kcal/Mol)
 Warning -- explicit consideration of  32 degrees of freedom as
           vibrations may cause significant error
 Vibrational temperatures:     14.12    27.86    35.11    50.08    63.97
          (Kelvin)             78.88    90.85   104.53   111.41   135.84
                              153.91   174.58   183.73   206.11   209.30
                              228.51   233.54   282.01   306.37   335.80
                              340.84   358.33   392.17   434.62   458.68
                              531.39   601.58   677.71   700.29   724.71
                              757.72   849.74  1070.96  1095.73  1096.93
                             1106.68  1120.68  1129.24  1171.42  1237.57
                             1261.66  1305.31  1306.16  1314.99  1351.45
                             1371.49  1385.10  1449.30  1475.67  1484.15
                             1486.96  1518.07  1518.73  1522.94  1533.56
                             1555.68  1591.07  1632.04  1655.31  1671.82
                             1673.76  1711.24  1717.49  1749.39  1778.00
                             1803.40  1805.60  1814.56  1853.90  1857.26
                             1861.87  1881.43  1885.55  1887.48  1904.92
                             1915.14  1921.35  1939.79  1993.18  2021.93
                             2022.15  2033.78  2036.14  2069.60  2093.39
                             2125.98  2137.29  2140.47  2149.40  2151.59
                             2157.53  2157.98  2158.48  2170.41  2171.79
                             2185.75  2197.54  2213.09  2382.38  4222.02
                             4240.97  4264.23  4268.17  4321.77  4334.20
                             4356.73  4359.03  4362.60  4364.03  4370.30
                             4371.66  4372.57  4387.17  4395.41  4399.29
                             4418.62  4421.29  4428.16  4457.10  4457.68
                             4463.85  4464.88  4465.49  4471.96  5053.53
                             5184.39

 Zero-point correction=                           0.389018 (Hartree/Particle)
 Thermal correction to Energy=                    0.412189
 Thermal correction to Enthalpy=                  0.413133
 Thermal correction to Gibbs Free Energy=         0.331100
 Sum of electronic and zero-point Energies=          -1151.727628
 Sum of electronic and thermal Energies=             -1151.704457
 Sum of electronic and thermal Enthalpies=           -1151.703513
 Sum of electronic and thermal Free Energies=        -1151.785546

                     E (Thermal)             CV                S
                      KCal/Mol        Cal/Mol-Kelvin    Cal/Mol-Kelvin
 Total                  258.652             79.549            172.653
 Electronic               0.000              0.000              0.000
 Translational            0.889              2.981             42.625
 Rotational               0.889              2.981             34.452
 Vibrational            256.875             73.588             95.576
 Vibration     1          0.593              1.987              8.048
 Vibration     2          0.593              1.986              6.698
 Vibration     3          0.593              1.985              6.239
 Vibration     4          0.594              1.983              5.535
 Vibration     5          0.595              1.980              5.050
 Vibration     6          0.596              1.976              4.635
 Vibration     7          0.597              1.972              4.356
 Vibration     8          0.599              1.967              4.080
 Vibration     9          0.599              1.964              3.955
 Vibration    10          0.603              1.953              3.567
 Vibration    11          0.606              1.944              3.323
 Vibration    12          0.609              1.931              3.079
 Vibration    13          0.611              1.925              2.980
 Vibration    14          0.616              1.910              2.760
 Vibration    15          0.617              1.908              2.731
 Vibration    16          0.621              1.893              2.564
 Vibration    17          0.622              1.889              2.523
 Vibration    18          0.636              1.845              2.170
 Vibration    19          0.644              1.821              2.018
 Vibration    20          0.654              1.790              1.853
 Vibration    21          0.656              1.784              1.826
 Vibration    22          0.662              1.764              1.737
 Vibration    23          0.676              1.724              1.580
 Vibration    24          0.694              1.670              1.405
 Vibration    25          0.705              1.638              1.316
 Vibration    26          0.742              1.535              1.083
 Vibration    27          0.781              1.431              0.898
 Vibration    28          0.828              1.314              0.735
 Vibration    29          0.843              1.279              0.692
 Vibration    30          0.859              1.242              0.649
 Vibration    31          0.882              1.191              0.595
 Vibration    32          0.948              1.052              0.466

 Optimization completed.
    -- Stationary point found.
 Normal termination of Gaussian 16 at Mon May 22 12:57:58 2023.
