 Gaussian 16, Revision A.03,
 Gaussian 16:  ES64L-G16RevA.03 25-Dec-2016

 -----------------------------
 # opt freq b3lyp/6-31g(2df,p)
 -----------------------------

 -------------------
 Title Card Required
 -------------------
 Symbolic Z-matrix:
 Charge =  0 Multiplicity = 1

 SCF Done:  E(RB3LYP) =  -432.450219381     A.U. after   12 cycles
 SCF Done:  E(RB3LYP) =  -432.460106536     A.U. after   10 cycles
 SCF Done:  E(RB3LYP) =  -432.463168573     A.U. after   10 cycles
 SCF Done:  E(RB3LYP) =  -432.466199078     A.U. after   10 cycles
 SCF Done:  E(RB3LYP) =  -432.469035320     A.U. after   10 cycles
 SCF Done:  E(RB3LYP) =  -432.471036622     A.U. after   12 cycles
 SCF Done:  E(RB3LYP) =  -432.472575975     A.U. after   10 cycles
 SCF Done:  E(RB3LYP) =  -432.472718514     A.U. after    8 cycles
 SCF Done:  E(RB3LYP) =  -432.472766560     A.U. after    8 cycles
 SCF Done:  E(RB3LYP) =  -432.472792633     A.U. after    8 cycles
 SCF Done:  E(RB3LYP) =  -432.475425322     A.U. after    8 cycles
 SCF Done:  E(RB3LYP) =  -432.475471750     A.U. after    9 cycles
 SCF Done:  E(RB3LYP) =  -432.475469863     A.U. after    9 cycles
 SCF Done:  E(RB3LYP) =  -432.475473350     A.U. after    8 cycles
 SCF Done:  E(RB3LYP) =  -432.475474239     A.U. after    6 cycles
 SCF Done:  E(RB3LYP) =  -432.475473366     A.U. after    8 cycles
 SCF Done:  E(RB3LYP) =  -432.475473820     A.U. after    6 cycles
 SCF Done:  E(RB3LYP) =  -432.475474176     A.U. after    8 cycles
 SCF Done:  E(RB3LYP) =  -432.475473835     A.U. after    8 cycles
 Optimization completed.
    -- Stationary point found.
 Normal termination of Gaussian 16 at Sun May 28 14:00:31 2023.

 ----------------------------------------------------------------------
 #N Geom=AllCheck Guess=TCheck SCRF=Check GenChk RB3LYP/6-31G(2df,p) Fr
 eq
 ----------------------------------------------------------------------

 Structure from the checkpoint file:  "CCCCCC1CCCqCrC1.chk"
 -------------------
 Title Card Required
 -------------------
 Charge =  0 Multiplicity = 1

                         Standard orientation:
 ---------------------------------------------------------------------
 Center     Atomic      Atomic             Coordinates (Angstroms)
 Number     Number       Type             X           Y           Z
 ---------------------------------------------------------------------
      1          6           0       -4.668535    0.940602    0.878763
      2          6           0       -3.772949    0.516640   -0.288390
      3          6           0       -2.490480   -0.193306    0.159932
      4          6           0       -1.593718   -0.617519   -1.009786
      5          6           0       -0.335484   -1.402626   -0.604227
      6          6           0        0.709186   -0.611923    0.193176
      7          6           0        1.900212   -1.470672    0.672689
      8          6           0        3.017467   -0.448695    0.907695
      9          6           0        2.897621    0.496923   -0.303726
     10          6           0        3.565124    1.858741   -0.117614
     11          6           0        1.368461    0.567769   -0.583781
     12          1           0       -5.575518    1.442492    0.527020
     13          1           0       -4.144933    1.631449    1.549202
     14          1           0       -4.977558    0.074895    1.475378
     15          1           0       -3.507478    1.399015   -0.885962
     16          1           0       -4.335566   -0.144383   -0.961176
     17          1           0       -2.756164   -1.079988    0.753304
     18          1           0       -1.937036    0.468534    0.838998
     19          1           0       -1.303378    0.272150   -1.584852
     20          1           0       -2.184689   -1.237655   -1.696863
     21          1           0        0.146700   -1.792677   -1.511474
     22          1           0       -0.639461   -2.283158   -0.020646
     23          1           0        0.225823   -0.202505    1.089004
     24          1           0        2.198437   -2.170948   -0.119847
     25          1           0        1.657985   -2.069110    1.556578
     26          1           0        4.011830   -0.897418    0.998601
     27          1           0        2.826363    0.108258    1.835512
     28          1           0        3.375890   -0.003752   -1.156330
     29          1           0        3.121098    2.398645    0.727388
     30          1           0        3.451081    2.486253   -1.008303
     31          1           0        4.637817    1.755320    0.080032
     32          1           0        1.166745    0.498914   -1.658500
     33          1           0        0.960584    1.530073   -0.255449
 ---------------------------------------------------------------------

 SCF Done:  E(RB3LYP) =  -432.475473835     A.U. after    1 cycles

 The electronic state is 1-A.
 Alpha  occ. eigenvalues --  -10.17731 -10.17453 -10.17416 -10.17148 -10.17125
 Alpha  occ. eigenvalues --  -10.17069 -10.16894 -10.16868 -10.16858 -10.16753
 Alpha  occ. eigenvalues --  -10.16735  -0.83422  -0.79526  -0.75952  -0.72806
 Alpha  occ. eigenvalues --   -0.69922  -0.66776  -0.63767  -0.58962  -0.57227
 Alpha  occ. eigenvalues --   -0.55682  -0.53104  -0.47656  -0.46424  -0.45587
 Alpha  occ. eigenvalues --   -0.42727  -0.41908  -0.41152  -0.40888  -0.39815
 Alpha  occ. eigenvalues --   -0.38507  -0.38234  -0.36460  -0.35979  -0.34302
 Alpha  occ. eigenvalues --   -0.32922  -0.32369  -0.32040  -0.31782  -0.31220
 Alpha  occ. eigenvalues --   -0.30703  -0.29931  -0.29717  -0.29369
 Alpha virt. eigenvalues --    0.08221   0.09122   0.10119   0.10800   0.12066
 Alpha virt. eigenvalues --    0.12416   0.13861   0.14974   0.15741   0.15989
 Alpha virt. eigenvalues --    0.16798   0.16870   0.17127   0.17761   0.18335

 Mulliken charges:
               1
     1  C   -0.380273
     2  C   -0.160288
     3  C   -0.147938
     4  C   -0.192854
     5  C   -0.223587
     6  C    0.062489
     7  C   -0.226471
     8  C   -0.211071
     9  C    0.062267
    10  C   -0.407258
    11  C   -0.224970
    12  H    0.109460
    13  H    0.112031
    14  H    0.112247
    15  H    0.092970
    16  H    0.092498
    17  H    0.088530
    18  H    0.093884
    19  H    0.094779
    20  H    0.086972
    21  H    0.084098
    22  H    0.086220
    23  H    0.067536
    24  H    0.089104
    25  H    0.087639
    26  H    0.087442
    27  H    0.088363
    28  H    0.066177
    29  H    0.109191
    30  H    0.109854
    31  H    0.108664
    32  H    0.092237
    33  H    0.090059
 Sum of Mulliken charges =  -0.00000

 Dipole moment (field-independent basis, Debye):
    X=              0.0068    Y=             -0.0433    Z=             -0.0526  Tot=              0.0685
 Quadrupole moment (field-independent basis, Debye-Ang):
   XX=            -73.6290   YY=            -73.2079   ZZ=            -72.7811
   XY=             -0.0631   XZ=             -0.1789   YZ=              0.1223

  Exact polarizability: 139.416   0.640 111.966   0.900  -0.929 104.917
 Approx polarizability: 163.626   0.002 161.169  -0.079   0.137 160.656

                      1                      2                      3
                      A                      A                      A
 Frequencies --     18.0293                53.3328                61.1407
 Red. masses --      2.8258                 2.2432                 1.6629
 Frc consts  --      0.0005                 0.0038                 0.0037
 IR Inten    --      0.0008                 0.0005                 0.0064

                      4                      5                      6
                      A                      A                      A
 Frequencies --     74.5372               117.6998               175.1113
 Red. masses --      2.9914                 2.6437                 2.1256
 Frc consts  --      0.0098                 0.0216                 0.0384
 IR Inten    --      0.0036                 0.0118                 0.0200

                      7                      8                      9
                      A                      A                      A
 Frequencies --    178.3700               222.9582               244.9806
 Red. masses --      2.3220                 2.3155                 1.1151
 Frc consts  --      0.0435                 0.0678                 0.0394
 IR Inten    --      0.0103                 0.0336                 0.0069

                     10                     11                     12
                      A                      A                      A
 Frequencies --    247.6759               283.9120               324.4325
 Red. masses --      1.1021                 2.3681                 2.4953
 Frc consts  --      0.0398                 0.1125                 0.1547
 IR Inten    --      0.0016                 0.0388                 0.0857

                     13                     14                     15
                      A                      A                      A
 Frequencies --    397.4575               413.5177               420.4155
 Red. masses --      2.2591                 2.3173                 1.6463
 Frc consts  --      0.2103                 0.2335                 0.1714
 IR Inten    --      0.0602                 0.0696                 0.1522

                     16                     17                     18
                      A                      A                      A
 Frequencies --    489.8020               548.6702               565.1422
 Red. masses --      3.0406                 2.6761                 2.4256
 Frc consts  --      0.4298                 0.4746                 0.4564
 IR Inten    --      0.0307                 0.3572                 0.2079

                     19                     20                     21
                      A                      A                      A
 Frequencies --    731.6890               766.6032               804.3488
 Red. masses --      1.1171                 1.3667                 1.8323
 Frc consts  --      0.3524                 0.4732                 0.6984
 IR Inten    --      3.5890                 0.5446                 0.4398

                     22                     23                     24
                      A                      A                      A
 Frequencies --    826.6895               842.7896               869.7254
 Red. masses --      1.8549                 1.6924                 2.1789
 Frc consts  --      0.7469                 0.7082                 0.9711
 IR Inten    --      0.0131                 1.3437                 0.3777

                     25                     26                     27
                      A                      A                      A
 Frequencies --    909.2770               916.4666               923.2897
 Red. masses --      1.7892                 1.5672                 1.4623
 Frc consts  --      0.8716                 0.7756                 0.7344
 IR Inten    --      1.7871                 0.7112                 1.2515

                     28                     29                     30
                      A                      A                      A
 Frequencies --    936.8001               965.0741               977.6113
 Red. masses --      2.0108                 1.5679                 1.5853
 Frc consts  --      1.0397                 0.8604                 0.8927
 IR Inten    --      0.7532                 0.9535                 0.9516

                     31                     32                     33
                      A                      A                      A
 Frequencies --    997.0423              1027.1653              1041.1168
 Red. masses --      1.6781                 1.7166                 1.9528
 Frc consts  --      0.9829                 1.0671                 1.2471
 IR Inten    --      0.9773                 0.1481                 0.1874

                     34                     35                     36
                      A                      A                      A
 Frequencies --   1050.7943              1067.6882              1090.7732
 Red. masses --      1.6216                 2.1608                 2.0728
 Frc consts  --      1.0550                 1.4513                 1.4530
 IR Inten    --      0.4728                 0.1764                 1.1751

                     37                     38                     39
                      A                      A                      A
 Frequencies --   1101.4887              1111.9519              1161.6704
 Red. masses --      2.1926                 1.6108                 2.1044
 Frc consts  --      1.5673                 1.1734                 1.6732
 IR Inten    --      0.3793                 0.3873                 1.3811

                     40                     41                     42
                      A                      A                      A
 Frequencies --   1164.4907              1182.6647              1221.4728
 Red. masses --      2.1590                 1.7487                 1.5551
 Frc consts  --      1.7250                 1.4411                 1.3671
 IR Inten    --      0.9097                 1.2872                 0.3069

                     43                     44                     45
                      A                      A                      A
 Frequencies --   1235.2196              1251.9907              1273.9844
 Red. masses --      1.5389                 1.3892                 1.3841
 Frc consts  --      1.3834                 1.2830                 1.3236
 IR Inten    --      0.1010                 0.8517                 0.4997

                     46                     47                     48
                      A                      A                      A
 Frequencies --   1292.3007              1300.3277              1306.3021
 Red. masses --      1.3407                 1.3066                 1.2393
 Frc consts  --      1.3192                 1.3017                 1.2459
 IR Inten    --      1.0062                 5.7505                 0.1252

                     49                     50                     51
                      A                      A                      A
 Frequencies --   1321.1427              1328.1855              1335.2852
 Red. masses --      1.2360                 1.1823                 1.1314
 Frc consts  --      1.2711                 1.2289                 1.1885
 IR Inten    --      1.5274                 1.1738                 0.6518

                     52                     53                     54
                      A                      A                      A
 Frequencies --   1346.1114              1349.8238              1365.5727
 Red. masses --      1.2510                 1.2535                 1.3816
 Frc consts  --      1.3356                 1.3456                 1.5180
 IR Inten    --      7.2114                 2.1837                 1.0633

                     55                     56                     57
                      A                      A                      A
 Frequencies --   1378.4581              1381.8387              1395.8763
 Red. masses --      1.3949                 1.5355                 1.5261
 Frc consts  --      1.5616                 1.7274                 1.7520
 IR Inten    --      1.7342                 3.5553                 1.9070

                     58                     59                     60
                      A                      A                      A
 Frequencies --   1401.3409              1410.9471              1413.2198
 Red. masses --      1.5395                 1.2483                 1.2505
 Frc consts  --      1.7812                 1.4641                 1.4714
 IR Inten    --      7.2819                 1.1640                 0.9567

                     61                     62                     63
                      A                      A                      A
 Frequencies --   1479.3714              1484.2574              1487.0163
 Red. masses --      1.0790                 1.0742                 1.0777
 Frc consts  --      1.3913                 1.3943                 1.4040
 IR Inten    --      2.4705                 0.0668                 1.1854

                     64                     65                     66
                      A                      A                      A
 Frequencies --   1490.2399              1492.7433              1497.2048
 Red. masses --      1.0832                 1.0887                 1.0543
 Frc consts  --      1.4174                 1.4293                 1.3925
 IR Inten    --      1.6357                 1.2928                 1.1930

                     67                     68                     69
                      A                      A                      A
 Frequencies --   1499.4240              1499.8434              1499.9464
 Red. masses --      1.0543                 1.0416                 1.0699
 Frc consts  --      1.3966                 1.3805                 1.4182
 IR Inten    --      5.5555                 4.6215                 0.4783

                     70                     71                     72
                      A                      A                      A
 Frequencies --   1506.9786              1512.7713              2996.4017
 Red. masses --      1.0962                 1.0891                 1.0602
 Frc consts  --      1.4667                 1.4685                 5.6082
 IR Inten    --      0.7049                 3.0629                10.7452

                     73                     74                     75
                      A                      A                      A
 Frequencies --   3001.0048              3002.6294              3007.3403
 Red. masses --      1.0803                 1.0615                 1.0661
 Frc consts  --      5.7323                 5.6389                 5.6809
 IR Inten    --     14.2263                 6.9816                 2.5201

                     76                     77                     78
                      A                      A                      A
 Frequencies --   3009.6329              3014.2791              3015.8091
 Red. masses --      1.0686                 1.0723                 1.0623
 Frc consts  --      5.7027                 5.7402                 5.6924
 IR Inten    --     16.3661                 2.3854                66.2130

                     79                     80                     81
                      A                      A                      A
 Frequencies --   3019.5204              3021.6245              3026.8056
 Red. masses --      1.0620                 1.0444                 1.0681
 Frc consts  --      5.7052                 5.6183                 5.7655
 IR Inten    --     14.6936                61.1041                19.9090

                     82                     83                     84
                      A                      A                      A
 Frequencies --   3028.0138              3033.7771              3037.4847
 Red. masses --      1.0607                 1.0620                 1.0966
 Frc consts  --      5.7300                 5.7591                 5.9612
 IR Inten    --     13.5670                38.2422                32.5785

                     85                     86                     87
                      A                      A                      A
 Frequencies --   3043.1765              3061.3496              3070.1694
 Red. masses --      1.1008                 1.1039                 1.1030
 Frc consts  --      6.0063                 6.0956                 6.1257
 IR Inten    --     21.2674                79.4924                25.5064

                     88                     89                     90
                      A                      A                      A
 Frequencies --   3074.8448              3079.5325              3088.7367
 Red. masses --      1.0944                 1.1009                 1.1006
 Frc consts  --      6.0963                 6.1511                 6.1865
 IR Inten    --     36.4300                40.2239                82.8741

                     91                     92                     93
                      A                      A                      A
 Frequencies --   3091.2143              3093.5913              3098.8929
 Red. masses --      1.1012                 1.1020                 1.1009
 Frc consts  --      6.1999                 6.2139                 6.2290
 IR Inten    --     31.7961                60.5899                40.4143

 - Thermochemistry -
 -------------------
 Temperature   298.150 Kelvin.  Pressure   1.00000 Atm.
 Atom     1 has atomic number  6 and mass  12.00000

 Molecular mass:   154.17215 amu.
 Principal axes and moments of inertia in atomic units:
                           1         2         3
     Eigenvalues --   883.041744511.192724839.02227
           X            1.00000   0.00081  -0.00245
           Y           -0.00079   0.99998   0.00642
           Z            0.00246  -0.00642   0.99998
 This molecule is an asymmetric top.
 Rotational symmetry number  1.
 Warning -- assumption of classical behavior for rotation
           may cause significant error
 Rotational temperatures (Kelvin)      0.09809     0.01920     0.01790
 Rotational constants (GHZ):           2.04378     0.40006     0.37296
 Zero-point vibrational energy     813337.6 (Joules/Mol)
                                  194.39235 (Kcal/Mol)
 Warning -- explicit consideration of  18 degrees of freedom as
           vibrations may cause significant error
 Vibrational temperatures:     25.94    76.73    87.97   107.24   169.34
          (Kelvin)            251.95   256.63   320.79   352.47   356.35
                              408.49   466.79   571.85   594.96   604.88
                              704.72   789.41   813.11  1052.74  1102.97
                             1157.28  1189.42  1212.59  1251.34  1308.25
                             1318.59  1328.41  1347.85  1388.53  1406.56
                             1434.52  1477.86  1497.93  1511.86  1536.17
                             1569.38  1584.80  1599.85  1671.38  1675.44
                             1701.59  1757.43  1777.21  1801.34  1832.98
                             1859.33  1870.88  1879.48  1900.83  1910.96
                             1921.18  1936.75  1942.10  1964.75  1983.29
                             1988.16  2008.35  2016.22  2030.04  2033.31
                             2128.49  2135.52  2139.48  2144.12  2147.72
                             2154.14  2157.34  2157.94  2158.09  2168.21
                             2176.54  4311.15  4317.78  4320.11  4326.89
                             4330.19  4336.88  4339.08  4344.42  4347.44
                             4354.90  4356.64  4364.93  4370.26  4378.45
                             4404.60  4417.29  4424.02  4430.76  4444.00
                             4447.57  4450.99  4458.62

 Zero-point correction=                           0.309784 (Hartree/Particle)
 Thermal correction to Energy=                    0.322968
 Thermal correction to Enthalpy=                  0.323912
 Thermal correction to Gibbs Free Energy=         0.268684
 Sum of electronic and zero-point Energies=           -432.165690
 Sum of electronic and thermal Energies=              -432.152506
 Sum of electronic and thermal Enthalpies=            -432.151562
 Sum of electronic and thermal Free Energies=         -432.206790

                     E (Thermal)             CV                S
                      KCal/Mol        Cal/Mol-Kelvin    Cal/Mol-Kelvin
 Total                  202.665             49.260            116.237
 Electronic               0.000              0.000              0.000
 Translational            0.889              2.981             41.008
 Rotational               0.889              2.981             31.334
 Vibrational            200.888             43.299             43.895
 Vibration     1          0.593              1.986              6.840
 Vibration     2          0.596              1.976              4.690
 Vibration     3          0.597              1.973              4.420
 Vibration     4          0.599              1.966              4.030
 Vibration     5          0.608              1.935              3.138
 Vibration     6          0.627              1.873              2.380
 Vibration     7          0.629              1.869              2.345
 Vibration     8          0.649              1.806              1.935
 Vibration     9          0.660              1.771              1.766
 Vibration    10          0.661              1.767              1.747
 Vibration    11          0.682              1.703              1.510
 Vibration    12          0.709              1.627              1.288
 Vibration    13          0.764              1.476              0.972
 Vibration    14          0.777              1.441              0.914
 Vibration    15          0.783              1.426              0.891
 Vibration    16          0.846              1.273              0.684
 Vibration    17          0.904              1.143              0.547
 Vibration    18          0.921              1.107              0.514

                           ! Non-Optimized Parameters !
 Normal termination of Gaussian 16 at Sun May 28 15:13:32 2023.
