 Gaussian 16, Revision A.03,
 Gaussian 16:  ES64L-G16RevA.03 25-Dec-2016

 -----------------------------
 # opt freq b3lyp/6-31g(2df,p)
 -----------------------------

 -------------------
 Title Card Required
 -------------------
 Symbolic Z-matrix:
 Charge =  0 Multiplicity = 1

 SCF Done:  E(RB3LYP) =  -789.817596792     A.U. after   12 cycles
 SCF Done:  E(RB3LYP) =  -789.844335020     A.U. after   11 cycles
 SCF Done:  E(RB3LYP) =  -789.849957711     A.U. after   11 cycles
 SCF Done:  E(RB3LYP) =  -789.856393963     A.U. after   10 cycles
 SCF Done:  E(RB3LYP) =  -789.858041633     A.U. after   10 cycles
 SCF Done:  E(RB3LYP) =  -789.862919959     A.U. after   10 cycles
 SCF Done:  E(RB3LYP) =  -789.868527424     A.U. after   11 cycles
 SCF Done:  E(RB3LYP) =  -789.872746531     A.U. after   11 cycles
 SCF Done:  E(RB3LYP) =  -789.875042805     A.U. after   11 cycles
 SCF Done:  E(RB3LYP) =  -789.876515364     A.U. after   11 cycles
 SCF Done:  E(RB3LYP) =  -789.887561387     A.U. after   10 cycles
 SCF Done:  E(RB3LYP) =  -789.887589644     A.U. after    9 cycles
 SCF Done:  E(RB3LYP) =  -789.887601385     A.U. after    9 cycles
 SCF Done:  E(RB3LYP) =  -789.887603277     A.U. after    7 cycles
 SCF Done:  E(RB3LYP) =  -789.887605038     A.U. after    8 cycles
 SCF Done:  E(RB3LYP) =  -789.887605605     A.U. after    8 cycles
 SCF Done:  E(RB3LYP) =  -789.887605813     A.U. after    7 cycles
 SCF Done:  E(RB3LYP) =  -789.887605893     A.U. after    7 cycles
 SCF Done:  E(RB3LYP) =  -789.887605910     A.U. after    6 cycles
 Optimization completed.
    -- Stationary point found.
 Normal termination of Gaussian 16 at Tue May 23 07:00:19 2023.

 ----------------------------------------------------------------------
 #N Geom=AllCheck Guess=TCheck SCRF=Check GenChk RB3LYP/6-31G(2df,p) Fr
 eq
 ----------------------------------------------------------------------

 Structure from the checkpoint file:  "CCCCqOCrCqNCOCCCOrOC.chk"
 -------------------
 Title Card Required
 -------------------
 Charge =  0 Multiplicity = 1

                         Standard orientation:
 ---------------------------------------------------------------------
 Center     Atomic      Atomic             Coordinates (Angstroms)
 Number     Number       Type             X           Y           Z
 ---------------------------------------------------------------------
      1          6           0        5.044774    2.638823    0.329148
      2          6           0        4.524976    1.270722   -0.119846
      3          6           0        3.039675    1.065775    0.193267
      4          6           0        2.526341   -0.319627   -0.206829
      5          8           0        3.222047   -1.275669    0.580233
      6          6           0        3.600984   -2.463591   -0.084805
      7          6           0        1.002740   -0.465828    0.014056
      8          7           0        0.278153    0.535623   -0.744145
      9          6           0       -0.885259    1.167787   -0.233263
     10          8           0       -2.055106    0.351124   -0.334897
     11          6           0       -3.224746    1.010594    0.105373
     12          6           0       -4.415568    0.078400   -0.076505
     13          6           0       -5.742851    0.729928    0.315491
     14          8           0       -6.841702   -0.160065    0.212182
     15          8           0        0.674478   -1.795187   -0.344785
     16          6           0       -0.430717   -2.359102    0.340147
     17          1           0        6.106657    2.760310    0.092457
     18          1           0        4.928803    2.769996    1.410944
     19          1           0        4.499364    3.453522   -0.160900
     20          1           0        5.100077    0.475452    0.365955
     21          1           0        4.686602    1.155274   -1.200453
     22          1           0        2.434986    1.823488   -0.313544
     23          1           0        2.874156    1.192065    1.272332
     24          1           0        2.728145   -0.493022   -1.277090
     25          1           0        4.160618   -3.064540    0.637738
     26          1           0        4.257657   -2.251212   -0.943021
     27          1           0        2.732899   -3.030588   -0.435830
     28          1           0        0.793312   -0.295406    1.080934
     29          1           0        0.195088    0.277727   -1.719615
     30          1           0       -1.069685    2.098796   -0.793056
     31          1           0       -0.711086    1.435786    0.820461
     32          1           0       -3.374948    1.941881   -0.469161
     33          1           0       -3.126794    1.304745    1.165058
     34          1           0       -4.270158   -0.826263    0.523399
     35          1           0       -4.453628   -0.235974   -1.127906
     36          1           0       -5.908085    1.640739   -0.283587
     37          1           0       -5.715711    1.040412    1.366125
     38          1           0       -6.914085   -0.431453   -0.708469
     39          1           0       -0.557374   -3.373967   -0.045498
     40          1           0       -1.347231   -1.784998    0.170589
     41          1           0       -0.236477   -2.417040    1.421881
 ---------------------------------------------------------------------

 SCF Done:  E(RB3LYP) =  -789.887605910     A.U. after    1 cycles

 The electronic state is 1-A.
 Alpha  occ. eigenvalues --  -19.14232 -19.13602 -19.13335 -19.12628 -14.32248
 Alpha  occ. eigenvalues --  -10.25816 -10.25208 -10.23450 -10.23098 -10.22108
 Alpha  occ. eigenvalues --  -10.21106 -10.20795 -10.18529 -10.16902 -10.16654
 Alpha  occ. eigenvalues --  -10.16573  -1.04159  -1.03261  -1.01732  -1.01129
 Alpha  occ. eigenvalues --   -0.90208  -0.78979  -0.77898  -0.74384  -0.70056
 Alpha  occ. eigenvalues --   -0.67697  -0.66077  -0.64527  -0.62353  -0.60337
 Alpha  occ. eigenvalues --   -0.59073  -0.56894  -0.51847  -0.50609  -0.50338
 Alpha  occ. eigenvalues --   -0.49654  -0.47870  -0.47230  -0.46787  -0.45311
 Alpha  occ. eigenvalues --   -0.44471  -0.43615  -0.43431  -0.41697  -0.41608
 Alpha  occ. eigenvalues --   -0.41030  -0.40369  -0.39294  -0.38226  -0.37560
 Alpha  occ. eigenvalues --   -0.36672  -0.35747  -0.35407  -0.33118  -0.32837
 Alpha  occ. eigenvalues --   -0.32487  -0.31947  -0.31898  -0.30910  -0.30016
 Alpha  occ. eigenvalues --   -0.27520  -0.26927  -0.26032  -0.24258  -0.23040
 Alpha virt. eigenvalues --    0.07403   0.08255   0.09693   0.09923   0.10417
 Alpha virt. eigenvalues --    0.11176   0.11785   0.12099   0.12621   0.13287
 Alpha virt. eigenvalues --    0.13864   0.14916   0.14967   0.15446   0.16300

 Mulliken charges:
               1
     1  C   -0.381411
     2  C   -0.168308
     3  C   -0.171191
     4  C    0.080970
     5  O   -0.248535
     6  C   -0.238116
     7  C    0.102043
     8  N   -0.280480
     9  C   -0.043590
    10  O   -0.245401
    11  C   -0.049350
    12  C   -0.217436
    13  C   -0.055496
    14  O   -0.417173
    15  O   -0.240222
    16  C   -0.266261
    17  H    0.108221
    18  H    0.112539
    19  H    0.108847
    20  H    0.109774
    21  H    0.085299
    22  H    0.101477
    23  H    0.091267
    24  H    0.062492
    25  H    0.115087
    26  H    0.096309
    27  H    0.124068
    28  H    0.074765
    29  H    0.226193
    30  H    0.092803
    31  H    0.097758
    32  H    0.085875
    33  H    0.089014
    34  H    0.117869
    35  H    0.097772
    36  H    0.086864
    37  H    0.113166
    38  H    0.281280
    39  H    0.118004
    40  H    0.139635
    41  H    0.103577
 Sum of Mulliken charges =  -0.00000

 Dipole moment (field-independent basis, Debye):
    X=             -0.7864    Y=              1.0773    Z=             -1.4527  Tot=              1.9721
 Quadrupole moment (field-independent basis, Debye-Ang):
   XX=           -110.7259   YY=            -97.9292   ZZ=            -97.1026
   XY=             -3.5352   XZ=              5.2628   YZ=              0.6220

  Exact polarizability: 180.305   1.927 148.078  -0.638   0.041 119.774
 Approx polarizability: 200.476  -1.384 198.910  -1.267   0.953 193.442

                      1                      2                      3
                      A                      A                      A
 Frequencies --     12.8537                25.1236                34.9261
 Red. masses --      4.2800                 4.6373                 2.9443
 Frc consts  --      0.0004                 0.0017                 0.0021
 IR Inten    --      0.4794                 0.0352                 0.2869

                      4                      5                      6
                      A                      A                      A
 Frequencies --     52.2891                67.0205                75.7573
 Red. masses --      1.9182                 2.8870                 3.8313
 Frc consts  --      0.0031                 0.0076                 0.0130
 IR Inten    --      2.2749                 1.4245                 0.2455

                      7                      8                      9
                      A                      A                      A
 Frequencies --     79.7401                96.3068               101.9681
 Red. masses --      1.8726                 2.5762                 2.4589
 Frc consts  --      0.0070                 0.0141                 0.0151
 IR Inten    --      0.0453                 0.5841                 1.5863

                     10                     11                     12
                      A                      A                      A
 Frequencies --    110.9945               131.8582               141.3342
 Red. masses --      2.5615                 1.9275                 2.2011
 Frc consts  --      0.0186                 0.0197                 0.0259
 IR Inten    --      0.5160                 0.9986                 2.0111

                     13                     14                     15
                      A                      A                      A
 Frequencies --    157.9094               171.3401               190.2269
 Red. masses --      2.0076                 2.6538                 1.3623
 Frc consts  --      0.0295                 0.0459                 0.0290
 IR Inten    --      6.3088                 1.0750                 4.7722

                     16                     17                     18
                      A                      A                      A
 Frequencies --    199.5066               238.3800               247.5953
 Red. masses --      2.5151                 2.5467                 1.1510
 Frc consts  --      0.0590                 0.0853                 0.0416
 IR Inten    --      3.8125                 1.2991                 0.0947

                     19                     20                     21
                      A                      A                      A
 Frequencies --    271.8178               276.9730               308.1503
 Red. masses --      3.0222                 3.4056                 2.2947
 Frc consts  --      0.1316                 0.1539                 0.1284
 IR Inten    --     11.9475                 3.0946                22.4099

                     22                     23                     24
                      A                      A                      A
 Frequencies --    314.2413               329.9408               350.3503
 Red. masses --      1.7229                 2.9316                 3.0818
 Frc consts  --      0.1002                 0.1880                 0.2229
 IR Inten    --     84.2109                 5.0521                 6.9904

                     25                     26                     27
                      A                      A                      A
 Frequencies --    376.7703               403.1060               466.1643
 Red. masses --      3.8660                 2.3970                 2.7000
 Frc consts  --      0.3233                 0.2295                 0.3457
 IR Inten    --      4.5795                39.4762                12.9916

                     28                     29                     30
                      A                      A                      A
 Frequencies --    486.7562               542.1420               569.1691
 Red. masses --      3.3914                 2.4028                 3.7758
 Frc consts  --      0.4734                 0.4161                 0.7207
 IR Inten    --     23.3260                 6.5470                32.6492

                     31                     32                     33
                      A                      A                      A
 Frequencies --    611.1755               635.7599               746.6442
 Red. masses --      2.4098                 3.7878                 1.1494
 Frc consts  --      0.5304                 0.9020                 0.3775
 IR Inten    --      7.5829                78.1038                 1.1724

                     34                     35                     36
                      A                      A                      A
 Frequencies --    771.8914               840.6520               880.4097
 Red. masses --      1.0779                 1.5386                 1.1624
 Frc consts  --      0.3784                 0.6406                 0.5309
 IR Inten    --      1.2696                 5.7452                 2.4620

                     37                     38                     39
                      A                      A                      A
 Frequencies --    895.9877               948.7663               960.1149
 Red. masses --      2.1117                 1.9085                 2.6165
 Frc consts  --      0.9988                 1.0122                 1.4211
 IR Inten    --      8.7042                 6.4697                24.0989

                     40                     41                     42
                      A                      A                      A
 Frequencies --    975.6490               993.0496              1025.9665
 Red. masses --      5.7172                 2.4554                 3.4782
 Frc consts  --      3.2064                 1.4266                 2.1571
 IR Inten    --     43.1822                86.4518               101.6621

                     43                     44                     45
                      A                      A                      A
 Frequencies --   1035.8655              1064.0373              1074.4605
 Red. masses --      2.7190                 2.4845                 3.2197
 Frc consts  --      1.7190                 1.6573                 2.1900
 IR Inten    --     16.8704                 9.0361               192.9346

                     46                     47                     48
                      A                      A                      A
 Frequencies --   1077.3767              1086.6171              1101.3827
 Red. masses --      2.7338                 3.2448                 3.4225
 Frc consts  --      1.8696                 2.2573                 2.4461
 IR Inten    --     16.1354                 6.4236               105.0421

                     49                     50                     51
                      A                      A                      A
 Frequencies --   1118.8354              1127.9787              1134.3917
 Red. masses --      4.8048                 3.0867                 2.0916
 Frc consts  --      3.5437                 2.3139                 1.5859
 IR Inten    --    196.9944                51.9650                 2.2076

                     52                     53                     54
                      A                      A                      A
 Frequencies --   1143.1150              1158.3852              1175.1210
 Red. masses --      1.8437                 2.9806                 2.0051
 Frc consts  --      1.4194                 2.3564                 1.6314
 IR Inten    --     12.4980               106.7513                80.2796

                     55                     56                     57
                      A                      A                      A
 Frequencies --   1180.7971              1189.7673              1209.9704
 Red. masses --      1.4001                 1.3423                 1.9803
 Frc consts  --      1.1502                 1.1195                 1.7082
 IR Inten    --     18.1335                18.4855                36.2412

                     58                     59                     60
                      A                      A                      A
 Frequencies --   1214.0496              1220.6928              1230.0006
 Red. masses --      1.3600                 1.7946                 1.6618
 Frc consts  --      1.1810                 1.5756                 1.4813
 IR Inten    --      8.2259                67.9335                18.7847

                     61                     62                     63
                      A                      A                      A
 Frequencies --   1262.9847              1275.6225              1282.2982
 Red. masses --      1.4227                 1.2962                 1.3409
 Frc consts  --      1.3371                 1.2427                 1.2991
 IR Inten    --     14.9578                 6.1603                 3.3885

                     64                     65                     66
                      A                      A                      A
 Frequencies --   1296.9676              1305.5127              1311.7885
 Red. masses --      1.2378                 1.2030                 1.0847
 Frc consts  --      1.2267                 1.2080                 1.0997
 IR Inten    --      7.6955                 3.2498                 4.3978

                     67                     68                     69
                      A                      A                      A
 Frequencies --   1324.0466              1333.1992              1360.2056
 Red. masses --      1.1121                 1.3259                 1.3461
 Frc consts  --      1.1487                 1.3885                 1.4674
 IR Inten    --      5.5948                 5.7287                15.5092

                     70                     71                     72
                      A                      A                      A
 Frequencies --   1370.3498              1390.8435              1393.4069
 Red. masses --      1.1893                 1.2436                 1.3229
 Frc consts  --      1.3158                 1.4174                 1.5133
 IR Inten    --      7.5954                33.6233                 8.8131

                     73                     74                     75
                      A                      A                      A
 Frequencies --   1395.0587              1408.2066              1412.0837
 Red. masses --      1.5853                 1.2686                 1.2394
 Frc consts  --      1.8178                 1.4822                 1.4561
 IR Inten    --      4.1330                26.7628                 0.4753

                     76                     77                     78
                      A                      A                      A
 Frequencies --   1427.1786              1456.8553              1473.5719
 Red. masses --      1.2928                 1.3564                 1.1444
 Frc consts  --      1.5515                 1.6962                 1.4642
 IR Inten    --     50.5470                 2.1776                 1.4563

                     79                     80                     81
                      A                      A                      A
 Frequencies --   1479.4797              1480.7579              1483.0214
 Red. masses --      1.1312                 1.0924                 1.0657
 Frc consts  --      1.4588                 1.4113                 1.3809
 IR Inten    --      1.8737                 0.3077                 1.3358

                     82                     83                     84
                      A                      A                      A
 Frequencies --   1491.1101              1492.8231              1495.4820
 Red. masses --      1.0604                 1.0850                 1.0531
 Frc consts  --      1.3891                 1.4246                 1.3876
 IR Inten    --      2.0046                 0.6159                 0.7866

                     85                     86                     87
                      A                      A                      A
 Frequencies --   1499.6546              1505.7055              1511.6449
 Red. masses --      1.0406                 1.1279                 1.0852
 Frc consts  --      1.3788                 1.5066                 1.4610
 IR Inten    --      4.9193                 4.8806                 0.9605

                     88                     89                     90
                      A                      A                      A
 Frequencies --   1512.0167              1516.4198              1519.1315
 Red. masses --      1.1548                 1.1280                 1.0522
 Frc consts  --      1.5555                 1.5283                 1.4306
 IR Inten    --     37.8411                23.0676                 3.1305

                     91                     92                     93
                      A                      A                      A
 Frequencies --   1522.3762              1533.9231              2940.8914
 Red. masses --      1.0981                 1.1134                 1.0544
 Frc consts  --      1.4995                 1.5435                 5.3727
 IR Inten    --     14.2011                 4.8475                27.7385

                     94                     95                     96
                      A                      A                      A
 Frequencies --   2964.8413              2965.6654              2968.3438
 Red. masses --      1.0912                 1.0792                 1.0725
 Frc consts  --      5.6514                 5.5922                 5.5679
 IR Inten    --     15.5462                14.8657                15.3665

                     97                     98                     99
                      A                      A                      A
 Frequencies --   2969.6541              2982.7910              2989.3188
 Red. masses --      1.0668                 1.0496                 1.0483
 Frc consts  --      5.5432                 5.5022                 5.5194
 IR Inten    --    155.6804                68.0571                39.9939

                    100                    101                    102
                      A                      A                      A
 Frequencies --   2998.6467              3007.3561              3010.9919
 Red. masses --      1.0866                 1.0941                 1.0715
 Frc consts  --      5.7569                 5.8302                 5.7235
 IR Inten    --     12.9533                54.1901                 7.2421

                    103                    104                    105
                      A                      A                      A
 Frequencies --   3022.3140              3025.5628              3026.7814
 Red. masses --      1.0612                 1.0640                 1.0414
 Frc consts  --      5.7110                 5.7388                 5.6213
 IR Inten    --     49.1647                17.9227                59.5784

                    106                    107                    108
                      A                      A                      A
 Frequencies --   3060.5469              3064.6219              3069.8477
 Red. masses --      1.0877                 1.0917                 1.0833
 Frc consts  --      6.0026                 6.0411                 6.0149
 IR Inten    --     23.2825                 0.5715                44.8928

                    109                    110                    111
                      A                      A                      A
 Frequencies --   3078.9205              3086.8595              3087.5513
 Red. masses --      1.0863                 1.1018                 1.0975
 Frc consts  --      6.0676                 6.1857                 6.1644
 IR Inten    --     31.5155                46.1196                 2.4059

                    112                    113                    114
                      A                      A                      A
 Frequencies --   3097.5758              3100.2359              3111.1222
 Red. masses --      1.1011                 1.0990                 1.1043
 Frc consts  --      6.2248                 6.2236                 6.2977
 IR Inten    --     41.6137                66.3274                27.3533

                    115                    116                    117
                      A                      A                      A
 Frequencies --   3120.0221              3568.1568              3814.8065
 Red. masses --      1.1046                 1.0734                 1.0661
 Frc consts  --      6.3354                 8.0520                 9.1412
 IR Inten    --     12.6340                 6.8354                16.6411

 - Thermochemistry -
 -------------------
 Temperature   298.150 Kelvin.  Pressure   1.00000 Atm.
 Atom     1 has atomic number  6 and mass  12.00000

 Molecular mass:   235.17836 amu.
 Principal axes and moments of inertia in atomic units:
                           1         2         3
     Eigenvalues --  1854.95654********************
           X            0.99999   0.00489  -0.00009
           Y           -0.00489   0.99997   0.00534
           Z            0.00011  -0.00534   0.99999
 This molecule is an asymmetric top.
 Rotational symmetry number  1.
 Warning -- assumption of classical behavior for rotation
           may cause significant error
 Rotational temperatures (Kelvin)      0.04669     0.00786     0.00690
 Rotational constants (GHZ):           0.97293     0.16385     0.14384
 Zero-point vibrational energy     958907.3 (Joules/Mol)
                                  229.18434 (Kcal/Mol)
 Warning -- explicit consideration of  31 degrees of freedom as
           vibrations may cause significant error
 Vibrational temperatures:     18.49    36.15    50.25    75.23    96.43
          (Kelvin)            109.00   114.73   138.56   146.71   159.70
                              189.71   203.35   227.20   246.52   273.69
                              287.05   342.98   356.23   391.09   398.50
                              443.36   452.12   474.71   504.08   542.09
                              579.98   670.71   700.33   780.02   818.91
                              879.35   914.72  1074.25  1110.58  1209.51
                             1266.71  1289.13  1365.06  1381.39  1403.74
                             1428.78  1476.14  1490.38  1530.91  1545.91
                             1550.10  1563.40  1584.64  1609.75  1622.91
                             1632.14  1644.69  1666.66  1690.74  1698.90
                             1711.81  1740.88  1746.75  1756.30  1769.70
                             1817.15  1835.34  1844.94  1866.05  1878.34
                             1887.37  1905.01  1918.18  1957.03  1971.63
                             2001.11  2004.80  2007.18  2026.10  2031.67
                             2053.39  2096.09  2120.14  2128.64  2130.48
                             2133.74  2145.37  2147.84  2151.67  2157.67
                             2166.37  2174.92  2175.45  2181.79  2185.69
                             2190.36  2206.97  4231.29  4265.75  4266.93
                             4270.78  4272.67  4291.57  4300.96  4314.38
                             4326.91  4332.15  4348.44  4353.11  4354.86
                             4403.44  4409.31  4416.83  4429.88  4441.30
                             4442.30  4456.72  4460.55  4476.21  4489.02
                             5133.78  5488.66

 Zero-point correction=                           0.365228 (Hartree/Particle)
 Thermal correction to Energy=                    0.386244
 Thermal correction to Enthalpy=                  0.387188
 Thermal correction to Gibbs Free Energy=         0.312268
 Sum of electronic and zero-point Energies=           -789.522377
 Sum of electronic and thermal Energies=              -789.501362
 Sum of electronic and thermal Enthalpies=            -789.500418
 Sum of electronic and thermal Free Energies=         -789.575338

                     E (Thermal)             CV                S
                      KCal/Mol        Cal/Mol-Kelvin    Cal/Mol-Kelvin
 Total                  242.372             73.047            157.682
 Electronic               0.000              0.000              0.000
 Translational            0.889              2.981             42.267
 Rotational               0.889              2.981             33.905
 Vibrational            240.594             67.085             81.510
 Vibration     1          0.593              1.987              7.512
 Vibration     2          0.593              1.985              6.181
 Vibration     3          0.594              1.983              5.528
 Vibration     4          0.596              1.977              4.729
 Vibration     5          0.598              1.970              4.239
 Vibration     6          0.599              1.965              3.998
 Vibration     7          0.600              1.963              3.897
 Vibration     8          0.603              1.952              3.528
 Vibration     9          0.604              1.948              3.416
 Vibration    10          0.607              1.940              3.251
 Vibration    11          0.612              1.921              2.919
 Vibration    12          0.615              1.912              2.786
 Vibration    13          0.621              1.894              2.575
 Vibration    14          0.626              1.878              2.421
 Vibration    15          0.634              1.853              2.226
 Vibration    16          0.638              1.841              2.138
 Vibration    17          0.656              1.782              1.815
 Vibration    18          0.661              1.767              1.748
 Vibration    19          0.675              1.725              1.585
 Vibration    20          0.678              1.716              1.552
 Vibration    21          0.698              1.658              1.372
 Vibration    22          0.702              1.646              1.340
 Vibration    23          0.713              1.616              1.260
 Vibration    24          0.727              1.575              1.165
 Vibration    25          0.747              1.520              1.052
 Vibration    26          0.769              1.463              0.951
 Vibration    27          0.824              1.325              0.748
 Vibration    28          0.843              1.279              0.692
 Vibration    29          0.897              1.157              0.561
 Vibration    30          0.925              1.098              0.506
 Vibration    31          0.970              1.008              0.431

                           ! Non-Optimized Parameters !
 Normal termination of Gaussian 16 at Tue May 23 10:21:58 2023.
