 Gaussian 16, Revision A.03,
 Gaussian 16:  ES64L-G16RevA.03 25-Dec-2016

 -----------------------------
 # opt freq b3lyp/6-31g(2df,p)
 -----------------------------

 -------------------
 Title Card Required
 -------------------
 Symbolic Z-matrix:
 Charge =  0 Multiplicity = 1

 SCF Done:  E(RB3LYP) =  -352.504674134     A.U. after   12 cycles
 SCF Done:  E(RB3LYP) =  -352.525068399     A.U. after   11 cycles
 SCF Done:  E(RB3LYP) =  -352.532206547     A.U. after   10 cycles
 SCF Done:  E(RB3LYP) =  -352.534104332     A.U. after   10 cycles
 SCF Done:  E(RB3LYP) =  -352.534762821     A.U. after    9 cycles
 SCF Done:  E(RB3LYP) =  -352.535064694     A.U. after   10 cycles
 SCF Done:  E(RB3LYP) =  -352.535294841     A.U. after    9 cycles
 SCF Done:  E(RB3LYP) =  -352.534756123     A.U. after   10 cycles
 SCF Done:  E(RB3LYP) =  -352.503805197     A.U. after   11 cycles
 SCF Done:  E(RB3LYP) =  -352.533305031     A.U. after   11 cycles
 SCF Done:  E(RB3LYP) =  -352.535806371     A.U. after    9 cycles
 SCF Done:  E(RB3LYP) =  -352.535849789     A.U. after    9 cycles
 SCF Done:  E(RB3LYP) =  -352.535839789     A.U. after    9 cycles
 SCF Done:  E(RB3LYP) =  -352.535536399     A.U. after   10 cycles
 SCF Done:  E(RB3LYP) =  -352.535846415     A.U. after    9 cycles
 SCF Done:  E(RB3LYP) =  -352.535866968     A.U. after    8 cycles
 SCF Done:  E(RB3LYP) =  -352.535908090     A.U. after    9 cycles
 SCF Done:  E(RB3LYP) =  -352.535909601     A.U. after    7 cycles
 SCF Done:  E(RB3LYP) =  -352.535909821     A.U. after    6 cycles
 Optimization completed.
    -- Stationary point found.
 Normal termination of Gaussian 16 at Sun May 28 13:18:23 2023.

 ----------------------------------------------------------------------
 #N Geom=AllCheck Guess=TCheck SCRF=Check GenChk RB3LYP/6-31G(2df,p) Fr
 eq
 ----------------------------------------------------------------------

 Structure from the checkpoint file:  "CCCCC1C2CC1C2.chk"
 -------------------
 Title Card Required
 -------------------
 Charge =  0 Multiplicity = 1

                         Standard orientation:
 ---------------------------------------------------------------------
 Center     Atomic      Atomic             Coordinates (Angstroms)
 Number     Number       Type             X           Y           Z
 ---------------------------------------------------------------------
      1          6           0       -3.879576   -0.673599    0.000128
      2          6           0       -2.841294    0.451471    0.000222
      3          6           0       -1.395383   -0.062490   -0.000340
      4          6           0       -0.378858    1.087502   -0.000259
      5          6           0        1.134809    0.842430    0.000053
      6          6           0        1.906442   -0.144417    0.940900
      7          6           0        3.130466    0.066971    0.000455
      8          6           0        1.906966   -0.144008   -0.940791
      9          6           0        1.508595   -1.320328   -0.000369
     10          1           0       -4.899784   -0.277061    0.000351
     11          1           0       -3.771049   -1.312945    0.883446
     12          1           0       -3.771294   -1.312587   -0.883478
     13          1           0       -2.996198    1.094133    0.877205
     14          1           0       -2.996643    1.094704   -0.876252
     15          1           0       -1.249138   -0.701837   -0.880024
     16          1           0       -1.248606   -0.701948    0.879217
     17          1           0       -0.591753    1.724200    0.871187
     18          1           0       -0.591201    1.723912   -0.872026
     19          1           0        1.597626    1.838242    0.000280
     20          1           0        1.913545   -0.146396    2.032800
     21          1           0        3.882344   -0.726750    0.000559
     22          1           0        3.591002    1.058942    0.000702
     23          1           0        1.914620   -0.145362   -2.032687
     24          1           0        2.188933   -2.177467   -0.000417
     25          1           0        0.474599   -1.652975   -0.000861
 ---------------------------------------------------------------------

 SCF Done:  E(RB3LYP) =  -352.535909821     A.U. after    1 cycles

 The electronic state is 1-A.
 Alpha  occ. eigenvalues --  -10.19242 -10.19239 -10.18569 -10.17948 -10.17615
 Alpha  occ. eigenvalues --  -10.17579 -10.17537 -10.17420 -10.16989  -0.90149
 Alpha  occ. eigenvalues --   -0.79244  -0.73375  -0.66925  -0.65223  -0.61564
 Alpha  occ. eigenvalues --   -0.60071  -0.57473  -0.51390  -0.48778  -0.46634
 Alpha  occ. eigenvalues --   -0.44721  -0.43286  -0.41264  -0.40958  -0.37652
 Alpha  occ. eigenvalues --   -0.35713  -0.35518  -0.33599  -0.32539  -0.32341
 Alpha  occ. eigenvalues --   -0.31550  -0.30438  -0.29692  -0.28911  -0.28622
 Alpha virt. eigenvalues --    0.09086   0.10953   0.11912   0.12308   0.12974
 Alpha virt. eigenvalues --    0.13289   0.15112   0.15284   0.15870   0.15884
 Alpha virt. eigenvalues --    0.16818   0.17363   0.18361   0.19537   0.20104

 Mulliken charges:
               1
     1  C   -0.383814
     2  C   -0.165206
     3  C   -0.168619
     4  C   -0.245626
     5  C    0.061613
     6  C   -0.058398
     7  C   -0.210568
     8  C   -0.058373
     9  C   -0.213284
    10  H    0.110376
    11  H    0.112783
    12  H    0.112781
    13  H    0.093581
    14  H    0.093577
    15  H    0.099499
    16  H    0.099499
    17  H    0.095320
    18  H    0.095318
    19  H    0.058809
    20  H    0.062254
    21  H    0.085267
    22  H    0.084661
    23  H    0.062246
    24  H    0.081017
    25  H    0.095287
 Sum of Mulliken charges =  -0.00000

 Dipole moment (field-independent basis, Debye):
    X=             -0.2305    Y=              0.1395    Z=             -0.0001  Tot=              0.2694
 Quadrupole moment (field-independent basis, Debye-Ang):
   XX=            -58.9402   YY=            -58.2889   ZZ=            -57.6937
   XY=             -0.2456   XZ=             -0.0000   YZ=              0.0001

  Exact polarizability: 113.059  -0.825  88.875   0.001   0.000  81.152
 Approx polarizability: 134.589  -1.585 132.786   0.002  -0.000 129.247

                      1                      2                      3
                      A                      A                      A
 Frequencies --     46.6037               100.6017               117.6773
 Red. masses --      2.7567                 1.6846                 3.2001
 Frc consts  --      0.0035                 0.0100                 0.0261
 IR Inten    --      0.0026                 0.0082                 0.0092

                      4                      5                      6
                      A                      A                      A
 Frequencies --    146.0327               246.2988               267.9070
 Red. masses --      1.9218                 1.1707                 3.5243
 Frc consts  --      0.0241                 0.0418                 0.1490
 IR Inten    --      0.0001                 0.0404                 0.0689

                      7                      8                      9
                      A                      A                      A
 Frequencies --    293.9765               321.1273               399.3614
 Red. masses --      2.0710                 3.2283                 2.6923
 Frc consts  --      0.1055                 0.1961                 0.2530
 IR Inten    --      0.1354                 0.3916                 0.6016

                     10                     11                     12
                      A                      A                      A
 Frequencies --    566.5467               676.5341               729.1123
 Red. masses --      1.9285                 3.2050                 1.4315
 Frc consts  --      0.3647                 0.8643                 0.4484
 IR Inten    --      0.9641                 1.1523                 1.8135

                     13                     14                     15
                      A                      A                      A
 Frequencies --    756.7993               776.8385               810.6986
 Red. masses --      1.5102                 1.7524                 2.7994
 Frc consts  --      0.5096                 0.6231                 1.0840
 IR Inten    --      1.2009                 0.1623                 0.6281

                     16                     17                     18
                      A                      A                      A
 Frequencies --    814.1369               864.1401               895.7293
 Red. masses --      1.9945                 2.0113                 2.2758
 Frc consts  --      0.7789                 0.8849                 1.0758
 IR Inten    --      0.1833                 0.8799                 0.1443

                     19                     20                     21
                      A                      A                      A
 Frequencies --    903.2484               915.5331               947.0056
 Red. masses --      2.4791                 1.8122                 1.2366
 Frc consts  --      1.1917                 0.8950                 0.6534
 IR Inten    --      0.2798                 0.8560                 1.4435

                     22                     23                     24
                      A                      A                      A
 Frequencies --    995.2375              1008.9162              1028.8842
 Red. masses --      2.7726                 1.0137                 1.5895
 Frc consts  --      1.6180                 0.6079                 0.9914
 IR Inten    --      0.2783                 0.0852                 1.4331

                     25                     26                     27
                      A                      A                      A
 Frequencies --   1030.5729              1054.8865              1066.3000
 Red. masses --      1.0215                 2.5691                 1.1912
 Frc consts  --      0.6392                 1.6844                 0.7980
 IR Inten    --      0.3493                 0.4022                 0.3212

                     28                     29                     30
                      A                      A                      A
 Frequencies --   1084.9582              1114.6045              1130.3688
 Red. masses --      1.9443                 2.3623                 2.4161
 Frc consts  --      1.3484                 1.7291                 1.8189
 IR Inten    --      0.2482                 1.2507                 2.7633

                     31                     32                     33
                      A                      A                      A
 Frequencies --   1133.4411              1159.5053              1178.6985
 Red. masses --      1.3610                 1.4920                 2.4065
 Frc consts  --      1.0302                 1.1819                 1.9698
 IR Inten    --      0.0324                 0.9772                 2.1707

                     34                     35                     36
                      A                      A                      A
 Frequencies --   1189.7022              1220.4996              1239.9669
 Red. masses --      1.4190                 1.4292                 1.5355
 Frc consts  --      1.1833                 1.2543                 1.3910
 IR Inten    --      0.0038                 0.7989                 8.8624

                     37                     38                     39
                      A                      A                      A
 Frequencies --   1241.9012              1270.0316              1276.2130
 Red. masses --      1.6465                 1.4410                 1.7555
 Frc consts  --      1.4962                 1.3694                 1.6846
 IR Inten    --      0.4857                 5.0667                 1.1845

                     40                     41                     42
                      A                      A                      A
 Frequencies --   1291.4906              1331.9087              1345.2139
 Red. masses --      1.4563                 1.1179                 1.1207
 Frc consts  --      1.4311                 1.1684                 1.1949
 IR Inten    --      2.8035                 0.1196                 0.1985

                     43                     44                     45
                      A                      A                      A
 Frequencies --   1370.2544              1392.6880              1413.1849
 Red. masses --      1.4516                 1.5695                 1.2424
 Frc consts  --      1.6058                 1.7936                 1.4619
 IR Inten    --      3.5294                 0.7126                 1.0836

                     46                     47                     48
                      A                      A                      A
 Frequencies --   1446.6843              1475.9660              1485.4862
 Red. masses --      1.2616                 1.0816                 1.0651
 Frc consts  --      1.5556                 1.3882                 1.3847
 IR Inten    --     16.5003                 0.9662                 1.3581

                     49                     50                     51
                      A                      A                      A
 Frequencies --   1498.5478              1499.8715              1504.6364
 Red. masses --      1.0727                 1.0403                 1.0911
 Frc consts  --      1.4193                 1.3788                 1.4553
 IR Inten    --      0.4275                 5.1287                 1.4780

                     52                     53                     54
                      A                      A                      A
 Frequencies --   1513.9824              1547.5301              2987.9361
 Red. masses --      1.0914                 1.1380                 1.0629
 Frc consts  --      1.4739                 1.6057                 5.5908
 IR Inten    --      3.1164                 6.0702                 8.5919

                     55                     56                     57
                      A                      A                      A
 Frequencies --   3009.3628              3011.5430              3017.3644
 Red. masses --      1.0598                 1.0767                 1.0994
 Frc consts  --      5.6549                 5.7535                 5.8974
 IR Inten    --      0.2535                51.9196                13.9693

                     58                     59                     60
                      A                      A                      A
 Frequencies --   3020.0094              3028.3780              3036.2354
 Red. masses --      1.0591                 1.0367                 1.1009
 Frc consts  --      5.6915                 5.6017                 5.9794
 IR Inten    --     73.2619                39.7858                 1.1482

                     61                     62                     63
                      A                      A                      A
 Frequencies --   3045.5901              3057.7582              3066.3710
 Red. masses --      1.0541                 1.0670                 1.1050
 Frc consts  --      5.7605                 5.8779                 6.1213
 IR Inten    --     57.1799                47.8950                30.3315

                     64                     65                     66
                      A                      A                      A
 Frequencies --   3085.2239              3092.4128              3094.5266
 Red. masses --      1.0894                 1.0934                 1.1021
 Frc consts  --      6.1097                 6.1605                 6.2181
 IR Inten    --    124.9170                10.8041                67.3905

                     67                     68                     69
                      A                      A                      A
 Frequencies --   3099.7668              3112.0407              3177.9662
 Red. masses --      1.1009                 1.1106                 1.0948
 Frc consts  --      6.2325                 6.3372                 6.5147
 IR Inten    --     38.9433                49.0369                26.9542

 - Thermochemistry -
 -------------------
 Temperature   298.150 Kelvin.  Pressure   1.00000 Atm.
 Atom     1 has atomic number  6 and mass  12.00000

 Molecular mass:   124.12520 amu.
 Principal axes and moments of inertia in atomic units:
                           1         2         3
     Eigenvalues --   405.265142512.790802662.46225
           X            0.99999   0.00379  -0.00000
           Y           -0.00379   0.99999   0.00001
           Z            0.00000  -0.00001   1.00000
 This molecule is an asymmetric top.
 Rotational symmetry number  1.
 Rotational temperatures (Kelvin)      0.21372     0.03447     0.03253
 Rotational constants (GHZ):           4.45324     0.71822     0.67785
 Zero-point vibrational energy     604595.8 (Joules/Mol)
                                  144.50187 (Kcal/Mol)
 Warning -- explicit consideration of  10 degrees of freedom as
           vibrations may cause significant error
 Vibrational temperatures:     67.05   144.74   169.31   210.11   354.37
          (Kelvin)            385.46   422.97   462.03   574.59   815.13
                              973.38  1049.03  1088.87  1117.70  1166.41
                             1171.36  1243.30  1288.75  1299.57  1317.25
                             1362.53  1431.92  1451.61  1480.33  1482.76
                             1517.75  1534.17  1561.01  1603.67  1626.35
                             1630.77  1668.27  1695.88  1711.72  1756.03
                             1784.04  1786.82  1827.29  1836.19  1858.17
                             1916.32  1935.46  1971.49  2003.77  2033.26
                             2081.46  2123.59  2137.28  2156.08  2157.98
                             2164.84  2178.28  2226.55  4298.97  4329.80
                             4332.94  4341.31  4345.12  4357.16  4368.47
                             4381.92  4399.43  4411.82  4438.95  4449.29
                             4452.33  4459.87  4477.53  4572.38

 Zero-point correction=                           0.230278 (Hartree/Particle)
 Thermal correction to Energy=                    0.239629
 Thermal correction to Enthalpy=                  0.240573
 Thermal correction to Gibbs Free Energy=         0.195419
 Sum of electronic and zero-point Energies=           -352.305631
 Sum of electronic and thermal Energies=              -352.296281
 Sum of electronic and thermal Enthalpies=            -352.295336
 Sum of electronic and thermal Free Energies=         -352.340490

                     E (Thermal)             CV                S
                      KCal/Mol        Cal/Mol-Kelvin    Cal/Mol-Kelvin
 Total                  150.370             35.950             95.035
 Electronic               0.000              0.000              0.000
 Translational            0.889              2.981             40.362
 Rotational               0.889              2.981             29.385
 Vibrational            148.592             29.989             25.288
 Vibration     1          0.595              1.979              4.957
 Vibration     2          0.604              1.949              3.443
 Vibration     3          0.608              1.935              3.138
 Vibration     4          0.617              1.907              2.723
 Vibration     5          0.661              1.769              1.757
 Vibration     6          0.673              1.732              1.610
 Vibration     7          0.689              1.685              1.451
 Vibration     8          0.707              1.633              1.304
 Vibration     9          0.765              1.471              0.965
 Vibration    10          0.922              1.104              0.511

 Optimization completed.
    -- Stationary point found.
 Normal termination of Gaussian 16 at Sun May 28 13:54:26 2023.
