 Gaussian 16, Revision A.03,
 Gaussian 16:  ES64L-G16RevA.03 25-Dec-2016

 -----------------------------
 # opt freq b3lyp/6-31g(2df,p)
 -----------------------------

 -------------------
 Title Card Required
 -------------------
 Symbolic Z-matrix:
 Charge =  0 Multiplicity = 1

 SCF Done:  E(RB3LYP) =  -352.293337463     A.U. after   16 cycles
 SCF Done:  E(RB3LYP) =  -352.345367299     A.U. after   14 cycles
 SCF Done:  E(RB3LYP) =  -352.416552377     A.U. after   13 cycles
 SCF Done:  E(RB3LYP) =  -352.421556521     A.U. after   10 cycles
 SCF Done:  E(RB3LYP) =  -352.421649732     A.U. after    6 cycles
 SCF Done:  E(RB3LYP) =  -352.440691538     A.U. after   11 cycles
 SCF Done:  E(RB3LYP) =  -352.452005960     A.U. after   11 cycles
 SCF Done:  E(RB3LYP) =  -352.452982806     A.U. after    9 cycles
 SCF Done:  E(RB3LYP) =  -352.453644296     A.U. after   10 cycles
 SCF Done:  E(RB3LYP) =  -352.456076454     A.U. after   10 cycles
 SCF Done:  E(RB3LYP) =  -352.549446747     A.U. after    9 cycles
 SCF Done:  E(RB3LYP) =  -352.549543116     A.U. after    9 cycles
 SCF Done:  E(RB3LYP) =  -352.549566466     A.U. after    8 cycles
 SCF Done:  E(RB3LYP) =  -352.549579286     A.U. after    8 cycles
 SCF Done:  E(RB3LYP) =  -352.549582814     A.U. after    7 cycles
 SCF Done:  E(RB3LYP) =  -352.549584196     A.U. after    7 cycles
 SCF Done:  E(RB3LYP) =  -352.549584815     A.U. after    7 cycles
 SCF Done:  E(RB3LYP) =  -352.549584957     A.U. after    6 cycles
 SCF Done:  E(RB3LYP) =  -352.549585017     A.U. after    6 cycles
 Optimization completed.
    -- Stationary point found.
 Normal termination of Gaussian 16 at Mon May 29 08:09:50 2023.

 ----------------------------------------------------------------------
 #N Geom=AllCheck Guess=TCheck SCRF=Check GenChk RB3LYP/6-31G(2df,p) Fr
 eq
 ----------------------------------------------------------------------

 Structure from the checkpoint file:  "CCCC12CCqC1rC2C.chk"
 -------------------
 Title Card Required
 -------------------
 Charge =  0 Multiplicity = 1

                         Standard orientation:
 ---------------------------------------------------------------------
 Center     Atomic      Atomic             Coordinates (Angstroms)
 Number     Number       Type             X           Y           Z
 ---------------------------------------------------------------------
      1          6           0        3.622452   -0.425130   -0.002403
      2          6           0        2.278922    0.282419   -0.197166
      3          6           0        1.086511   -0.546122    0.299656
      4          6           0       -0.249615    0.132274    0.117145
      5          6           0       -0.729612    1.483173    0.741184
      6          6           0       -1.928778    0.968556   -0.101798
      7          6           0       -0.898166    0.635229   -1.216140
      8          6           0       -1.657680   -0.437562    0.519946
      9          6           0       -2.214867   -1.715328   -0.090512
     10          1           0        4.453757    0.187625   -0.365196
     11          1           0        3.650417   -1.377947   -0.542996
     12          1           0        3.806011   -0.642357    1.055891
     13          1           0        2.137683    0.516469   -1.259969
     14          1           0        2.292103    1.246447    0.326925
     15          1           0        1.224335   -0.780657    1.364905
     16          1           0        1.073100   -1.512456   -0.224386
     17          1           0       -0.237570    2.391567    0.382459
     18          1           0       -0.861238    1.500675    1.827694
     19          1           0       -2.896624    1.456829   -0.227952
     20          1           0       -0.415189    1.492198   -1.694658
     21          1           0       -1.173419   -0.113390   -1.961093
     22          1           0       -1.807391   -0.459215    1.607245
     23          1           0       -2.106671   -1.763812   -1.177027
     24          1           0       -3.282114   -1.813360    0.138301
     25          1           0       -1.712185   -2.593670    0.330380
 ---------------------------------------------------------------------

 SCF Done:  E(RB3LYP) =  -352.549585017     A.U. after    1 cycles

 The electronic state is 1-A.
 Alpha  occ. eigenvalues --  -10.19520 -10.19072 -10.18338 -10.17677 -10.17613
 Alpha  occ. eigenvalues --  -10.17597 -10.17343 -10.16993 -10.16867  -0.90309
 Alpha  occ. eigenvalues --   -0.78102  -0.72775  -0.69610  -0.65823  -0.61445
 Alpha  occ. eigenvalues --   -0.59993  -0.56816  -0.51377  -0.46477  -0.45812
 Alpha  occ. eigenvalues --   -0.45525  -0.42851  -0.41220  -0.40020  -0.38678
 Alpha  occ. eigenvalues --   -0.37249  -0.36293  -0.34116  -0.33985  -0.32803
 Alpha  occ. eigenvalues --   -0.30679  -0.30361  -0.29286  -0.29181  -0.27631
 Alpha virt. eigenvalues --    0.09196   0.10443   0.12136   0.12540   0.12917
 Alpha virt. eigenvalues --    0.13803   0.15043   0.15485   0.15825   0.16261
 Alpha virt. eigenvalues --    0.16420   0.17597   0.17991   0.18618   0.19192

 Mulliken charges:
               1
     1  C   -0.379418
     2  C   -0.162253
     3  C   -0.330601
     4  C    0.365925
     5  C   -0.256633
     6  C   -0.061709
     7  C   -0.266445
     8  C    0.016710
     9  C   -0.444665
    10  H    0.109414
    11  H    0.112595
    12  H    0.112724
    13  H    0.098475
    14  H    0.098463
    15  H    0.091747
    16  H    0.093308
    17  H    0.084051
    18  H    0.082052
    19  H    0.063419
    20  H    0.085518
    21  H    0.086970
    22  H    0.054400
    23  H    0.115688
    24  H    0.115194
    25  H    0.115071
 Sum of Mulliken charges =  -0.00000

 Dipole moment (field-independent basis, Debye):
    X=              0.1330    Y=             -0.1515    Z=              0.0235  Tot=              0.2030
 Quadrupole moment (field-independent basis, Debye-Ang):
   XX=            -58.6429   YY=            -58.3225   ZZ=            -57.7891
   XY=              0.5005   XZ=             -0.1595   YZ=             -0.0071

  Exact polarizability: 105.264   2.094  91.828  -0.439  -0.167  84.807
 Approx polarizability: 131.837   2.064 133.196  -0.628  -0.259 132.541

                      1                      2                      3
                      A                      A                      A
 Frequencies --     68.6590                82.3845               114.1384
 Red. masses --      1.9407                 2.1181                 2.8254
 Frc consts  --      0.0054                 0.0085                 0.0217
 IR Inten    --      0.0028                 0.0114                 0.0352

                      4                      5                      6
                      A                      A                      A
 Frequencies --    174.8064               219.9338               246.3200
 Red. masses --      1.0453                 2.6348                 1.1226
 Frc consts  --      0.0188                 0.0751                 0.0401
 IR Inten    --      0.0040                 0.0043                 0.0022

                      7                      8                      9
                      A                      A                      A
 Frequencies --    302.9130               314.4889               349.9637
 Red. masses --      2.3282                 2.8790                 2.4612
 Frc consts  --      0.1259                 0.1678                 0.1776
 IR Inten    --      0.0273                 0.0927                 0.1332

                     10                     11                     12
                      A                      A                      A
 Frequencies --    418.6569               545.0732               580.1663
 Red. masses --      2.7304                 2.2027                 2.1869
 Frc consts  --      0.2820                 0.3856                 0.4337
 IR Inten    --      0.4486                 0.1470                 1.5440

                     13                     14                     15
                      A                      A                      A
 Frequencies --    678.3483               738.3267               769.0294
 Red. masses --      2.8900                 1.2260                 2.3618
 Frc consts  --      0.7835                 0.3938                 0.8230
 IR Inten    --      0.0548                 2.0267                 0.2467

                     16                     17                     18
                      A                      A                      A
 Frequencies --    787.8921               805.0998               872.5955
 Red. masses --      2.2969                 2.3908                 1.4622
 Frc consts  --      0.8401                 0.9130                 0.6559
 IR Inten    --      0.3902                 0.5597                 0.2554

                     19                     20                     21
                      A                      A                      A
 Frequencies --    899.4180               911.7724               942.3375
 Red. masses --      2.0484                 2.6711                 1.5942
 Frc consts  --      0.9763                 1.3083                 0.8341
 IR Inten    --      1.3601                 0.2796                 0.2866

                     22                     23                     24
                      A                      A                      A
 Frequencies --    956.7053               997.9102              1005.8552
 Red. masses --      2.0840                 1.2744                 1.0761
 Frc consts  --      1.1238                 0.7477                 0.6414
 IR Inten    --      0.4298                 0.2413                 0.7198

                     25                     26                     27
                      A                      A                      A
 Frequencies --   1044.4755              1047.1202              1055.4195
 Red. masses --      1.2333                 2.6543                 1.3001
 Frc consts  --      0.7927                 1.7147                 0.8533
 IR Inten    --      2.8081                 0.0246                 0.8911

                     28                     29                     30
                      A                      A                      A
 Frequencies --   1098.7578              1118.5095              1126.1648
 Red. masses --      1.7570                 1.7109                 1.5831
 Frc consts  --      1.2497                 1.2611                 1.1829
 IR Inten    --      3.5131                 0.5171                 1.2246

                     31                     32                     33
                      A                      A                      A
 Frequencies --   1146.3138              1151.3166              1171.3148
 Red. masses --      2.3382                 1.5064                 1.7542
 Frc consts  --      1.8103                 1.1764                 1.4180
 IR Inten    --      1.5933                 0.4757                 1.9374

                     34                     35                     36
                      A                      A                      A
 Frequencies --   1191.1903              1221.5347              1231.7521
 Red. masses --      1.7539                 1.7015                 1.8417
 Frc consts  --      1.4663                 1.4959                 1.6463
 IR Inten    --      1.9481                 0.0685                 3.0703

                     37                     38                     39
                      A                      A                      A
 Frequencies --   1247.4222              1276.6110              1300.6086
 Red. masses --      1.7513                 1.3796                 1.6983
 Frc consts  --      1.6056                 1.3247                 1.6926
 IR Inten    --      1.2894                 0.2183                23.8345

                     40                     41                     42
                      A                      A                      A
 Frequencies --   1330.3332              1333.7725              1393.9119
 Red. masses --      1.1359                 2.1119                 1.6672
 Frc consts  --      1.1844                 2.2135                 1.9086
 IR Inten    --      0.7749                 3.7409                 2.4691

                     43                     44                     45
                      A                      A                      A
 Frequencies --   1404.5615              1412.0506              1423.0739
 Red. masses --      1.2260                 1.2340                 1.3813
 Frc consts  --      1.4251                 1.4497                 1.6482
 IR Inten    --      0.8787                 0.7220                10.4197

                     46                     47                     48
                      A                      A                      A
 Frequencies --   1477.6080              1490.3716              1492.4498
 Red. masses --      1.0784                 1.0736                 1.0586
 Frc consts  --      1.3873                 1.4051                 1.3893
 IR Inten    --      0.6213                 1.2195                 1.0402

                     49                     50                     51
                      A                      A                      A
 Frequencies --   1495.6803              1499.4291              1509.8428
 Red. masses --      1.0478                 1.0405                 1.0816
 Frc consts  --      1.3810                 1.3782                 1.4527
 IR Inten    --      3.3943                 5.0067                 2.6034

                     52                     53                     54
                      A                      A                      A
 Frequencies --   1510.7953              1544.8950              2998.1057
 Red. masses --      1.0848                 1.1720                 1.0582
 Frc consts  --      1.4588                 1.6481                 5.6043
 IR Inten    --      2.8501                 2.1586                17.8229

                     55                     56                     57
                      A                      A                      A
 Frequencies --   3014.1575              3021.7150              3027.0402
 Red. masses --      1.0817                 1.0588                 1.0978
 Frc consts  --      5.7903                 5.6961                 5.9266
 IR Inten    --     32.2570                20.3071                10.8643

                     58                     59                     60
                      A                      A                      A
 Frequencies --   3027.5387              3030.8857              3039.5215
 Red. masses --      1.0372                 1.0397                 1.0547
 Frc consts  --      5.6014                 5.6271                 5.7410
 IR Inten    --     41.9805                41.8199                45.1925

                     61                     62                     63
                      A                      A                      A
 Frequencies --   3054.9566              3057.4860              3084.7372
 Red. masses --      1.0673                 1.0922                 1.1003
 Frc consts  --      5.8688                 6.0158                 6.1687
 IR Inten    --     12.1053                38.0666                23.6171

                     64                     65                     66
                      A                      A                      A
 Frequencies --   3094.5259              3095.2309              3099.3213
 Red. masses --      1.1022                 1.0920                 1.1010
 Frc consts  --      6.2189                 6.1641                 6.2310
 IR Inten    --     55.7321                76.7391                31.2645

                     67                     68                     69
                      A                      A                      A
 Frequencies --   3103.7144              3109.3178              3121.7851
 Red. masses --      1.1091                 1.1031                 1.1015
 Frc consts  --      6.2949                 6.2832                 6.3248
 IR Inten    --     17.8811                65.1480                43.6049

 - Thermochemistry -
 -------------------
 Temperature   298.150 Kelvin.  Pressure   1.00000 Atm.
 Atom     1 has atomic number  6 and mass  12.00000

 Molecular mass:   124.12520 amu.
 Principal axes and moments of inertia in atomic units:
                           1         2         3
     Eigenvalues --   603.914471890.176162142.91525
           X            0.99996   0.00837   0.00104
           Y           -0.00837   0.99996   0.00409
           Z           -0.00100  -0.00410   0.99999
 This molecule is an asymmetric top.
 Rotational symmetry number  1.
 Warning -- assumption of classical behavior for rotation
           may cause significant error
 Rotational temperatures (Kelvin)      0.14342     0.04582     0.04042
 Rotational constants (GHZ):           2.98841     0.95480     0.84219
 Zero-point vibrational energy     601184.0 (Joules/Mol)
                                  143.68643 (Kcal/Mol)
 Warning -- explicit consideration of  12 degrees of freedom as
           vibrations may cause significant error
 Vibrational temperatures:     98.78   118.53   164.22   251.51   316.44
          (Kelvin)            354.40   435.82   452.48   503.52   602.35
                              784.24   834.73   975.99  1062.29  1106.46
                             1133.60  1158.36  1255.47  1294.06  1311.84
                             1355.81  1376.49  1435.77  1447.20  1502.77
                             1506.57  1518.51  1580.87  1609.29  1620.30
                             1649.29  1656.49  1685.26  1713.86  1757.52
                             1772.22  1794.76  1836.76  1871.29  1914.05
                             1919.00  2005.53  2020.85  2031.63  2047.49
                             2125.95  2144.31  2147.30  2151.95  2157.34
                             2172.33  2173.70  2222.76  4313.61  4336.70
                             4347.57  4355.24  4355.95  4360.77  4373.19
                             4395.40  4399.04  4438.25  4452.33  4453.35
                             4459.23  4465.55  4473.61  4491.55

 Zero-point correction=                           0.228979 (Hartree/Particle)
 Thermal correction to Energy=                    0.238733
 Thermal correction to Enthalpy=                  0.239677
 Thermal correction to Gibbs Free Energy=         0.194123
 Sum of electronic and zero-point Energies=           -352.320606
 Sum of electronic and thermal Energies=              -352.310852
 Sum of electronic and thermal Enthalpies=            -352.309908
 Sum of electronic and thermal Free Energies=         -352.355462

                     E (Thermal)             CV                S
                      KCal/Mol        Cal/Mol-Kelvin    Cal/Mol-Kelvin
 Total                  149.807             37.453             95.877
 Electronic               0.000              0.000              0.000
 Translational            0.889              2.981             40.362
 Rotational               0.889              2.981             29.282
 Vibrational            148.030             31.491             26.233
 Vibration     1          0.598              1.969              4.191
 Vibration     2          0.600              1.961              3.833
 Vibration     3          0.607              1.938              3.197
 Vibration     4          0.627              1.873              2.383
 Vibration     5          0.647              1.811              1.960
 Vibration     6          0.661              1.769              1.757
 Vibration     7          0.694              1.668              1.401
 Vibration     8          0.702              1.646              1.339
 Vibration     9          0.727              1.575              1.166
 Vibration    10          0.782              1.430              0.897
 Vibration    11          0.900              1.150              0.554
 Vibration    12          0.937              1.074              0.485

 Optimization completed.
    -- Stationary point found.
 Normal termination of Gaussian 16 at Mon May 29 08:51:40 2023.
