 Gaussian 16, Revision A.03,
 Gaussian 16:  ES64L-G16RevA.03 25-Dec-2016

 -----------------------------
 # opt freq b3lyp/6-31g(2df,p)
 -----------------------------

 -------------------
 Title Card Required
 -------------------
 Symbolic Z-matrix:
 Charge =  0 Multiplicity = 1

 SCF Done:  E(RB3LYP) =  -276.420795861     A.U. after   12 cycles
 SCF Done:  E(RB3LYP) =  -276.422406889     A.U. after    9 cycles
 SCF Done:  E(RB3LYP) =  -276.422642772     A.U. after    8 cycles
 SCF Done:  E(RB3LYP) =  -276.422664355     A.U. after    8 cycles
 SCF Done:  E(RB3LYP) =  -276.422669551     A.U. after    8 cycles
 SCF Done:  E(RB3LYP) =  -276.422669933     A.U. after    5 cycles
 Optimization completed.
    -- Stationary point found.
 Normal termination of Gaussian 16 at Sun May 28 00:49:59 2023.

 ----------------------------------------------------------------------
 #N Geom=AllCheck Guess=TCheck SCRF=Check GenChk RB3LYP/6-31G(2df,p) Fr
 eq
 ----------------------------------------------------------------------

 Structure from the checkpoint file:  "CCCCCqCrC.chk"
 -------------------
 Title Card Required
 -------------------
 Charge =  0 Multiplicity = 1

                         Standard orientation:
 ---------------------------------------------------------------------
 Center     Atomic      Atomic             Coordinates (Angstroms)
 Number     Number       Type             X           Y           Z
 ---------------------------------------------------------------------
      1          6           0       -3.501648    0.242400   -0.128851
      2          6           0       -2.226912   -0.504634    0.272449
      3          6           0       -0.944870    0.184788   -0.208811
      4          6           0        0.330052   -0.564881    0.194704
      5          6           0        1.643882    0.031553   -0.343400
      6          6           0        1.924312    1.435120    0.212395
      7          6           0        2.821255   -0.907789   -0.047730
      8          1           0       -4.398428   -0.273887    0.228154
      9          1           0       -3.581271    0.332797   -1.218066
     10          1           0       -3.514023    1.256338    0.286662
     11          1           0       -2.259686   -1.527032   -0.127169
     12          1           0       -2.192226   -0.609496    1.365119
     13          1           0       -0.922963    1.208227    0.186885
     14          1           0       -0.977275    0.283829   -1.303374
     15          1           0        0.250462   -1.603419   -0.155245
     16          1           0        0.387542   -0.621851    1.291876
     17          1           0        1.547392    0.114892   -1.436215
     18          1           0        2.002724    1.411950    1.306463
     19          1           0        1.137211    2.147799   -0.050009
     20          1           0        2.868843    1.829007   -0.177657
     21          1           0        2.961662   -1.030602    1.033173
     22          1           0        3.757096   -0.515441   -0.459647
     23          1           0        2.656509   -1.902458   -0.475485
 ---------------------------------------------------------------------

 SCF Done:  E(RB3LYP) =  -276.422669933     A.U. after    1 cycles

 The electronic state is 1-A.
 Alpha  occ. eigenvalues --  -10.18099 -10.17449 -10.17170 -10.17063 -10.16874
 Alpha  occ. eigenvalues --  -10.16672 -10.16663  -0.80821  -0.77237  -0.70677
 Alpha  occ. eigenvalues --   -0.67613  -0.62880  -0.57387  -0.55098  -0.46940
 Alpha  occ. eigenvalues --   -0.44569  -0.43169  -0.42512  -0.40298  -0.38582
 Alpha  occ. eigenvalues --   -0.37717  -0.37282  -0.34956  -0.34647  -0.33297
 Alpha  occ. eigenvalues --   -0.32096  -0.31330  -0.31007  -0.29965
 Alpha virt. eigenvalues --    0.08616   0.10047   0.11928   0.12604   0.13890
 Alpha virt. eigenvalues --    0.15360   0.15483   0.15892   0.17190   0.17541
 Alpha virt. eigenvalues --    0.18677   0.19181   0.19619   0.19849   0.21653

 Mulliken charges:
               1
     1  C   -0.379688
     2  C   -0.161263
     3  C   -0.168820
     4  C   -0.162548
     5  C    0.042822
     6  C   -0.379649
     7  C   -0.387213
     8  H    0.109472
     9  H    0.112226
    10  H    0.112257
    11  H    0.092586
    12  H    0.093043
    13  H    0.094328
    14  H    0.088595
    15  H    0.085807
    16  H    0.086561
    17  H    0.068094
    18  H    0.108690
    19  H    0.113022
    20  H    0.107769
    21  H    0.109777
    22  H    0.106734
    23  H    0.107400
 Sum of Mulliken charges =   0.00000

 Dipole moment (field-independent basis, Debye):
    X=             -0.0221    Y=             -0.0191    Z=             -0.0493  Tot=              0.0573
 Quadrupole moment (field-independent basis, Debye-Ang):
   XX=            -48.9887   YY=            -48.3478   ZZ=            -47.5203
   XY=              0.3261   XZ=             -0.2704   YZ=              0.2372

  Exact polarizability:  93.185  -0.356  74.140  -0.076  -0.087  68.760
 Approx polarizability: 106.532   0.592 104.882  -0.210   0.269 105.520

                      1                      2                      3
                      A                      A                      A
 Frequencies --     59.1060                83.8924               127.2421
 Red. masses --      1.7528                 2.2989                 2.7840
 Frc consts  --      0.0036                 0.0095                 0.0266
 IR Inten    --      0.0031                 0.0111                 0.0134

                      4                      5                      6
                      A                      A                      A
 Frequencies --    141.2995               224.9815               242.9466
 Red. masses --      1.8417                 1.0656                 1.0868
 Frc consts  --      0.0217                 0.0318                 0.0378
 IR Inten    --      0.0079                 0.0149                 0.0012

                      7                      8                      9
                      A                      A                      A
 Frequencies --    251.5618               297.1751               302.8962
 Red. masses --      1.1571                 2.5979                 2.4896
 Frc consts  --      0.0431                 0.1352                 0.1346
 IR Inten    --      0.0030                 0.0235                 0.0156

                     10                     11                     12
                      A                      A                      A
 Frequencies --    405.6539               430.7531               475.9562
 Red. masses --      2.1028                 2.3147                 2.4017
 Frc consts  --      0.2039                 0.2530                 0.3205
 IR Inten    --      0.0671                 0.0347                 0.3145

                     13                     14                     15
                      A                      A                      A
 Frequencies --    735.0325               785.9803               824.5438
 Red. masses --      1.0822                 1.2694                 2.3202
 Frc consts  --      0.3445                 0.4620                 0.9294
 IR Inten    --      2.9123                 0.1581                 0.5816

                     16                     17                     18
                      A                      A                      A
 Frequencies --    902.4115               913.7545               926.8464
 Red. masses --      1.7378                 1.2937                 1.2135
 Frc consts  --      0.8338                 0.6364                 0.6142
 IR Inten    --      0.9405                 1.6342                 1.1960

                     19                     20                     21
                      A                      A                      A
 Frequencies --    950.7345               966.3802              1028.2526
 Red. masses --      1.8505                 1.5065                 1.9866
 Frc consts  --      0.9855                 0.8289                 1.2375
 IR Inten    --      0.3215                 0.0766                 0.5107

                     22                     23                     24
                      A                      A                      A
 Frequencies --   1042.6046              1069.6181              1088.5095
 Red. masses --      1.5577                 2.3754                 1.8969
 Frc consts  --      0.9977                 1.6012                 1.3242
 IR Inten    --      0.3065                 0.1183                 1.7898

                     25                     26                     27
                      A                      A                      A
 Frequencies --   1164.7772              1192.9568              1205.1680
 Red. masses --      2.3278                 1.7712                 1.9968
 Frc consts  --      1.8607                 1.4851                 1.7088
 IR Inten    --      1.2930                 3.6198                 0.1472

                     28                     29                     30
                      A                      A                      A
 Frequencies --   1252.9198              1279.6999              1317.0197
 Red. masses --      1.4429                 1.2791                 1.2144
 Frc consts  --      1.3345                 1.2342                 1.2411
 IR Inten    --      1.5787                 4.4352                 0.5021

                     31                     32                     33
                      A                      A                      A
 Frequencies --   1331.9656              1341.5581              1370.2527
 Red. masses --      1.0702                 1.3087                 1.3344
 Frc consts  --      1.1186                 1.3878                 1.4761
 IR Inten    --      0.2967                 0.1826                 3.5736

                     34                     35                     36
                      A                      A                      A
 Frequencies --   1381.5674              1397.6843              1401.7769
 Red. masses --      1.4460                 1.5125                 1.3184
 Frc consts  --      1.6261                 1.7408                 1.5264
 IR Inten    --      5.1110                 1.4131                 3.7092

                     37                     38                     39
                      A                      A                      A
 Frequencies --   1412.5471              1422.2435              1477.6985
 Red. masses --      1.2395                 1.2478                 1.0742
 Frc consts  --      1.4572                 1.4871                 1.3820
 IR Inten    --      0.9141                 2.7114                 0.1275

                     40                     41                     42
                      A                      A                      A
 Frequencies --   1485.7819              1489.0176              1494.3929
 Red. masses --      1.0652                 1.0453                 1.0565
 Frc consts  --      1.3854                 1.3655                 1.3901
 IR Inten    --      0.3928                 0.6588                 1.4312

                     43                     44                     45
                      A                      A                      A
 Frequencies --   1499.7457              1500.0616              1505.0679
 Red. masses --      1.0404                 1.0714                 1.0547
 Frc consts  --      1.3788                 1.4204                 1.4077
 IR Inten    --      4.5925                 0.5580                 2.8504

                     46                     47                     48
                      A                      A                      A
 Frequencies --   1510.6034              1513.5418              2989.0122
 Red. masses --      1.0590                 1.0792                 1.0774
 Frc consts  --      1.4237                 1.4566                 5.6715
 IR Inten    --      3.3017                 7.2433                 5.7592

                     49                     50                     51
                      A                      A                      A
 Frequencies --   2996.2976              3004.4819              3014.8162
 Red. masses --      1.0627                 1.0615                 1.0615
 Frc consts  --      5.6213                 5.6453                 5.6843
 IR Inten    --      9.9994                10.6228                56.8007

                     52                     53                     54
                      A                      A                      A
 Frequencies --   3020.8463              3025.3678              3026.6977
 Red. masses --      1.0367                 1.0776                 1.0430
 Frc consts  --      5.5741                 5.8109                 5.6293
 IR Inten    --     33.9167                15.0741                31.4031

                     55                     56                     57
                      A                      A                      A
 Frequencies --   3027.8807              3036.3085              3060.1949
 Red. masses --      1.0462                 1.1006                 1.1035
 Frc consts  --      5.6511                 5.9780                 6.0886
 IR Inten    --     23.3485                 3.8241                60.0301

                     58                     59                     60
                      A                      A                      A
 Frequencies --   3084.6686              3090.7504              3093.6210
 Red. masses --      1.1001                 1.0998                 1.1020
 Frc consts  --      6.1674                 6.1899                 6.2139
 IR Inten    --      5.7374                56.7146                67.9671

                     61                     62                     63
                      A                      A                      A
 Frequencies --   3096.1133              3098.9637              3105.9814
 Red. masses --      1.1014                 1.1009                 1.0996
 Frc consts  --      6.2203                 6.2293                 6.2500
 IR Inten    --     44.6875                41.2775                36.8108

 - Thermochemistry -
 -------------------
 Temperature   298.150 Kelvin.  Pressure   1.00000 Atm.
 Atom     1 has atomic number  6 and mass  12.00000

 Molecular mass:   100.12520 amu.
 Principal axes and moments of inertia in atomic units:
                           1         2         3
     Eigenvalues --   296.585711823.217292002.83808
           X            0.99999  -0.00231   0.00230
           Y            0.00232   0.99999  -0.00239
           Z           -0.00230   0.00239   0.99999
 This molecule is an asymmetric top.
 Rotational symmetry number  1.
 Rotational temperatures (Kelvin)      0.29204     0.04751     0.04325
 Rotational constants (GHZ):           6.08506     0.98987     0.90109
 Zero-point vibrational energy     568215.3 (Joules/Mol)
                                  135.80672 (Kcal/Mol)
 Warning -- explicit consideration of  12 degrees of freedom as
           vibrations may cause significant error
 Vibrational temperatures:     85.04   120.70   183.07   203.30   323.70
          (Kelvin)            349.55   361.94   427.57   435.80   583.65
                              619.76   684.79  1057.55  1130.85  1186.33
                             1298.37  1314.69  1333.53  1367.89  1390.41
                             1479.43  1500.08  1538.94  1566.12  1675.85
                             1716.40  1733.97  1802.67  1841.20  1894.90
                             1916.40  1930.20  1971.49  1987.77  2010.96
                             2016.84  2032.34  2046.29  2126.08  2137.71
                             2142.36  2150.10  2157.80  2158.25  2165.46
                             2173.42  2177.65  4300.52  4311.00  4322.78
                             4337.65  4346.32  4352.83  4354.74  4356.44
                             4368.57  4402.94  4438.15  4446.90  4451.03
                             4454.62  4458.72  4468.81

 Zero-point correction=                           0.216422 (Hartree/Particle)
 Thermal correction to Energy=                    0.226159
 Thermal correction to Enthalpy=                  0.227104
 Thermal correction to Gibbs Free Energy=         0.181920
 Sum of electronic and zero-point Energies=           -276.206248
 Sum of electronic and thermal Energies=              -276.196510
 Sum of electronic and thermal Enthalpies=            -276.195566
 Sum of electronic and thermal Free Energies=         -276.240750

                     E (Thermal)             CV                S
                      KCal/Mol        Cal/Mol-Kelvin    Cal/Mol-Kelvin
 Total                  141.917             34.899             95.097
 Electronic               0.000              0.000              0.000
 Translational            0.889              2.981             39.722
 Rotational               0.889              2.981             28.473
 Vibrational            140.140             28.938             26.903
 Vibration     1          0.596              1.974              4.487
 Vibration     2          0.601              1.960              3.798
 Vibration     3          0.611              1.926              2.987
 Vibration     4          0.615              1.912              2.786
 Vibration     5          0.650              1.803              1.919
 Vibration     6          0.659              1.774              1.781
 Vibration     7          0.664              1.760              1.720
 Vibration     8          0.691              1.679              1.433
 Vibration     9          0.694              1.668              1.401
 Vibration    10          0.771              1.458              0.942
 Vibration    11          0.792              1.403              0.856
 Vibration    12          0.833              1.303              0.721

                           ! Non-Optimized Parameters !
 Normal termination of Gaussian 16 at Sun May 28 01:13:11 2023.
