 Gaussian 16, Revision A.03,
 Gaussian 16:  ES64L-G16RevA.03 25-Dec-2016

 -----------------------------
 # opt freq b3lyp/6-31g(2df,p)
 -----------------------------

 -------------------
 Title Card Required
 -------------------
 Symbolic Z-matrix:
 Charge =  0 Multiplicity = 1

 SCF Done:  E(RB3LYP) =  -630.242333549     A.U. after   11 cycles
 SCF Done:  E(RB3LYP) =  -630.253790986     A.U. after   10 cycles
 SCF Done:  E(RB3LYP) =  -630.254369551     A.U. after   10 cycles
 SCF Done:  E(RB3LYP) =  -630.257200001     A.U. after   10 cycles
 SCF Done:  E(RB3LYP) =  -630.256896822     A.U. after    9 cycles
 SCF Done:  E(RB3LYP) =  -630.258511930     A.U. after    9 cycles
 SCF Done:  E(RB3LYP) =  -630.259514896     A.U. after   10 cycles
 SCF Done:  E(RB3LYP) =  -630.259536652     A.U. after   10 cycles
 SCF Done:  E(RB3LYP) =  -630.259502583     A.U. after   10 cycles
 SCF Done:  E(RB3LYP) =  -630.259701355     A.U. after   10 cycles
 SCF Done:  E(RB3LYP) =  -630.263306992     A.U. after    9 cycles
 SCF Done:  E(RB3LYP) =  -630.263339750     A.U. after    8 cycles
 SCF Done:  E(RB3LYP) =  -630.263349241     A.U. after    8 cycles
 SCF Done:  E(RB3LYP) =  -630.263353454     A.U. after    7 cycles
 SCF Done:  E(RB3LYP) =  -630.263353155     A.U. after    6 cycles
 SCF Done:  E(RB3LYP) =  -630.263353744     A.U. after    7 cycles
 SCF Done:  E(RB3LYP) =  -630.263353691     A.U. after    6 cycles
 SCF Done:  E(RB3LYP) =  -630.263353963     A.U. after    6 cycles
 SCF Done:  E(RB3LYP) =  -630.263354032     A.U. after    6 cycles
 Optimization completed.
    -- Stationary point found.
 Normal termination of Gaussian 16 at Mon May 22 14:04:21 2023.

 ----------------------------------------------------------------------
 #N Geom=AllCheck Guess=TCheck SCRF=Check GenChk RB3LYP/6-31G(2df,p) Fr
 eq
 ----------------------------------------------------------------------

 Structure from the checkpoint file:  "CCCCCCCCCCqCCrCqCrCC.chk"
 -------------------
 Title Card Required
 -------------------
 Charge =  0 Multiplicity = 1

                         Standard orientation:
 ---------------------------------------------------------------------
 Center     Atomic      Atomic             Coordinates (Angstroms)
 Number     Number       Type             X           Y           Z
 ---------------------------------------------------------------------
      1          6           0        8.471958   -0.434975   -0.059813
      2          6           0        7.186580    0.347804    0.221866
      3          6           0        5.914095   -0.441920   -0.103317
      4          6           0        4.622563    0.333682    0.176339
      5          6           0        3.350478   -0.456044   -0.150336
      6          6           0        2.058727    0.319036    0.131297
      7          6           0        0.786761   -0.469785   -0.198174
      8          6           0       -0.505551    0.304872    0.087408
      9          6           0       -1.769153   -0.498868   -0.248514
     10          6           0       -3.103588    0.199744    0.085989
     11          6           0       -3.226296    1.563248   -0.653607
     12          6           0       -2.957662    2.792909    0.221964
     13          6           0       -4.345811   -0.695530   -0.198354
     14          6           0       -4.165428   -2.158391    0.237680
     15          6           0       -5.604325   -0.097419    0.470883
     16          6           0       -6.936182   -0.620794   -0.078353
     17          1           0        9.362068    0.154522    0.181888
     18          1           0        8.538438   -0.720117   -1.115821
     19          1           0        8.512189   -1.356220    0.532270
     20          1           0        7.190982    1.280617   -0.357716
     21          1           0        7.164910    0.649254    1.277683
     22          1           0        5.909943   -1.376266    0.475749
     23          1           0        5.935535   -0.743946   -1.160046
     24          1           0        4.628008    1.268308   -0.402065
     25          1           0        4.601615    0.634570    1.233291
     26          1           0        3.345632   -1.391345    0.426912
     27          1           0        3.370789   -0.755628   -1.207642
     28          1           0        2.064578    1.255399   -0.444246
     29          1           0        2.037539    0.616733    1.189138
     30          1           0        0.782618   -1.407858    0.374499
     31          1           0        0.806594   -0.764359   -1.256940
     32          1           0       -0.487474    1.244354   -0.478712
     33          1           0       -0.528193    0.589266    1.148992
     34          1           0       -1.709565   -1.449728    0.291569
     35          1           0       -1.758409   -0.755387   -1.318613
     36          1           0       -3.100885    0.398256    1.169403
     37          1           0       -4.227188    1.661955   -1.087599
     38          1           0       -2.541179    1.569360   -1.510625
     39          1           0       -3.677044    2.850104    1.046619
     40          1           0       -3.041720    3.718880   -0.356890
     41          1           0       -1.956906    2.766176    0.663759
     42          1           0       -4.507067   -0.689439   -1.287669
     43          1           0       -3.880222   -2.220948    1.295258
     44          1           0       -3.400895   -2.675625   -0.346817
     45          1           0       -5.096059   -2.720349    0.116336
     46          1           0       -5.596570    0.993036    0.366567
     47          1           0       -5.548631   -0.293757    1.550770
     48          1           0       -7.030510   -0.407503   -1.149199
     49          1           0       -7.782004   -0.145825    0.429154
     50          1           0       -7.043913   -1.701903    0.052986
 ---------------------------------------------------------------------

 SCF Done:  E(RB3LYP) =  -630.263354032     A.U. after    1 cycles

 The electronic state is 1-A.
 Alpha  occ. eigenvalues --  -10.17846 -10.17632 -10.17405 -10.17225 -10.17174
 Alpha  occ. eigenvalues --  -10.17166 -10.17157 -10.17155 -10.17145 -10.17137
 Alpha  occ. eigenvalues --  -10.17115 -10.16915 -10.16862 -10.16845 -10.16780
 Alpha  occ. eigenvalues --  -10.16544  -0.82154  -0.80445  -0.78621  -0.76717
 Alpha  occ. eigenvalues --   -0.74914  -0.72539  -0.70980  -0.67961  -0.65341
 Alpha  occ. eigenvalues --   -0.62445  -0.60492  -0.58361  -0.57116  -0.56788
 Alpha  occ. eigenvalues --   -0.56268  -0.54528  -0.47900  -0.46623  -0.45767
 Alpha  occ. eigenvalues --   -0.44864  -0.44169  -0.43246  -0.42405  -0.41567
 Alpha  occ. eigenvalues --   -0.41047  -0.40564  -0.39811  -0.39353  -0.38634
 Alpha  occ. eigenvalues --   -0.38083  -0.37737  -0.36682  -0.36341  -0.35315
 Alpha  occ. eigenvalues --   -0.34886  -0.34343  -0.34079  -0.33152  -0.32826
 Alpha  occ. eigenvalues --   -0.32777  -0.32102  -0.31925  -0.31663  -0.31484
 Alpha  occ. eigenvalues --   -0.31473  -0.30572  -0.30401  -0.29213  -0.28057
 Alpha virt. eigenvalues --    0.08627   0.09079   0.09670   0.10104   0.10593
 Alpha virt. eigenvalues --    0.11114   0.11788   0.12446   0.12643   0.13212
 Alpha virt. eigenvalues --    0.13833   0.14532   0.14841   0.15196   0.15482

 Mulliken charges:
               1
     1  C   -0.378929
     2  C   -0.162585
     3  C   -0.158037
     4  C   -0.177748
     5  C   -0.179925
     6  C   -0.181368
     7  C   -0.180419
     8  C   -0.191363
     9  C   -0.212027
    10  C    0.039934
    11  C   -0.182191
    12  C   -0.383034
    13  C    0.036266
    14  C   -0.411737
    15  C   -0.171609
    16  C   -0.389849
    17  H    0.109258
    18  H    0.112190
    19  H    0.112197
    20  H    0.092591
    21  H    0.092596
    22  H    0.089365
    23  H    0.089350
    24  H    0.089835
    25  H    0.089847
    26  H    0.090015
    27  H    0.089948
    28  H    0.089983
    29  H    0.089840
    30  H    0.090090
    31  H    0.089991
    32  H    0.096872
    33  H    0.089869
    34  H    0.093306
    35  H    0.086593
    36  H    0.059064
    37  H    0.091879
    38  H    0.089294
    39  H    0.113484
    40  H    0.107265
    41  H    0.118589
    42  H    0.062874
    43  H    0.109674
    44  H    0.115508
    45  H    0.108774
    46  H    0.096423
    47  H    0.088747
    48  H    0.112513
    49  H    0.109883
    50  H    0.116913
 Sum of Mulliken charges =  -0.00000

 Dipole moment (field-independent basis, Debye):
    X=             -0.0125    Y=              0.0246    Z=             -0.0196  Tot=              0.0339
 Quadrupole moment (field-independent basis, Debye-Ang):
   XX=           -109.7933   YY=           -108.8194   ZZ=           -106.5477
   XY=              0.1098   XZ=              0.0552   YZ=             -0.7961

  Exact polarizability: 228.956   1.308 165.528  -0.554   0.383 146.596
 Approx polarizability: 243.098   0.111 238.814  -0.387  -1.163 239.748

                      1                      2                      3
                      A                      A                      A
 Frequencies --     20.0787                28.9929                31.1243
 Red. masses --      3.5904                 2.4751                 2.0577
 Frc consts  --      0.0009                 0.0012                 0.0012
 IR Inten    --      0.0009                 0.0013                 0.0009

                      4                      5                      6
                      A                      A                      A
 Frequencies --     46.2626                60.5055                73.9372
 Red. masses --      3.1633                 2.1981                 2.6963
 Frc consts  --      0.0040                 0.0047                 0.0087
 IR Inten    --      0.0021                 0.0020                 0.0031

                      7                      8                      9
                      A                      A                      A
 Frequencies --     78.9769                93.0950                95.6446
 Red. masses --      2.4409                 2.0603                 2.0203
 Frc consts  --      0.0090                 0.0105                 0.0109
 IR Inten    --      0.0034                 0.0026                 0.0058

                     10                     11                     12
                      A                      A                      A
 Frequencies --    120.2500               142.2882               155.9702
 Red. masses --      2.5548                 1.7608                 2.8859
 Frc consts  --      0.0218                 0.0210                 0.0414
 IR Inten    --      0.0036                 0.0208                 0.0029

                     13                     14                     15
                      A                      A                      A
 Frequencies --    162.5993               168.7520               173.8582
 Red. masses --      2.3282                 3.1121                 1.9687
 Frc consts  --      0.0363                 0.0522                 0.0351
 IR Inten    --      0.0060                 0.0015                 0.0239

                     16                     17                     18
                      A                      A                      A
 Frequencies --    207.2944               228.8174               245.8506
 Red. masses --      1.1858                 1.1267                 2.5736
 Frc consts  --      0.0300                 0.0348                 0.0917
 IR Inten    --      0.0194                 0.0030                 0.0676

                     19                     20                     21
                      A                      A                      A
 Frequencies --    247.9086               251.5829               302.7296
 Red. masses --      1.1227                 1.3013                 2.3449
 Frc consts  --      0.0407                 0.0485                 0.1266
 IR Inten    --      0.0007                 0.0337                 0.0214

                     22                     23                     24
                      A                      A                      A
 Frequencies --    308.0324               331.1936               340.2835
 Red. masses --      2.0989                 3.0492                 2.6682
 Frc consts  --      0.1173                 0.1971                 0.1820
 IR Inten    --      0.0562                 0.0331                 0.1973

                     25                     26                     27
                      A                      A                      A
 Frequencies --    374.0963               383.5438               447.1541
 Red. masses --      2.4112                 2.6801                 2.4801
 Frc consts  --      0.1988                 0.2323                 0.2922
 IR Inten    --      0.2073                 0.0038                 0.0534

                     28                     29                     30
                      A                      A                      A
 Frequencies --    466.7465               475.5037               526.1540
 Red. masses --      3.0225                 2.6176                 2.6295
 Frc consts  --      0.3880                 0.3487                 0.4289
 IR Inten    --      0.0062                 0.0109                 0.0811

                     31                     32                     33
                      A                      A                      A
 Frequencies --    542.6195               731.1141               733.8120
 Red. masses --      2.4356                 1.0593                 1.0728
 Frc consts  --      0.4225                 0.3336                 0.3404
 IR Inten    --      0.2505                 4.9456                 0.1305

                     34                     35                     36
                      A                      A                      A
 Frequencies --    744.7940               763.9073               772.9451
 Red. masses --      1.1115                 1.2329                 1.2309
 Frc consts  --      0.3633                 0.4239                 0.4333
 IR Inten    --      1.1932                 2.0760                 1.1374

                     37                     38                     39
                      A                      A                      A
 Frequencies --    775.8828               812.0133               840.4912
 Red. masses --      1.2033                 1.4257                 1.8742
 Frc consts  --      0.4268                 0.5539                 0.7800
 IR Inten    --      3.4622                 0.2946                 0.3409

                     40                     41                     42
                      A                      A                      A
 Frequencies --    848.9695               897.5150               898.6476
 Red. masses --      1.5046                 1.9053                 1.3612
 Frc consts  --      0.6389                 0.9043                 0.6477
 IR Inten    --      0.9176                 1.1009                 0.9206

                     43                     44                     45
                      A                      A                      A
 Frequencies --    925.2121               967.4053               978.9565
 Red. masses --      1.8103                 1.2801                 3.1826
 Frc consts  --      0.9130                 0.7058                 1.7971
 IR Inten    --      0.5787                 0.8483                 0.8459

                     46                     47                     48
                      A                      A                      A
 Frequencies --    980.6119               994.0239              1008.3555
 Red. masses --      1.2067                 2.7937                 2.7339
 Frc consts  --      0.6837                 1.6264                 1.6378
 IR Inten    --      1.8718                 0.9987                 0.5609

                     49                     50                     51
                      A                      A                      A
 Frequencies --   1011.4256              1028.3488              1037.8575
 Red. masses --      2.5070                 1.1910                 2.7448
 Frc consts  --      1.5110                 0.7421                 1.7420
 IR Inten    --      2.4492                 0.1286                 0.2143

                     52                     53                     54
                      A                      A                      A
 Frequencies --   1040.4752              1054.9665              1060.1205
 Red. masses --      2.5057                 2.0632                 2.2099
 Frc consts  --      1.5982                 1.3529                 1.4633
 IR Inten    --      0.6035                 0.9352                 0.3300

                     55                     56                     57
                      A                      A                      A
 Frequencies --   1063.4013              1070.3521              1071.6999
 Red. masses --      2.4802                 2.1605                 1.4437
 Frc consts  --      1.6524                 1.4583                 0.9770
 IR Inten    --      0.1690                 0.0031                 0.0367

                     58                     59                     60
                      A                      A                      A
 Frequencies --   1073.8794              1093.6184              1132.4210
 Red. masses --      1.8240                 2.1348                 2.1817
 Frc consts  --      1.2393                 1.5043                 1.6484
 IR Inten    --      0.3394                 0.3414                 0.5195

                     61                     62                     63
                      A                      A                      A
 Frequencies --   1156.0899              1174.2108              1176.2042
 Red. masses --      2.5872                 2.0705                 2.0361
 Frc consts  --      2.0374                 1.6819                 1.6596
 IR Inten    --      1.3540                 5.8519                 0.6395

                     64                     65                     66
                      A                      A                      A
 Frequencies --   1191.9019              1216.2458              1230.9221
 Red. masses --      1.9474                 1.7839                 1.3023
 Frc consts  --      1.6300                 1.5548                 1.1626
 IR Inten    --      0.0844                 0.4926                 7.3467

                     67                     68                     69
                      A                      A                      A
 Frequencies --   1248.6854              1262.5549              1278.2530
 Red. masses --      1.4652                 1.3348                 1.3237
 Frc consts  --      1.3460                 1.2536                 1.2743
 IR Inten    --      0.2744                 0.5361                 3.4979

                     70                     71                     72
                      A                      A                      A
 Frequencies --   1284.0443              1302.1247              1303.6380
 Red. masses --      1.3166                 1.2080                 1.2195
 Frc consts  --      1.2789                 1.2068                 1.2211
 IR Inten    --      0.8546                 1.6453                 0.8089

                     73                     74                     75
                      A                      A                      A
 Frequencies --   1312.8358              1319.8379              1324.5721
 Red. masses --      1.2576                 1.1989                 1.0326
 Frc consts  --      1.2771                 1.2305                 1.0674
 IR Inten    --      0.5979                 0.6421                 0.1611

                     76                     77                     78
                      A                      A                      A
 Frequencies --   1329.5830              1335.3840              1338.9391
 Red. masses --      1.1323                 1.0894                 1.1164
 Frc consts  --      1.1794                 1.1446                 1.1792
 IR Inten    --      0.2206                 0.3677                 0.1610

                     79                     80                     81
                      A                      A                      A
 Frequencies --   1345.1558              1348.4119              1365.6227
 Red. masses --      1.2495                 1.2123                 1.3566
 Frc consts  --      1.3321                 1.2987                 1.4906
 IR Inten    --      1.4935                 4.0778                 2.0811

                     82                     83                     84
                      A                      A                      A
 Frequencies --   1371.2769              1378.6310              1383.2672
 Red. masses --      1.3581                 1.4248                 1.4136
 Frc consts  --      1.5046                 1.5955                 1.5936
 IR Inten    --      0.9003                 1.1359                 1.2713

                     85                     86                     87
                      A                      A                      A
 Frequencies --   1391.4667              1399.1233              1402.1922
 Red. masses --      1.4709                 1.5938                 1.5775
 Frc consts  --      1.6779                 1.8383                 1.8274
 IR Inten    --      0.1782                 0.6625                 1.8087

                     88                     89                     90
                      A                      A                      A
 Frequencies --   1403.1179              1407.8706              1412.1867
 Red. masses --      1.5477                 1.2689                 1.2364
 Frc consts  --      1.7952                 1.4818                 1.4527
 IR Inten    --      0.9219                 2.4274                 2.9169

                     91                     92                     93
                      A                      A                      A
 Frequencies --   1413.2535              1416.6304              1478.6529
 Red. masses --      1.2611                 1.2184                 1.0752
 Frc consts  --      1.4840                 1.4406                 1.3851
 IR Inten    --      0.7116                 1.2146                 0.7819

                     94                     95                     96
                      A                      A                      A
 Frequencies --   1481.2021              1481.5371              1483.2635
 Red. masses --      1.0732                 1.0691                 1.0719
 Frc consts  --      1.3873                 1.3826                 1.3894
 IR Inten    --      0.0525                 0.8293                 0.6717

                     97                     98                     99
                      A                      A                      A
 Frequencies --   1484.5170              1489.1869              1495.2786
 Red. masses --      1.0701                 1.0780                 1.0444
 Frc consts  --      1.3894                 1.4086                 1.3759
 IR Inten    --      0.1980                 0.5691                 1.8629

                    100                    101                    102
                      A                      A                      A
 Frequencies --   1496.0730              1498.0043              1499.7691
 Red. masses --      1.0691                 1.0540                 1.0464
 Frc consts  --      1.4099                 1.3935                 1.3867
 IR Inten    --      0.2925                 0.1953                 2.2657

                    103                    104                    105
                      A                      A                      A
 Frequencies --   1499.8728              1501.7352              1505.3588
 Red. masses --      1.0404                 1.0539                 1.0814
 Frc consts  --      1.3790                 1.4003                 1.4438
 IR Inten    --      4.7252                 2.5161                 1.4494

                    106                    107                    108
                      A                      A                      A
 Frequencies --   1506.8897              1511.2740              1514.8859
 Red. masses --      1.0586                 1.0843                 1.0806
 Frc consts  --      1.4162                 1.4590                 1.4611
 IR Inten    --      5.6676                 0.3279                 4.6147

                    109                    110                    111
                      A                      A                      A
 Frequencies --   1517.0699              1518.0339              2971.1342
 Red. masses --      1.0931                 1.0631                 1.0795
 Frc consts  --      1.4822                 1.4434                 5.6144
 IR Inten    --      3.7431                 4.8420                 0.7533

                    112                    113                    114
                      A                      A                      A
 Frequencies --   2983.6606              2996.4451              2997.6809
 Red. masses --      1.0813                 1.0620                 1.0585
 Frc consts  --      5.6713                 5.6180                 5.6040
 IR Inten    --     13.2009                 3.9818                 0.5755

                    115                    116                    117
                      A                      A                      A
 Frequencies --   2997.8548              3000.1583              3002.0845
 Red. masses --      1.0609                 1.0589                 1.0595
 Frc consts  --      5.6176                 5.6155                 5.6258
 IR Inten    --      2.3514                 1.7763                 1.5900

                    118                    119                    120
                      A                      A                      A
 Frequencies --   3008.3073              3013.4082              3014.5903
 Red. masses --      1.0613                 1.0630                 1.0660
 Frc consts  --      5.6591                 5.6874                 5.7078
 IR Inten    --      1.0950                 7.0305                26.9188

                    121                    122                    123
                      A                      A                      A
 Frequencies --   3016.7614              3017.5564              3020.2921
 Red. masses --      1.0620                 1.0962                 1.0970
 Frc consts  --      5.6947                 5.8808                 5.8960
 IR Inten    --    178.6622                 8.0375                 6.4764

                    124                    125                    126
                      A                      A                      A
 Frequencies --   3026.0966              3027.3522              3027.5768
 Red. masses --      1.0697                 1.0930                 1.0357
 Frc consts  --      5.7715                 5.9020                 5.5932
 IR Inten    --     26.5976                 2.1625                43.3196

                    127                    128                    129
                      A                      A                      A
 Frequencies --   3029.0544              3030.2782              3031.8123
 Red. masses --      1.0406                 1.0370                 1.0380
 Frc consts  --      5.6252                 5.6103                 5.6213
 IR Inten    --     28.3674                45.9622                24.3182

                    130                    131                    132
                      A                      A                      A
 Frequencies --   3036.9847              3046.7766              3053.2680
 Red. masses --      1.1003                 1.1004                 1.0975
 Frc consts  --      5.9795                 6.0182                 6.0279
 IR Inten    --      1.2936                 0.1541                19.5472

                    133                    134                    135
                      A                      A                      A
 Frequencies --   3054.6282              3062.3235              3062.7204
 Red. masses --      1.1018                 1.0948                 1.1026
 Frc consts  --      6.0573                 6.0491                 6.0935
 IR Inten    --      2.8141                16.0560               104.4913

                    136                    137                    138
                      A                      A                      A
 Frequencies --   3073.8888              3093.5614              3093.6752
 Red. masses --      1.0995                 1.1012                 1.1020
 Frc consts  --      6.1210                 6.2094                 6.2140
 IR Inten    --    109.7148                29.4888                76.7159

                    139                    140                    141
                      A                      A                      A
 Frequencies --   3095.1515              3095.5099              3098.9607
 Red. masses --      1.0973                 1.1006                 1.1009
 Frc consts  --      6.1937                 6.2136                 6.2294
 IR Inten    --     39.9645                35.4081                40.2421

                    142                    143                    144
                      A                      A                      A
 Frequencies --   3104.9770              3106.7581              3115.6757
 Red. masses --      1.0989                 1.1003                 1.0995
 Frc consts  --      6.2420                 6.2573                 6.2885
 IR Inten    --     42.7700                56.6697                32.0106

 - Thermochemistry -
 -------------------
 Temperature   298.150 Kelvin.  Pressure   1.00000 Atm.
 Atom     1 has atomic number  6 and mass  12.00000

 Molecular mass:   226.26605 amu.
 Principal axes and moments of inertia in atomic units:
                           1         2         3
     Eigenvalues --  1177.47228********************
           X            1.00000  -0.00022  -0.00031
           Y            0.00022   0.99999   0.00472
           Z            0.00031  -0.00472   0.99999
 This molecule is an asymmetric top.
 Rotational symmetry number  1.
 Warning -- assumption of classical behavior for rotation
           may cause significant error
 Rotational temperatures (Kelvin)      0.07356     0.00483     0.00461
 Rotational constants (GHZ):           1.53273     0.10074     0.09603
 Zero-point vibrational energy    1238965.6 (Joules/Mol)
                                  296.11988 (Kcal/Mol)
 Warning -- explicit consideration of  31 degrees of freedom as
           vibrations may cause significant error
 Vibrational temperatures:     28.89    41.71    44.78    66.56    87.05
          (Kelvin)            106.38   113.63   133.94   137.61   173.01
                              204.72   224.41   233.94   242.80   250.14
                              298.25   329.22   353.72   356.69   361.97
                              435.56   443.19   476.51   489.59   538.24
                              551.83   643.36   671.54   684.14   757.02
                              780.71  1051.91  1055.79  1071.59  1099.09
                             1112.10  1116.32  1168.31  1209.28  1221.48
                             1291.32  1292.95  1331.17  1391.88  1408.50
                             1410.88  1430.18  1450.80  1455.22  1479.56
                             1493.25  1497.01  1517.86  1525.28  1530.00
                             1540.00  1541.94  1545.07  1573.47  1629.30
                             1663.36  1689.43  1692.30  1714.88  1749.91
                             1771.02  1796.58  1816.53  1839.12  1847.45
                             1873.47  1875.64  1888.88  1898.95  1905.76
                             1912.97  1921.32  1926.43  1935.38  1940.06
                             1964.83  1972.96  1983.54  1990.21  2002.01
                             2013.03  2017.44  2018.77  2025.61  2031.82
                             2033.36  2038.22  2127.45  2131.12  2131.60
                             2134.09  2135.89  2142.61  2151.37  2152.52
                             2155.29  2157.83  2157.98  2160.66  2165.88
                             2168.08  2174.39  2179.58  2182.73  2184.11
                             4274.80  4292.82  4311.22  4312.99  4313.24
                             4316.56  4319.33  4328.28  4335.62  4337.32
                             4340.45  4341.59  4345.53  4353.88  4355.68
                             4356.01  4358.13  4359.89  4362.10  4369.54
                             4383.63  4392.97  4394.93  4406.00  4406.57
                             4422.64  4450.94  4451.11  4453.23  4453.75
                             4458.71  4467.37  4469.93  4482.76

 Zero-point correction=                           0.471897 (Hartree/Particle)
 Thermal correction to Energy=                    0.493754
 Thermal correction to Enthalpy=                  0.494698
 Thermal correction to Gibbs Free Energy=         0.418709
 Sum of electronic and zero-point Energies=           -629.791457
 Sum of electronic and thermal Energies=              -629.769600
 Sum of electronic and thermal Enthalpies=            -629.768656
 Sum of electronic and thermal Free Energies=         -629.844645

                     E (Thermal)             CV                S
                      KCal/Mol        Cal/Mol-Kelvin    Cal/Mol-Kelvin
 Total                  309.835             79.259            159.933
 Electronic               0.000              0.000              0.000
 Translational            0.889              2.981             42.152
 Rotational               0.889              2.981             34.338
 Vibrational            308.058             73.298             83.444
 Vibration     1          0.593              1.986              6.626
 Vibration     2          0.593              1.984              5.897
 Vibration     3          0.594              1.983              5.756
 Vibration     4          0.595              1.979              4.971
 Vibration     5          0.597              1.973              4.441
 Vibration     6          0.599              1.966              4.046
 Vibration     7          0.600              1.963              3.916
 Vibration     8          0.602              1.954              3.594
 Vibration     9          0.603              1.952              3.541
 Vibration    10          0.609              1.932              3.096
 Vibration    11          0.616              1.911              2.773
 Vibration    12          0.620              1.896              2.598
 Vibration    13          0.623              1.888              2.519
 Vibration    14          0.625              1.881              2.449
 Vibration    15          0.627              1.875              2.393
 Vibration    16          0.641              1.829              2.067
 Vibration    17          0.651              1.797              1.888
 Vibration    18          0.660              1.770              1.760
 Vibration    19          0.662              1.766              1.745
 Vibration    20          0.664              1.760              1.719
 Vibration    21          0.694              1.669              1.402
 Vibration    22          0.698              1.658              1.373
 Vibration    23          0.714              1.613              1.254
 Vibration    24          0.720              1.595              1.211
 Vibration    25          0.745              1.525              1.063
 Vibration    26          0.753              1.505              1.025
 Vibration    27          0.806              1.367              0.804
 Vibration    28          0.824              1.324              0.747
 Vibration    29          0.832              1.304              0.722
 Vibration    30          0.881              1.192              0.596
 Vibration    31          0.898              1.156              0.560

                           ! Non-Optimized Parameters !
 Normal termination of Gaussian 16 at Mon May 22 18:12:42 2023.
