 Gaussian 16, Revision A.03,
 Gaussian 16:  ES64L-G16RevA.03 25-Dec-2016

 -----------------------------
 # opt freq b3lyp/6-31g(2df,p)
 -----------------------------

 -------------------
 Title Card Required
 -------------------
 Symbolic Z-matrix:
 Charge =  0 Multiplicity = 1

 SCF Done:  E(RB3LYP) =  -355.052942824     A.U. after   11 cycles
 SCF Done:  E(RB3LYP) =  -355.055938971     A.U. after   10 cycles
 SCF Done:  E(RB3LYP) =  -355.056354228     A.U. after    8 cycles
 SCF Done:  E(RB3LYP) =  -355.056387200     A.U. after    8 cycles
 SCF Done:  E(RB3LYP) =  -355.056391924     A.U. after    8 cycles
 SCF Done:  E(RB3LYP) =  -355.056392760     A.U. after    6 cycles
 SCF Done:  E(RB3LYP) =  -355.056392827     A.U. after    5 cycles
 Optimization completed.
    -- Stationary point found.
 Normal termination of Gaussian 16 at Sun May 28 04:19:44 2023.

 ----------------------------------------------------------------------
 #N Geom=AllCheck Guess=TCheck SCRF=Check GenChk RB3LYP/6-31G(2df,p) Fr
 eq
 ----------------------------------------------------------------------

 Structure from the checkpoint file:  "CCCCCCCqCrC.chk"
 -------------------
 Title Card Required
 -------------------
 Charge =  0 Multiplicity = 1

                         Standard orientation:
 ---------------------------------------------------------------------
 Center     Atomic      Atomic             Coordinates (Angstroms)
 Number     Number       Type             X           Y           Z
 ---------------------------------------------------------------------
      1          6           0       -4.853570    0.323828   -0.125558
      2          6           0       -3.584778   -0.444407    0.254211
      3          6           0       -2.296493    0.264967   -0.176744
      4          6           0       -1.021704   -0.497574    0.198920
      5          6           0        0.266807    0.212824   -0.231792
      6          6           0        1.535880   -0.558520    0.149776
      7          6           0        2.857183    0.063416   -0.339192
      8          6           0        3.131470    1.435533    0.292978
      9          6           0        4.029934   -0.891714   -0.077678
     10          1           0       -5.755431   -0.207137    0.195281
     11          1           0       -4.919947    0.467118   -1.209965
     12          1           0       -4.869153    1.316472    0.338439
     13          1           0       -3.613972   -1.445683   -0.195983
     14          1           0       -3.563710   -0.603138    1.340696
     15          1           0       -2.267155    1.267297    0.273634
     16          1           0       -2.317626    0.425099   -1.264077
     17          1           0       -1.052072   -1.499824   -0.251256
     18          1           0       -1.001649   -0.657298    1.286232
     19          1           0        0.285953    1.214986    0.214804
     20          1           0        0.249259    0.365969   -1.320296
     21          1           0        1.460421   -1.577470   -0.254396
     22          1           0        1.578519   -0.672115    1.243175
     23          1           0        2.775126    0.203928   -1.427294
     24          1           0        3.195744    1.354724    1.385198
     25          1           0        2.348470    2.162241    0.058241
     26          1           0        4.081270    1.847914   -0.063785
     27          1           0        4.155713   -1.071474    0.997024
     28          1           0        4.971490   -0.479457   -0.455794
     29          1           0        3.870372   -1.862267   -0.559405
 ---------------------------------------------------------------------

 SCF Done:  E(RB3LYP) =  -355.056392827     A.U. after    1 cycles

 The electronic state is 1-A.
 Alpha  occ. eigenvalues --  -10.18083 -10.17421 -10.17197 -10.17173 -10.17150
 Alpha  occ. eigenvalues --  -10.17047 -10.16858 -10.16661 -10.16652  -0.81000
 Alpha  occ. eigenvalues --   -0.78957  -0.75028  -0.69582  -0.67601  -0.63491
 Alpha  occ. eigenvalues --   -0.58254  -0.57005  -0.54970  -0.47504  -0.45568
 Alpha  occ. eigenvalues --   -0.43465  -0.43269  -0.42043  -0.40734  -0.39382
 Alpha  occ. eigenvalues --   -0.38414  -0.37662  -0.36227  -0.34934  -0.34561
 Alpha  occ. eigenvalues --   -0.33758  -0.32620  -0.32174  -0.31563  -0.31276
 Alpha  occ. eigenvalues --   -0.30980  -0.29288
 Alpha virt. eigenvalues --    0.08604   0.09463   0.11330   0.11514   0.12155
 Alpha virt. eigenvalues --    0.14042   0.14556   0.14972   0.15517   0.16623
 Alpha virt. eigenvalues --    0.16762   0.17534   0.18552   0.19292   0.19600

 Mulliken charges:
               1
     1  C   -0.378939
     2  C   -0.162555
     3  C   -0.158987
     4  C   -0.176256
     5  C   -0.190914
     6  C   -0.164251
     7  C    0.043478
     8  C   -0.379714
     9  C   -0.387582
    10  H    0.109329
    11  H    0.112208
    12  H    0.112217
    13  H    0.092672
    14  H    0.092679
    15  H    0.089409
    16  H    0.089355
    17  H    0.089817
    18  H    0.090243
    19  H    0.094821
    20  H    0.089166
    21  H    0.085900
    22  H    0.086596
    23  H    0.067996
    24  H    0.108639
    25  H    0.113234
    26  H    0.107655
    27  H    0.109754
    28  H    0.106668
    29  H    0.107363
 Sum of Mulliken charges =  -0.00000

 Dipole moment (field-independent basis, Debye):
    X=             -0.0227    Y=             -0.0171    Z=             -0.0505  Tot=              0.0580
 Quadrupole moment (field-independent basis, Debye-Ang):
   XX=            -62.7224   YY=            -61.6907   ZZ=            -60.5749
   XY=              0.3998   XZ=             -0.3552   YZ=              0.3878

  Exact polarizability: 125.204  -0.580  92.435  -0.035  -0.101  86.731
 Approx polarizability: 136.498   0.594 134.234  -0.169   0.455 135.186

                      1                      2                      3
                      A                      A                      A
 Frequencies --     43.6884                49.8011                74.7395
 Red. masses --      2.0843                 2.2603                 3.1675
 Frc consts  --      0.0023                 0.0033                 0.0104
 IR Inten    --      0.0055                 0.0031                 0.0041

                      4                      5                      6
                      A                      A                      A
 Frequencies --    104.0025               127.8299               156.7630
 Red. masses --      1.9937                 1.8792                 1.9355
 Frc consts  --      0.0127                 0.0181                 0.0280
 IR Inten    --      0.0077                 0.0046                 0.0053

                      7                      8                      9
                      A                      A                      A
 Frequencies --    191.7695               226.5035               239.5594
 Red. masses --      2.6684                 1.0788                 2.4247
 Frc consts  --      0.0578                 0.0326                 0.0820
 IR Inten    --      0.0017                 0.0204                 0.0001

                     10                     11                     12
                      A                      A                      A
 Frequencies --    246.8442               256.5157               330.4657
 Red. masses --      1.1296                 1.2601                 2.6614
 Frc consts  --      0.0406                 0.0489                 0.1712
 IR Inten    --      0.0013                 0.0028                 0.0385

                     13                     14                     15
                      A                      A                      A
 Frequencies --    384.4008               412.4888               476.2362
 Red. masses --      2.2979                 2.0757                 2.4186
 Frc consts  --      0.2001                 0.2081                 0.3232
 IR Inten    --      0.0153                 0.1201                 0.0563

                     16                     17                     18
                      A                      A                      A
 Frequencies --    483.0094               731.4372               742.3563
 Red. masses --      2.9623                 1.0642                 1.1101
 Frc consts  --      0.4072                 0.3355                 0.3604
 IR Inten    --      0.4235                 4.0766                 0.0491

                     19                     20                     21
                      A                      A                      A
 Frequencies --    789.0097               824.3023               879.8473
 Red. masses --      1.2519                 2.3254                 1.2482
 Frc consts  --      0.4592                 0.9309                 0.5693
 IR Inten    --      0.9420                 0.2350                 0.8542

                     22                     23                     24
                      A                      A                      A
 Frequencies --    897.8271               926.9071               946.6987
 Red. masses --      1.9316                 1.1950                 1.8214
 Frc consts  --      0.9174                 0.6049                 0.9618
 IR Inten    --      1.1871                 0.9246                 0.5978

                     25                     26                     27
                      A                      A                      A
 Frequencies --    964.5018               981.0276              1011.0705
 Red. masses --      1.4106                 1.3676                 3.2831
 Frc consts  --      0.7732                 0.7755                 1.9774
 IR Inten    --      0.1060                 0.0763                 0.0360

                     28                     29                     30
                      A                      A                      A
 Frequencies --   1032.6820              1050.9534              1063.6904
 Red. masses --      2.9902                 1.2385                 2.4217
 Frc consts  --      1.8788                 0.8060                 1.6144
 IR Inten    --      1.0044                 0.2899                 0.1139

                     31                     32                     33
                      A                      A                      A
 Frequencies --   1071.6281              1111.0445              1159.9494
 Red. masses --      2.2032                 1.9394                 2.5418
 Frc consts  --      1.4907                 1.4105                 2.0150
 IR Inten    --      0.0648                 1.5957                 1.0448

                     34                     35                     36
                      A                      A                      A
 Frequencies --   1192.8183              1205.1056              1233.0769
 Red. masses --      1.7668                 2.0070                 1.5777
 Frc consts  --      1.4811                 1.7173                 1.4134
 IR Inten    --      4.0732                 0.1155                 0.7331

                     37                     38                     39
                      A                      A                      A
 Frequencies --   1253.0323              1283.7339              1307.5682
 Red. masses --      1.3037                 1.3350                 1.2832
 Frc consts  --      1.2060                 1.2962                 1.2926
 IR Inten    --      6.2284                 0.8685                 0.2633

                     40                     41                     42
                      A                      A                      A
 Frequencies --   1321.5277              1329.4058              1336.7645
 Red. masses --      1.1544                 1.0692                 1.1040
 Frc consts  --      1.1878                 1.1133                 1.1623
 IR Inten    --      0.3969                 0.5022                 0.2881

                     43                     44                     45
                      A                      A                      A
 Frequencies --   1347.7529              1370.4276              1379.6730
 Red. masses --      1.3390                 1.3332                 1.4415
 Frc consts  --      1.4331                 1.4752                 1.6167
 IR Inten    --      3.6866                 3.9584                 0.5023

                     46                     47                     48
                      A                      A                      A
 Frequencies --   1397.8372              1399.5584              1402.1734
 Red. masses --      1.5119                 1.4905                 1.3790
 Frc consts  --      1.7406                 1.7201                 1.5974
 IR Inten    --      1.9615                 1.5675                 3.0929

                     49                     50                     51
                      A                      A                      A
 Frequencies --   1413.0699              1422.1040              1477.3321
 Red. masses --      1.2550                 1.2454                 1.0746
 Frc consts  --      1.4764                 1.4839                 1.3818
 IR Inten    --      0.4437                 2.7300                 0.2670

                     52                     53                     54
                      A                      A                      A
 Frequencies --   1482.9429              1485.0923              1489.1686
 Red. masses --      1.0715                 1.0702                 1.0455
 Frc consts  --      1.3883                 1.3907                 1.3660
 IR Inten    --      0.0411                 0.1489                 0.6864

                     55                     56                     57
                      A                      A                      A
 Frequencies --   1493.7134              1497.1775              1499.6691
 Red. masses --      1.0614                 1.0705                 1.0403
 Frc consts  --      1.3953                 1.4137                 1.3785
 IR Inten    --      0.6973                 0.8879                 4.8983

                     58                     59                     60
                      A                      A                      A
 Frequencies --   1505.1318              1506.5148              1511.5472
 Red. masses --      1.0551                 1.0823                 1.0547
 Frc consts  --      1.4083                 1.4472                 1.4197
 IR Inten    --      2.6685                 1.1405                 5.2805

                     61                     62                     63
                      A                      A                      A
 Frequencies --   1515.1848              2989.2395              2995.9720
 Red. masses --      1.0919                 1.0771                 1.0621
 Frc consts  --      1.4770                 5.6703                 5.6171
 IR Inten    --      5.2251                 5.6044                10.4934

                     64                     65                     66
                      A                      A                      A
 Frequencies --   2998.9117              3000.7286              3009.9553
 Red. masses --      1.0584                 1.0594                 1.0631
 Frc consts  --      5.6081                 5.6203                 5.6750
 IR Inten    --      1.3455                 0.9512                17.1875

                     67                     68                     69
                      A                      A                      A
 Frequencies --   3015.8677              3019.5848              3020.9623
 Red. masses --      1.0620                 1.0929                 1.0388
 Frc consts  --      5.6912                 5.8709                 5.5857
 IR Inten    --     96.4653                 3.7350                37.5411

                     70                     71                     72
                      A                      A                      A
 Frequencies --   3026.0115              3027.1445              3027.6145
 Red. masses --      1.0655                 1.0595                 1.0420
 Frc consts  --      5.7483                 5.7204                 5.6275
 IR Inten    --     28.0251                18.2333                30.0311

                     73                     74                     75
                      A                      A                      A
 Frequencies --   3034.1188              3051.0163              3064.2689
 Red. masses --      1.1022                 1.1038                 1.1042
 Frc consts  --      5.9783                 6.0537                 6.1088
 IR Inten    --      3.8641                 2.7486               115.8517

                     76                     77                     78
                      A                      A                      A
 Frequencies --   3084.7404              3090.8583              3093.6135
 Red. masses --      1.1002                 1.0998                 1.1020
 Frc consts  --      6.1681                 6.1904                 6.2140
 IR Inten    --      6.0148                65.1332                63.3802

                     79                     80                     81
                      A                      A                      A
 Frequencies --   3095.9783              3098.9402              3105.9388
 Red. masses --      1.1014                 1.1009                 1.0996
 Frc consts  --      6.2198                 6.2293                 6.2498
 IR Inten    --     45.0943                39.9857                38.3251

 - Thermochemistry -
 -------------------
 Temperature   298.150 Kelvin.  Pressure   1.00000 Atm.
 Atom     1 has atomic number  6 and mass  12.00000

 Molecular mass:   128.15650 amu.
 Principal axes and moments of inertia in atomic units:
                           1         2         3
     Eigenvalues --   341.380204272.471354463.50629
           X            1.00000  -0.00109   0.00153
           Y            0.00110   0.99999  -0.00400
           Z           -0.00152   0.00401   0.99999
 This molecule is an asymmetric top.
 Rotational symmetry number  1.
 Rotational temperatures (Kelvin)      0.25372     0.02027     0.01940
 Rotational constants (GHZ):           5.28660     0.42241     0.40433
 Zero-point vibrational energy     717162.0 (Joules/Mol)
                                  171.40583 (Kcal/Mol)
 Warning -- explicit consideration of  16 degrees of freedom as
           vibrations may cause significant error
 Vibrational temperatures:     62.86    71.65   107.53   149.64   183.92
          (Kelvin)            225.55   275.91   325.89   344.67   355.15
                              369.07   475.47   553.07   593.48   685.20
                              694.94  1052.38  1068.09  1135.21  1185.99
                             1265.90  1291.77  1333.61  1362.09  1387.70
                             1411.48  1454.70  1485.80  1512.09  1530.41
                             1541.83  1598.55  1668.91  1716.20  1733.88
                             1774.12  1802.83  1847.01  1881.30  1901.38
                             1912.72  1923.31  1939.12  1971.74  1985.04
                             2011.18  2013.65  2017.41  2033.09  2046.09
                             2125.55  2133.62  2136.72  2142.58  2149.12
                             2154.10  2157.69  2165.55  2167.54  2174.78
                             2180.01  4300.85  4310.54  4314.77  4317.38
                             4330.65  4339.16  4344.51  4346.49  4353.76
                             4355.39  4356.06  4365.42  4389.73  4408.80
                             4438.25  4447.06  4451.02  4454.42  4458.68
                             4468.75

 Zero-point correction=                           0.273153 (Hartree/Particle)
 Thermal correction to Energy=                    0.285611
 Thermal correction to Enthalpy=                  0.286556
 Thermal correction to Gibbs Free Energy=         0.234143
 Sum of electronic and zero-point Energies=           -354.783240
 Sum of electronic and thermal Energies=              -354.770781
 Sum of electronic and thermal Enthalpies=            -354.769837
 Sum of electronic and thermal Free Energies=         -354.822249

                     E (Thermal)             CV                S
                      KCal/Mol        Cal/Mol-Kelvin    Cal/Mol-Kelvin
 Total                  179.224             44.644            110.311
 Electronic               0.000              0.000              0.000
 Translational            0.889              2.981             40.457
 Rotational               0.889              2.981             30.255
 Vibrational            177.446             38.682             39.598
 Vibration     1          0.595              1.980              5.084
 Vibration     2          0.595              1.978              4.825
 Vibration     3          0.599              1.966              4.024
 Vibration     4          0.605              1.946              3.378
 Vibration     5          0.611              1.925              2.978
 Vibration     6          0.620              1.895              2.588
 Vibration     7          0.634              1.851              2.211
 Vibration     8          0.650              1.801              1.906
 Vibration     9          0.657              1.780              1.806
 Vibration    10          0.661              1.768              1.753
 Vibration    11          0.666              1.752              1.685
 Vibration    12          0.713              1.615              1.258
 Vibration    13          0.753              1.503              1.022
 Vibration    14          0.776              1.443              0.918
 Vibration    15          0.833              1.303              0.720
 Vibration    16          0.839              1.288              0.702

 Optimization completed.
    -- Stationary point found.
 Normal termination of Gaussian 16 at Sun May 28 04:58:56 2023.
