 Gaussian 16, Revision A.03,
 Gaussian 16:  ES64L-G16RevA.03 25-Dec-2016

 -----------------------------
 # opt freq b3lyp/6-31g(2df,p)
 -----------------------------

 -------------------
 Title Card Required
 -------------------
 Symbolic Z-matrix:
 Charge =  0 Multiplicity = 1

 SCF Done:  E(RB3LYP) =  -674.859010461     A.U. after   12 cycles
 SCF Done:  E(RB3LYP) =  -674.874572830     A.U. after   11 cycles
 SCF Done:  E(RB3LYP) =  -674.881904006     A.U. after   11 cycles
 SCF Done:  E(RB3LYP) =  -674.885246025     A.U. after   11 cycles
 SCF Done:  E(RB3LYP) =  -674.886214226     A.U. after   10 cycles
 SCF Done:  E(RB3LYP) =  -674.886443872     A.U. after   10 cycles
 SCF Done:  E(RB3LYP) =  -674.886582326     A.U. after   10 cycles
 SCF Done:  E(RB3LYP) =  -674.886829022     A.U. after   10 cycles
 SCF Done:  E(RB3LYP) =  -674.886802368     A.U. after    9 cycles
 SCF Done:  E(RB3LYP) =  -674.887551394     A.U. after   10 cycles
 SCF Done:  E(RB3LYP) =  -674.899143760     A.U. after   11 cycles
 SCF Done:  E(RB3LYP) =  -674.899452060     A.U. after    8 cycles
 SCF Done:  E(RB3LYP) =  -674.899409265     A.U. after   11 cycles
 SCF Done:  E(RB3LYP) =  -674.899612856     A.U. after   11 cycles
 SCF Done:  E(RB3LYP) =  -674.899619729     A.U. after    8 cycles
 SCF Done:  E(RB3LYP) =  -674.899622138     A.U. after    8 cycles
 SCF Done:  E(RB3LYP) =  -674.899622717     A.U. after    7 cycles
 SCF Done:  E(RB3LYP) =  -674.899622996     A.U. after    7 cycles
 SCF Done:  E(RB3LYP) =  -674.899623031     A.U. after    5 cycles
 Optimization completed.
    -- Stationary point found.
 Normal termination of Gaussian 16 at Mon May 22 06:21:13 2023.

 ----------------------------------------------------------------------
 #N Geom=AllCheck Guess=TCheck SCRF=Check GenChk RB3LYP/6-31G(2df,p) Fr
 eq
 ----------------------------------------------------------------------

 Structure from the checkpoint file:  "CCCCqNCNCCCqCrCrNOC.chk"
 -------------------
 Title Card Required
 -------------------
 Charge =  0 Multiplicity = 1

                         Standard orientation:
 ---------------------------------------------------------------------
 Center     Atomic      Atomic             Coordinates (Angstroms)
 Number     Number       Type             X           Y           Z
 ---------------------------------------------------------------------
      1          6           0        5.814003    1.557248    0.178001
      2          6           0        4.318918    1.315449    0.400496
      3          6           0        3.880645   -0.099650    0.016918
      4          6           0        2.362873   -0.323775    0.174565
      5          7           0        1.616233    0.559660   -0.699315
      6          6           0        0.383831    1.155079   -0.236326
      7          7           0       -0.778684    0.272027   -0.294406
      8          6           0       -2.024941    0.929119    0.082086
      9          6           0       -3.201902   -0.045913    0.006135
     10          6           0       -4.558054    0.537064    0.441345
     11          6           0       -5.031638    1.672551   -0.477852
     12          6           0       -5.617995   -0.570595    0.516104
     13          7           0        2.117563   -1.746390   -0.121719
     14          8           0        0.864588   -2.149072    0.460489
     15          6           0        0.171350   -2.961331   -0.474710
     16          1           0        6.097537    2.576005    0.460461
     17          1           0        6.085167    1.416746   -0.874383
     18          1           0        6.425312    0.866494    0.770017
     19          1           0        3.728616    2.028584   -0.183640
     20          1           0        4.070992    1.498432    1.454816
     21          1           0        4.423956   -0.829822    0.633206
     22          1           0        4.152566   -0.304726   -1.026628
     23          1           0        2.071576   -0.087552    1.210188
     24          1           0        1.502663    0.138228   -1.614458
     25          1           0        0.158778    2.024876   -0.868348
     26          1           0        0.574381    1.550305    0.778706
     27          1           0       -0.599563   -0.522609    0.313464
     28          1           0       -2.182522    1.766123   -0.610355
     29          1           0       -1.987558    1.374889    1.096579
     30          1           0       -2.974287   -0.912183    0.643417
     31          1           0       -3.275190   -0.431940   -1.019117
     32          1           0       -4.435047    0.951508    1.452894
     33          1           0       -5.138839    1.318216   -1.510417
     34          1           0       -4.334830    2.515696   -0.485957
     35          1           0       -6.006380    2.054634   -0.156424
     36          1           0       -5.780153   -1.023910   -0.469346
     37          1           0       -6.580078   -0.177678    0.861585
     38          1           0       -5.314952   -1.368555    1.202356
     39          1           0        2.803938   -2.291509    0.400838
     40          1           0       -0.748953   -3.275495    0.027273
     41          1           0        0.756386   -3.850547   -0.741818
     42          1           0       -0.078548   -2.400182   -1.381304
 ---------------------------------------------------------------------

 SCF Done:  E(RB3LYP) =  -674.899623031     A.U. after    1 cycles

 The electronic state is 1-A.
 Alpha  occ. eigenvalues --  -19.16462 -14.36073 -14.30484 -14.29405 -10.23383
 Alpha  occ. eigenvalues --  -10.21906 -10.21810 -10.19354 -10.18192 -10.17741
 Alpha  occ. eigenvalues --  -10.17338 -10.17003 -10.16940 -10.16718 -10.16702
 Alpha  occ. eigenvalues --   -1.05944  -0.92213  -0.87755  -0.82481  -0.79703
 Alpha  occ. eigenvalues --   -0.77802  -0.71610  -0.69766  -0.67657  -0.65435
 Alpha  occ. eigenvalues --   -0.63978  -0.60556  -0.59438  -0.57837  -0.55232
 Alpha  occ. eigenvalues --   -0.50587  -0.49920  -0.48368  -0.47522  -0.45540
 Alpha  occ. eigenvalues --   -0.44815  -0.44536  -0.43618  -0.42929  -0.41936
 Alpha  occ. eigenvalues --   -0.41615  -0.40873  -0.40388  -0.38786  -0.38028
 Alpha  occ. eigenvalues --   -0.37507  -0.36952  -0.35767  -0.35434  -0.35041
 Alpha  occ. eigenvalues --   -0.34199  -0.32905  -0.32750  -0.32377  -0.31766
 Alpha  occ. eigenvalues --   -0.31454  -0.31232  -0.27204  -0.24382  -0.21873
 Alpha  occ. eigenvalues --   -0.21175
 Alpha virt. eigenvalues --    0.08443   0.08516   0.08839   0.10321   0.10498
 Alpha virt. eigenvalues --    0.11114   0.11808   0.12515   0.13209   0.14557
 Alpha virt. eigenvalues --    0.14993   0.15351   0.15449   0.15878   0.16316

 Mulliken charges:
               1
     1  C   -0.380850
     2  C   -0.165323
     3  C   -0.182426
     4  C    0.076266
     5  N   -0.264169
     6  C   -0.118908
     7  N   -0.310317
     8  C   -0.128722
     9  C   -0.180011
    10  C    0.044844
    11  C   -0.380129
    12  C   -0.387858
    13  N   -0.225037
    14  O   -0.261325
    15  C   -0.213868
    16  H    0.110836
    17  H    0.113741
    18  H    0.109562
    19  H    0.114878
    20  H    0.088109
    21  H    0.081530
    22  H    0.102255
    23  H    0.074604
    24  H    0.217362
    25  H    0.096643
    26  H    0.080935
    27  H    0.227694
    28  H    0.097209
    29  H    0.069506
    30  H    0.083397
    31  H    0.097475
    32  H    0.069430
    33  H    0.110804
    34  H    0.114634
    35  H    0.107706
    36  H    0.110693
    37  H    0.107093
    38  H    0.107137
    39  H    0.229552
    40  H    0.119285
    41  H    0.109975
    42  H    0.125786
 Sum of Mulliken charges =  -0.00000

 Dipole moment (field-independent basis, Debye):
    X=              0.2707    Y=             -0.6757    Z=              0.5644  Tot=              0.9211
 Quadrupole moment (field-independent basis, Debye-Ang):
   XX=            -94.5349   YY=            -94.4067   ZZ=            -96.6197
   XY=             -2.2368   XZ=              1.1541   YZ=              0.3538

  Exact polarizability: 191.968   5.943 148.118   1.170   0.339 121.033
 Approx polarizability: 214.916   0.309 205.372   0.180   0.483 195.897

                      1                      2                      3
                      A                      A                      A
 Frequencies --     20.5618                29.0260                37.3274
 Red. masses --      3.0575                 2.8760                 3.8249
 Frc consts  --      0.0008                 0.0014                 0.0031
 IR Inten    --      0.0567                 0.1212                 0.1954

                      4                      5                      6
                      A                      A                      A
 Frequencies --     65.2204                71.1145                77.6888
 Red. masses --      2.8981                 1.9735                 2.4163
 Frc consts  --      0.0073                 0.0059                 0.0086
 IR Inten    --      0.9295                 0.1838                 0.5491

                      7                      8                      9
                      A                      A                      A
 Frequencies --     95.2740               105.7388               119.3899
 Red. masses --      2.9192                 2.5903                 2.9287
 Frc consts  --      0.0156                 0.0171                 0.0246
 IR Inten    --      2.7229                 3.1428                 0.5041

                     10                     11                     12
                      A                      A                      A
 Frequencies --    131.5731               145.2807               182.7002
 Red. masses --      2.0172                 2.0379                 2.3955
 Frc consts  --      0.0206                 0.0253                 0.0471
 IR Inten    --      2.0202                 1.0880                 0.3145

                     13                     14                     15
                      A                      A                      A
 Frequencies --    193.6315               223.7691               231.9330
 Red. masses --      2.0932                 1.1122                 1.8526
 Frc consts  --      0.0462                 0.0328                 0.0587
 IR Inten    --      0.1089                 0.2217                 2.9358

                     16                     17                     18
                      A                      A                      A
 Frequencies --    247.9259               248.4342               269.6637
 Red. masses --      1.2545                 1.1905                 2.3229
 Frc consts  --      0.0454                 0.0433                 0.0995
 IR Inten    --      0.1079                 0.6011                 0.2084

                     19                     20                     21
                      A                      A                      A
 Frequencies --    272.1332               313.9803               332.5175
 Red. masses --      2.6198                 3.5772                 2.6073
 Frc consts  --      0.1143                 0.2078                 0.1698
 IR Inten    --      8.8402                 1.0922                 0.4730

                     22                     23                     24
                      A                      A                      A
 Frequencies --    344.0573               398.9485               412.2446
 Red. masses --      2.8341                 2.2691                 2.5108
 Frc consts  --      0.1977                 0.2128                 0.2514
 IR Inten    --      2.8415                 1.7382                 2.6360

                     25                     26                     27
                      A                      A                      A
 Frequencies --    445.7739               464.1508               485.8152
 Red. masses --      2.4453                 2.1609                 2.7200
 Frc consts  --      0.2863                 0.2743                 0.3782
 IR Inten    --     10.4028                 7.3298                21.7804

                     28                     29                     30
                      A                      A                      A
 Frequencies --    547.3234               594.3779               675.8342
 Red. masses --      3.2880                 2.5779                 2.2409
 Frc consts  --      0.5803                 0.5366                 0.6030
 IR Inten    --      6.1807                 1.5129                83.8184

                     31                     32                     33
                      A                      A                      A
 Frequencies --    753.1100               786.0553               830.7066
 Red. masses --      1.1369                 1.2517                 2.2959
 Frc consts  --      0.3799                 0.4557                 0.9335
 IR Inten    --      9.1014                 1.4170                 2.3059

                     34                     35                     36
                      A                      A                      A
 Frequencies --    850.6929               857.5092               873.1764
 Red. masses --      1.8693                 1.5625                 1.6257
 Frc consts  --      0.7970                 0.6770                 0.7303
 IR Inten    --      0.2444                11.8226               103.3766

                     37                     38                     39
                      A                      A                      A
 Frequencies --    915.2125               927.3806               935.5813
 Red. masses --      1.7428                 1.1928                 1.5875
 Frc consts  --      0.8601                 0.6044                 0.8187
 IR Inten    --     15.2322                 0.4205                16.4877

                     40                     41                     42
                      A                      A                      A
 Frequencies --    946.5803               965.0094               981.2975
 Red. masses --      1.7724                 1.4345                 2.3842
 Frc consts  --      0.9357                 0.7871                 1.3527
 IR Inten    --      1.2231                 0.9338                50.5867

                     43                     44                     45
                      A                      A                      A
 Frequencies --    987.7175              1007.8084              1041.2146
 Red. masses --      1.6074                 2.4413                 2.0830
 Frc consts  --      0.9240                 1.4609                 1.3305
 IR Inten    --      7.4444                22.6494                 4.2562

                     46                     47                     48
                      A                      A                      A
 Frequencies --   1048.0836              1059.8404              1086.2639
 Red. masses --      2.9262                 2.5357                 1.7797
 Frc consts  --      1.8939                 1.6782                 1.2373
 IR Inten    --     18.9881                11.7421                 8.3584

                     49                     50                     51
                      A                      A                      A
 Frequencies --   1089.8751              1118.4599              1128.4118
 Red. masses --      4.0139                 2.3148                 3.7491
 Frc consts  --      2.8091                 1.7061                 2.8126
 IR Inten    --     48.6890                 7.9223                75.1154

                     52                     53                     54
                      A                      A                      A
 Frequencies --   1141.9466              1159.7106              1173.2773
 Red. masses --      2.6591                 1.9340                 1.5724
 Frc consts  --      2.0430                 1.5325                 1.2753
 IR Inten    --     38.3929                 7.3493                 2.3561

                     55                     56                     57
                      A                      A                      A
 Frequencies --   1182.6713              1190.2772              1193.1406
 Red. masses --      1.8639                 1.9928                 1.7258
 Frc consts  --      1.5360                 1.6634                 1.4475
 IR Inten    --     40.1889                44.5993                 0.6091

                     58                     59                     60
                      A                      A                      A
 Frequencies --   1213.5751              1223.4263              1244.9096
 Red. masses --      1.9137                 1.6352                 1.4431
 Frc consts  --      1.6606                 1.4421                 1.3177
 IR Inten    --      6.3963                 5.2961                16.7937

                     61                     62                     63
                      A                      A                      A
 Frequencies --   1266.9132              1278.7303              1291.9531
 Red. masses --      1.4879                 1.2642                 1.3041
 Frc consts  --      1.4071                 1.2180                 1.2825
 IR Inten    --      2.8592                 3.2112                 3.0266

                     64                     65                     66
                      A                      A                      A
 Frequencies --   1308.0224              1320.6484              1330.8300
 Red. masses --      1.2168                 1.1249                 1.1389
 Frc consts  --      1.2266                 1.1560                 1.1885
 IR Inten    --      2.6958                 8.5275                 5.8705

                     67                     68                     69
                      A                      A                      A
 Frequencies --   1341.4642              1359.3778              1370.6239
 Red. masses --      1.3256                 1.3143                 1.3567
 Frc consts  --      1.4055                 1.4309                 1.5017
 IR Inten    --      2.6899                 4.2330                 3.3460

                     70                     71                     72
                      A                      A                      A
 Frequencies --   1384.3526              1391.2662              1396.4653
 Red. masses --      1.3207                 1.5470                 1.2948
 Frc consts  --      1.4913                 1.7642                 1.4877
 IR Inten    --      6.3370                19.8657                11.4309

                     73                     74                     75
                      A                      A                      A
 Frequencies --   1400.6769              1412.6464              1421.4234
 Red. masses --      1.2713                 1.2332                 1.2298
 Frc consts  --      1.4695                 1.4499                 1.4640
 IR Inten    --      3.6261                 0.3861                 1.6287

                     76                     77                     78
                      A                      A                      A
 Frequencies --   1431.6755              1460.3112              1473.6866
 Red. masses --      1.3701                 1.1382                 1.0984
 Frc consts  --      1.6546                 1.4301                 1.4055
 IR Inten    --      1.6186                 2.7293                 8.7195

                     79                     80                     81
                      A                      A                      A
 Frequencies --   1475.6942              1480.9808              1486.7027
 Red. masses --      1.0799                 1.0717                 1.1279
 Frc consts  --      1.3856                 1.3849                 1.4688
 IR Inten    --      4.0744                 1.5780                 7.8860

                     82                     83                     84
                      A                      A                      A
 Frequencies --   1488.9060              1494.2345              1496.3240
 Red. masses --      1.0512                 1.0854                 1.0668
 Frc consts  --      1.3730                 1.4278                 1.4074
 IR Inten    --      1.2886                 1.6237                 0.0358

                     85                     86                     87
                      A                      A                      A
 Frequencies --   1497.2069              1498.8410              1500.0031
 Red. masses --      1.1098                 1.1100                 1.0474
 Frc consts  --      1.4658                 1.4693                 1.3885
 IR Inten    --      5.9537                22.2650                 2.4313

                     88                     89                     90
                      A                      A                      A
 Frequencies --   1503.2427              1505.5737              1510.5573
 Red. masses --      1.1090                 1.0712                 1.0993
 Frc consts  --      1.4765                 1.4306                 1.4779
 IR Inten    --     24.7212                 2.1513                37.1132

                     91                     92                     93
                      A                      A                      A
 Frequencies --   1511.7234              1515.4565              1525.2414
 Red. masses --      1.0614                 1.1403                 1.1281
 Frc consts  --      1.4291                 1.5429                 1.5462
 IR Inten    --     24.2813                31.9854                16.4560

                     94                     95                     96
                      A                      A                      A
 Frequencies --   2895.0788              2930.3507              2982.4206
 Red. masses --      1.0732                 1.0717                 1.0821
 Frc consts  --      5.2999                 5.4221                 5.6711
 IR Inten    --     69.0371                64.7061                33.5255

                     97                     98                     99
                      A                      A                      A
 Frequencies --   2992.8928              3002.9539              3005.0805
 Red. masses --      1.0820                 1.0620                 1.0603
 Frc consts  --      5.7104                 5.6427                 5.6417
 IR Inten    --     16.9840                19.1798                28.8956

                    100                    101                    102
                      A                      A                      A
 Frequencies --   3009.9369              3016.9304              3019.5623
 Red. masses --      1.0323                 1.0698                 1.0874
 Frc consts  --      5.5101                 5.7367                 5.8415
 IR Inten    --     61.5232                22.2902                34.3312

                    103                    104                    105
                      A                      A                      A
 Frequencies --   3021.4029              3026.8713              3026.9469
 Red. masses --      1.0379                 1.0363                 1.0409
 Frc consts  --      5.5825                 5.5940                 5.6192
 IR Inten    --     20.1366                44.7595                11.0869

                    106                    107                    108
                      A                      A                      A
 Frequencies --   3029.7587              3051.3363              3052.6420
 Red. masses --      1.0779                 1.0943                 1.0994
 Frc consts  --      5.8299                 6.0030                 6.0361
 IR Inten    --     48.9163                26.1385                55.4616

                    109                    110                    111
                      A                      A                      A
 Frequencies --   3074.2966              3082.3057              3085.8410
 Red. masses --      1.0966                 1.1022                 1.1005
 Frc consts  --      6.1065                 6.1696                 6.1741
 IR Inten    --      0.6585                41.0367                 6.2227

                    112                    113                    114
                      A                      A                      A
 Frequencies --   3091.8428              3096.2423              3097.5904
 Red. masses --      1.1001                 1.1013                 1.1018
 Frc consts  --      6.1963                 6.2205                 6.2285
 IR Inten    --     60.9065                46.5934                56.8671

                    115                    116                    117
                      A                      A                      A
 Frequencies --   3099.8568              3104.9684              3111.4680
 Red. masses --      1.1000                 1.0998                 1.1037
 Frc consts  --      6.2279                 6.2471                 6.2954
 IR Inten    --     39.0259                38.4159                23.2924

                    118                    119                    120
                      A                      A                      A
 Frequencies --   3440.1284              3508.2596              3544.6227
 Red. masses --      1.0750                 1.0737                 1.0728
 Frc consts  --      7.4954                 7.7857                 7.9415
 IR Inten    --      4.4510                28.1073                 3.2576

 - Thermochemistry -
 -------------------
 Temperature   298.150 Kelvin.  Pressure   1.00000 Atm.
 Atom     1 has atomic number  6 and mass  12.00000

 Molecular mass:   217.21541 amu.
 Principal axes and moments of inertia in atomic units:
                           1         2         3
     Eigenvalues --  1707.109289246.66511**********
           X            0.99999   0.00516   0.00109
           Y           -0.00517   0.99995   0.00827
           Z           -0.00105  -0.00827   0.99997
 This molecule is an asymmetric top.
 Rotational symmetry number  1.
 Warning -- assumption of classical behavior for rotation
           may cause significant error
 Rotational temperatures (Kelvin)      0.05074     0.00937     0.00817
 Rotational constants (GHZ):           1.05719     0.19518     0.17027
 Zero-point vibrational energy    1012218.2 (Joules/Mol)
                                  241.92597 (Kcal/Mol)
 Warning -- explicit consideration of  29 degrees of freedom as
           vibrations may cause significant error
 Vibrational temperatures:     29.58    41.76    53.71    93.84   102.32
          (Kelvin)            111.78   137.08   152.13   171.78   189.30
                              209.03   262.86   278.59   321.95   333.70
                              356.71   357.44   387.99   391.54   451.75
                              478.42   495.02   574.00   593.13   641.37
                              667.81   698.98   787.48   855.18   972.37
                             1083.56  1130.96  1195.20  1223.96  1233.76
                             1256.31  1316.79  1334.29  1346.09  1361.92
                             1388.43  1411.87  1421.11  1450.01  1498.08
                             1507.96  1524.87  1562.89  1568.09  1609.21
                             1623.53  1643.01  1668.56  1688.08  1701.60
                             1712.54  1716.66  1746.06  1760.24  1791.15
                             1822.81  1839.81  1858.83  1881.95  1900.12
                             1914.77  1930.07  1955.84  1972.02  1991.77
                             2001.72  2009.20  2015.26  2032.48  2045.11
                             2059.86  2101.06  2120.31  2123.19  2130.80
                             2139.03  2142.20  2149.87  2152.88  2154.15
                             2156.50  2158.17  2162.83  2166.18  2173.36
                             2175.03  2180.40  2194.48  4165.37  4216.12
                             4291.04  4306.11  4320.58  4323.64  4330.63
                             4340.69  4344.48  4347.12  4354.99  4355.10
                             4359.15  4390.19  4392.07  4423.23  4434.75
                             4439.84  4448.47  4454.80  4456.74  4460.00
                             4467.36  4476.71  4949.58  5047.60  5099.92

 Zero-point correction=                           0.385534 (Hartree/Particle)
 Thermal correction to Energy=                    0.405311
 Thermal correction to Enthalpy=                  0.406255
 Thermal correction to Gibbs Free Energy=         0.335422
 Sum of electronic and zero-point Energies=           -674.514089
 Sum of electronic and thermal Energies=              -674.494312
 Sum of electronic and thermal Enthalpies=            -674.493368
 Sum of electronic and thermal Free Energies=         -674.564201

                     E (Thermal)             CV                S
                      KCal/Mol        Cal/Mol-Kelvin    Cal/Mol-Kelvin
 Total                  254.337             70.933            149.082
 Electronic               0.000              0.000              0.000
 Translational            0.889              2.981             42.030
 Rotational               0.889              2.981             33.481
 Vibrational            252.559             64.972             73.571
 Vibration     1          0.593              1.986              6.579
 Vibration     2          0.593              1.984              5.895
 Vibration     3          0.594              1.982              5.396
 Vibration     4          0.597              1.971              4.293
 Vibration     5          0.598              1.968              4.122
 Vibration     6          0.599              1.964              3.948
 Vibration     7          0.603              1.953              3.549
 Vibration     8          0.605              1.945              3.346
 Vibration     9          0.609              1.933              3.110
 Vibration    10          0.612              1.922              2.923
 Vibration    11          0.617              1.908              2.733
 Vibration    12          0.630              1.863              2.301
 Vibration    13          0.635              1.849              2.193
 Vibration    14          0.649              1.805              1.928
 Vibration    15          0.653              1.792              1.864
 Vibration    16          0.662              1.766              1.745
 Vibration    17          0.662              1.765              1.742
 Vibration    18          0.674              1.729              1.598
 Vibration    19          0.675              1.725              1.583
 Vibration    20          0.702              1.647              1.341
 Vibration    21          0.714              1.611              1.248
 Vibration    22          0.723              1.587              1.193
 Vibration    23          0.765              1.472              0.967
 Vibration    24          0.776              1.444              0.919
 Vibration    25          0.805              1.370              0.809
 Vibration    26          0.822              1.330              0.754
 Vibration    27          0.842              1.282              0.695
 Vibration    28          0.903              1.146              0.550
 Vibration    29          0.952              1.044              0.459

                           ! Non-Optimized Parameters !
 Normal termination of Gaussian 16 at Mon May 22 09:20:54 2023.
