 Gaussian 16, Revision A.03,
 Gaussian 16:  ES64L-G16RevA.03 25-Dec-2016

 -----------------------------
 # opt freq b3lyp/6-31g(2df,p)
 -----------------------------

 -------------------
 Title Card Required
 -------------------
 Symbolic Z-matrix:
 Charge =  0 Multiplicity = 1

 SCF Done:  E(RB3LYP) =  -718.059411473     A.U. after   12 cycles
 SCF Done:  E(RB3LYP) =  -718.075284499     A.U. after   12 cycles
 SCF Done:  E(RB3LYP) =  -718.077985656     A.U. after   10 cycles
 SCF Done:  E(RB3LYP) =  -718.078999654     A.U. after   10 cycles
 SCF Done:  E(RB3LYP) =  -718.079282110     A.U. after   10 cycles
 SCF Done:  E(RB3LYP) =  -718.079361032     A.U. after    9 cycles
 SCF Done:  E(RB3LYP) =  -718.079410423     A.U. after    9 cycles
 SCF Done:  E(RB3LYP) =  -718.079432319     A.U. after    9 cycles
 SCF Done:  E(RB3LYP) =  -718.079445676     A.U. after    9 cycles
 SCF Done:  E(RB3LYP) =  -718.079455585     A.U. after    8 cycles
 SCF Done:  E(RB3LYP) =  -718.079458380     A.U. after    8 cycles
 SCF Done:  E(RB3LYP) =  -718.079459128     A.U. after    8 cycles
 SCF Done:  E(RB3LYP) =  -718.079459610     A.U. after    8 cycles
 SCF Done:  E(RB3LYP) =  -718.079459748     A.U. after    7 cycles
 SCF Done:  E(RB3LYP) =  -718.079459789     A.U. after    6 cycles
 SCF Done:  E(RB3LYP) =  -718.079459807     A.U. after    6 cycles
 Optimization completed.
    -- Stationary point found.
 Normal termination of Gaussian 16 at Wed May 24 12:40:33 2023.

 ----------------------------------------------------------------------
 #N Geom=AllCheck Guess=TCheck SCRF=Check GenChk RB3LYP/6-31G(2df,p) Fr
 eq
 ----------------------------------------------------------------------

 Structure from the checkpoint file:  "CCCCCCCNqCrCCOCqCrOC.chk"
 -------------------
 Title Card Required
 -------------------
 Charge =  0 Multiplicity = 1

                         Standard orientation:
 ---------------------------------------------------------------------
 Center     Atomic      Atomic             Coordinates (Angstroms)
 Number     Number       Type             X           Y           Z
 ---------------------------------------------------------------------
      1          6           0        8.317617   -1.155860    0.025591
      2          6           0        7.106544   -0.432916    0.621288
      3          6           0        5.823622   -0.630912   -0.193269
      4          6           0        4.606498    0.089611    0.395885
      5          6           0        3.324492   -0.108911   -0.419995
      6          6           0        2.107583    0.608473    0.175706
      7          6           0        0.845816    0.414789   -0.671211
      8          7           0       -0.370367    0.933960   -0.045350
      9          6           0       -0.361804    2.388046    0.050444
     10          6           0       -1.583415    0.442416   -0.694026
     11          6           0       -2.763316    0.378888    0.275005
     12          8           0       -3.877683   -0.096229   -0.453692
     13          6           0       -5.026012   -0.355797    0.309204
     14          6           0       -5.845956    0.914851    0.535914
     15          8           0       -5.738162   -1.302405   -0.446514
     16          6           0       -6.652792   -2.076568    0.292938
     17          1           0        9.216947   -0.995942    0.628739
     18          1           0        8.530369   -0.801610   -0.989338
     19          1           0        8.144215   -2.236280   -0.033181
     20          1           0        7.322699    0.640955    0.699759
     21          1           0        6.939704   -0.782602    1.648873
     22          1           0        5.607147   -1.705684   -0.272345
     23          1           0        5.990286   -0.281747   -1.222161
     24          1           0        4.823715    1.164098    0.474833
     25          1           0        4.439634   -0.260042    1.424309
     26          1           0        3.110184   -1.183641   -0.502445
     27          1           0        3.490742    0.244909   -1.447138
     28          1           0        2.341509    1.675179    0.276729
     29          1           0        1.907610    0.235132    1.187863
     30          1           0        0.699407   -0.660121   -0.827052
     31          1           0        1.008545    0.857460   -1.675521
     32          1           0        0.464429    2.728289    0.679107
     33          1           0       -1.286780    2.742679    0.511683
     34          1           0       -0.267122    2.879267   -0.937869
     35          1           0       -1.405547   -0.573198   -1.059027
     36          1           0       -1.872545    1.047494   -1.572533
     37          1           0       -2.967570    1.368743    0.710723
     38          1           0       -2.517828   -0.299752    1.106635
     39          1           0       -4.734083   -0.802505    1.281187
     40          1           0       -6.123018    1.337170   -0.433407
     41          1           0       -5.269892    1.656563    1.097193
     42          1           0       -6.755376    0.701245    1.105449
     43          1           0       -7.060483   -2.825113   -0.390352
     44          1           0       -7.487722   -1.482870    0.694182
     45          1           0       -6.163111   -2.593380    1.133366
 ---------------------------------------------------------------------

 SCF Done:  E(RB3LYP) =  -718.079459807     A.U. after    1 cycles

 The electronic state is 1-A.
 Alpha  occ. eigenvalues --  -19.13667 -19.13547 -14.31582 -10.27495 -10.22484
 Alpha  occ. eigenvalues --  -10.22328 -10.19878 -10.19837 -10.19584 -10.17546
 Alpha  occ. eigenvalues --  -10.17522 -10.17391 -10.17346 -10.17309 -10.17256
 Alpha  occ. eigenvalues --  -10.16931  -1.06224  -1.00526  -0.91521  -0.80401
 Alpha  occ. eigenvalues --   -0.77599  -0.76137  -0.72960  -0.71613  -0.68964
 Alpha  occ. eigenvalues --   -0.68086  -0.64725  -0.60782  -0.58919  -0.57716
 Alpha  occ. eigenvalues --   -0.57286  -0.56564  -0.51238  -0.49781  -0.48575
 Alpha  occ. eigenvalues --   -0.47760  -0.46193  -0.46183  -0.44870  -0.43908
 Alpha  occ. eigenvalues --   -0.43382  -0.42185  -0.41324  -0.40941  -0.40489
 Alpha  occ. eigenvalues --   -0.39735  -0.39081  -0.38690  -0.37837  -0.37002
 Alpha  occ. eigenvalues --   -0.36843  -0.35737  -0.35647  -0.34068  -0.33755
 Alpha  occ. eigenvalues --   -0.33216  -0.32621  -0.32091  -0.31963  -0.31691
 Alpha  occ. eigenvalues --   -0.31003  -0.29981  -0.26141  -0.24839  -0.20908
 Alpha virt. eigenvalues --    0.07950   0.08633   0.09183   0.10442   0.10932
 Alpha virt. eigenvalues --    0.11494   0.11749   0.12420   0.13050   0.13398
 Alpha virt. eigenvalues --    0.13981   0.14227   0.15006   0.15587   0.16107

 Mulliken charges:
               1
     1  C   -0.379115
     2  C   -0.163005
     3  C   -0.158677
     4  C   -0.178986
     5  C   -0.178938
     6  C   -0.201377
     7  C   -0.132220
     8  N   -0.070501
     9  C   -0.326949
    10  C   -0.158875
    11  C   -0.067519
    12  O   -0.245100
    13  C    0.239453
    14  C   -0.413259
    15  O   -0.228920
    16  C   -0.236417
    17  H    0.109663
    18  H    0.112513
    19  H    0.112584
    20  H    0.092778
    21  H    0.093050
    22  H    0.090202
    23  H    0.089974
    24  H    0.090501
    25  H    0.091743
    26  H    0.092498
    27  H    0.093247
    28  H    0.094699
    29  H    0.100882
    30  H    0.096914
    31  H    0.072156
    32  H    0.121265
    33  H    0.117234
    34  H    0.090593
    35  H    0.108345
    36  H    0.089153
    37  H    0.088445
    38  H    0.095844
    39  H    0.046268
    40  H    0.134248
    41  H    0.117131
    42  H    0.115157
    43  H    0.131233
    44  H    0.106425
    45  H    0.105658
 Sum of Mulliken charges =  -0.00000

 Dipole moment (field-independent basis, Debye):
    X=              0.0668    Y=              0.4058    Z=              1.5808  Tot=              1.6334
 Quadrupole moment (field-independent basis, Debye-Ang):
   XX=            -97.4187   YY=           -100.2026   ZZ=           -105.0568
   XY=              1.3339   XZ=             -9.5808   YZ=             -1.7702

  Exact polarizability: 212.330   1.893 148.676  -0.727   1.113 133.957
 Approx polarizability: 222.912   5.053 215.328  -0.164   0.155 211.383

                      1                      2                      3
                      A                      A                      A
 Frequencies --     13.0292                16.4657                30.0595
 Red. masses --      2.9319                 3.7939                 1.8214
 Frc consts  --      0.0003                 0.0006                 0.0010
 IR Inten    --      1.1682                 0.0202                 0.0234

                      4                      5                      6
                      A                      A                      A
 Frequencies --     37.7497                50.3931                60.6838
 Red. masses --      3.1159                 2.6419                 2.4689
 Frc consts  --      0.0026                 0.0040                 0.0054
 IR Inten    --      0.3789                 0.4549                 0.5041

                      7                      8                      9
                      A                      A                      A
 Frequencies --     67.5567                85.7277                93.6214
 Red. masses --      2.7216                 2.5644                 2.0036
 Frc consts  --      0.0073                 0.0111                 0.0103
 IR Inten    --      1.0564                 1.5283                 0.0549

                     10                     11                     12
                      A                      A                      A
 Frequencies --    103.7153               119.3805               147.9387
 Red. masses --      2.4647                 2.6194                 1.7736
 Frc consts  --      0.0156                 0.0220                 0.0229
 IR Inten    --      0.7558                 0.2089                 0.0991

                     13                     14                     15
                      A                      A                      A
 Frequencies --    156.0451               158.9578               173.2192
 Red. masses --      2.1283                 3.1785                 3.4314
 Frc consts  --      0.0305                 0.0473                 0.0607
 IR Inten    --      0.0277                 0.6575                 0.0316

                     16                     17                     18
                      A                      A                      A
 Frequencies --    197.9062               218.9292               228.1796
 Red. masses --      1.2802                 1.2917                 1.1025
 Frc consts  --      0.0295                 0.0365                 0.0338
 IR Inten    --      0.5561                 1.3376                 0.1907

                     19                     20                     21
                      A                      A                      A
 Frequencies --    247.7933               255.2913               277.6992
 Red. masses --      1.1248                 2.5244                 3.3573
 Frc consts  --      0.0407                 0.0969                 0.1525
 IR Inten    --      0.0012                 0.1700                 0.5525

                     22                     23                     24
                      A                      A                      A
 Frequencies --    314.7650               346.9795               389.4790
 Red. masses --      3.0902                 2.8911                 2.3044
 Frc consts  --      0.1804                 0.2051                 0.2060
 IR Inten    --      1.1500                 1.1558                 6.0590

                     25                     26                     27
                      A                      A                      A
 Frequencies --    405.3852               415.1328               454.3598
 Red. masses --      3.0121                 2.8722                 3.7705
 Frc consts  --      0.2916                 0.2916                 0.4586
 IR Inten    --      0.6008                 0.0803                 5.7364

                     28                     29                     30
                      A                      A                      A
 Frequencies --    481.1832               511.7078               527.9726
 Red. masses --      2.9450                 2.9847                 3.0221
 Frc consts  --      0.4017                 0.4605                 0.4963
 IR Inten    --      2.2830                 6.9643                 3.7043

                     31                     32                     33
                      A                      A                      A
 Frequencies --    599.5448               732.2504               741.4782
 Red. masses --      3.3812                 1.0618                 1.0885
 Frc consts  --      0.7161                 0.3354                 0.3526
 IR Inten    --      0.5158                 4.2447                 0.0743

                     34                     35                     36
                      A                      A                      A
 Frequencies --    774.2615               812.7830               840.3797
 Red. masses --      1.1440                 1.1843                 1.2313
 Frc consts  --      0.4041                 0.4609                 0.5124
 IR Inten    --      0.8181                 1.7987                 0.2013

                     37                     38                     39
                      A                      A                      A
 Frequencies --    848.2699               876.0627               899.0370
 Red. masses --      2.0674                 3.4988                 1.9196
 Frc consts  --      0.8765                 1.5821                 0.9142
 IR Inten    --      9.5544                13.5228                 1.3918

                     40                     41                     42
                      A                      A                      A
 Frequencies --    929.4441               933.8378               996.5018
 Red. masses --      1.5410                 1.6959                 4.2265
 Frc consts  --      0.7844                 0.8713                 2.4728
 IR Inten    --      2.2523                 5.0191                 3.5993

                     43                     44                     45
                      A                      A                      A
 Frequencies --   1020.2056              1027.1895              1041.8122
 Red. masses --      1.1663                 3.1960                 3.1722
 Frc consts  --      0.7152                 1.9868                 2.0285
 IR Inten    --      0.9371                11.8934                 5.3220

                     46                     47                     48
                      A                      A                      A
 Frequencies --   1059.6726              1066.9806              1070.5942
 Red. masses --      2.6368                 2.1052                 2.2423
 Frc consts  --      1.7445                 1.4121                 1.5142
 IR Inten    --     10.7665                72.2151                 3.5909

                     49                     50                     51
                      A                      A                      A
 Frequencies --   1075.4685              1080.6416              1091.6686
 Red. masses --      2.5553                 2.9496                 2.2282
 Frc consts  --      1.7413                 2.0294                 1.5645
 IR Inten    --     11.3159                49.1345                32.7269

                     52                     53                     54
                      A                      A                      A
 Frequencies --   1102.3338              1132.4044              1137.5195
 Red. masses --      2.1684                 2.2985                 1.5736
 Frc consts  --      1.5524                 1.7366                 1.1997
 IR Inten    --      7.1041                 7.8828                16.9197

                     55                     56                     57
                      A                      A                      A
 Frequencies --   1142.6895              1161.3911              1167.8057
 Red. masses --      1.7584                 3.1089                 3.3321
 Frc consts  --      1.3528                 2.4707                 2.6774
 IR Inten    --    112.0988               320.1414                25.6813

                     58                     59                     60
                      A                      A                      A
 Frequencies --   1170.2952              1183.9605              1207.0714
 Red. masses --      2.6165                 1.3241                 1.7124
 Frc consts  --      2.1113                 1.0935                 1.4700
 IR Inten    --    105.8793                10.1342                 6.8220

                     61                     62                     63
                      A                      A                      A
 Frequencies --   1221.5109              1239.3825              1244.9790
 Red. masses --      1.6032                 1.3475                 1.9745
 Frc consts  --      1.4094                 1.2195                 1.8031
 IR Inten    --      8.8382                 8.4122                33.5035

                     64                     65                     66
                      A                      A                      A
 Frequencies --   1259.4770              1280.2559              1282.9280
 Red. masses --      1.5659                 1.4930                 1.4161
 Frc consts  --      1.4635                 1.4418                 1.3732
 IR Inten    --     14.5414                 5.9609                 3.1289

                     67                     68                     69
                      A                      A                      A
 Frequencies --   1307.3807              1317.2675              1321.9780
 Red. masses --      1.3430                 1.1758                 1.1196
 Frc consts  --      1.3524                 1.2021                 1.1529
 IR Inten    --      1.6088                 3.1116                 0.6813

                     70                     71                     72
                      A                      A                      A
 Frequencies --   1329.3985              1335.9951              1345.0895
 Red. masses --      1.1129                 1.0836                 1.1796
 Frc consts  --      1.1588                 1.1395                 1.2575
 IR Inten    --      3.3736                 0.0719                 8.5528

                     73                     74                     75
                      A                      A                      A
 Frequencies --   1351.1054              1361.1791              1379.1484
 Red. masses --      1.3789                 1.3905                 1.2340
 Frc consts  --      1.4831                 1.5179                 1.3828
 IR Inten    --     73.1782                 3.3272                 5.5277

                     76                     77                     78
                      A                      A                      A
 Frequencies --   1391.1504              1395.4271              1401.2505
 Red. masses --      1.2923                 1.4902                 1.6193
 Frc consts  --      1.4735                 1.7097                 1.8734
 IR Inten    --     22.6699                 3.8862                 0.7171

                     79                     80                     81
                      A                      A                      A
 Frequencies --   1404.9700              1413.4044              1417.9646
 Red. masses --      1.3234                 1.2598                 1.3759
 Frc consts  --      1.5392                 1.4828                 1.6300
 IR Inten    --     44.3611                 1.2842                32.6677

                     82                     83                     84
                      A                      A                      A
 Frequencies --   1445.6410              1463.6522              1476.6978
 Red. masses --      1.3761                 1.2039                 1.0895
 Frc consts  --      1.6944                 1.5196                 1.3998
 IR Inten    --      1.5254                 1.6907                 2.5369

                     85                     86                     87
                      A                      A                      A
 Frequencies --   1481.5932              1483.2725              1483.5938
 Red. masses --      1.0746                 1.0729                 1.0631
 Frc consts  --      1.3898                 1.3907                 1.3786
 IR Inten    --      0.8483                 0.2256                 3.4320

                     88                     89                     90
                      A                      A                      A
 Frequencies --   1484.3795              1486.1814              1490.2258
 Red. masses --      1.0660                 1.0743                 1.0724
 Frc consts  --      1.3839                 1.3981                 1.4031
 IR Inten    --      1.4759                 6.7085                 0.4031

                     91                     92                     93
                      A                      A                      A
 Frequencies --   1496.9336              1498.7946              1499.9050
 Red. masses --      1.0534                 1.0793                 1.0403
 Frc consts  --      1.3908                 1.4284                 1.3789
 IR Inten    --      4.4219                 1.0661                 4.8898

                     94                     95                     96
                      A                      A                      A
 Frequencies --   1500.5896              1502.7427              1506.1960
 Red. masses --      1.0731                 1.0626                 1.0885
 Frc consts  --      1.4237                 1.4138                 1.4550
 IR Inten    --      2.8623                 5.6545                 1.8571

                     97                     98                     99
                      A                      A                      A
 Frequencies --   1512.5397              1513.0079              1517.4100
 Red. masses --      1.0936                 1.0755                 1.1004
 Frc consts  --      1.4741                 1.4506                 1.4928
 IR Inten    --      0.1086                 4.0643                 5.5035

                    100                    101                    102
                      A                      A                      A
 Frequencies --   1527.3689              2890.7740              2894.1299
 Red. masses --      1.0872                 1.0720                 1.0812
 Frc consts  --      1.4943                 5.2782                 5.3359
 IR Inten    --      4.4086                57.4049                50.7436

                    103                    104                    105
                      A                      A                      A
 Frequencies --   2917.8625              2942.4367              2974.3969
 Red. masses --      1.0624                 1.0714                 1.0409
 Frc consts  --      5.3293                 5.4651                 5.4257
 IR Inten    --     69.3029                63.4367                52.6021

                    106                    107                    108
                      A                      A                      A
 Frequencies --   2976.7718              2998.9835              2999.8847
 Red. masses --      1.0511                 1.0576                 1.0576
 Frc consts  --      5.4877                 5.6042                 5.6077
 IR Inten    --     55.8420                 0.3273                 0.3111

                    109                    110                    111
                      A                      A                      A
 Frequencies --   3007.2701              3007.5414              3015.5981
 Red. masses --      1.0590                 1.1043                 1.0596
 Frc consts  --      5.6426                 5.8851                 5.6772
 IR Inten    --     13.2323                42.9353                63.1456

                    112                    113                    114
                      A                      A                      A
 Frequencies --   3019.4943              3020.9144              3025.2125
 Red. masses --      1.0980                 1.1015                 1.0598
 Frc consts  --      5.8980                 5.9225                 5.7145
 IR Inten    --      0.2714                56.6387                42.4536

                    115                    116                    117
                      A                      A                      A
 Frequencies --   3027.1560              3027.8518              3041.2514
 Red. masses --      1.1001                 1.0357                 1.0998
 Frc consts  --      5.9394                 5.5946                 5.9932
 IR Inten    --      0.8141                43.3502                 4.0165

                    118                    119                    120
                      A                      A                      A
 Frequencies --   3044.1441              3046.1390              3058.0384
 Red. masses --      1.0354                 1.0905                 1.1043
 Frc consts  --      5.6530                 5.9619                 6.0844
 IR Inten    --     16.0766                12.9316                39.4891

                    121                    122                    123
                      A                      A                      A
 Frequencies --   3072.9300              3082.3737              3084.3284
 Red. masses --      1.1016                 1.0748                 1.0855
 Frc consts  --      6.1288                 6.0168                 6.0841
 IR Inten    --     74.2108                 8.9493                74.9020

                    124                    125                    126
                      A                      A                      A
 Frequencies --   3093.9844              3099.3548              3111.3152
 Red. masses --      1.1020                 1.1010                 1.1005
 Frc consts  --      6.2155                 6.2310                 6.2767
 IR Inten    --     61.2986                40.1622                44.7260

                    127                    128                    129
                      A                      A                      A
 Frequencies --   3115.7942              3120.8874              3131.7357
 Red. masses --      1.0958                 1.1021                 1.1027
 Frc consts  --      6.2678                 6.3242                 6.3721
 IR Inten    --     21.3167                33.9572                16.6028

 - Thermochemistry -
 -------------------
 Temperature   298.150 Kelvin.  Pressure   1.00000 Atm.
 Atom     1 has atomic number  6 and mass  12.00000

 Molecular mass:   231.21983 amu.
 Principal axes and moments of inertia in atomic units:
                           1         2         3
     Eigenvalues --  1196.29013********************
           X            0.99999  -0.00363  -0.00363
           Y            0.00361   0.99998  -0.00543
           Z            0.00365   0.00542   0.99998
 This molecule is an asymmetric top.
 Rotational symmetry number  1.
 Warning -- assumption of classical behavior for rotation
           may cause significant error
 Rotational temperatures (Kelvin)      0.07240     0.00461     0.00443
 Rotational constants (GHZ):           1.50861     0.09600     0.09232
 Zero-point vibrational energy    1081013.7 (Joules/Mol)
                                  258.36849 (Kcal/Mol)
 Warning -- explicit consideration of  31 degrees of freedom as
           vibrations may cause significant error
 Vibrational temperatures:     18.75    23.69    43.25    54.31    72.50
          (Kelvin)             87.31    97.20   123.34   134.70   149.22
                              171.76   212.85   224.51   228.70   249.22
                              284.74   314.99   328.30   356.52   367.31
                              399.55   452.88   499.23   560.37   583.26
                              597.28   653.72   692.32   736.23   759.63
                              862.61  1053.54  1066.82  1113.99  1169.41
                             1209.12  1220.47  1260.46  1293.51  1337.26
                             1343.58  1433.74  1467.85  1477.90  1498.94
                             1524.63  1535.15  1540.35  1547.36  1554.80
                             1570.67  1586.01  1629.28  1636.64  1644.08
                             1670.98  1680.21  1683.79  1703.46  1736.71
                             1757.48  1783.20  1791.25  1812.11  1842.00
                             1845.85  1881.03  1895.25  1902.03  1912.71
                             1922.20  1935.28  1943.94  1958.43  1984.29
                             2001.56  2007.71  2016.09  2021.44  2033.57
                             2040.13  2079.95  2105.87  2124.64  2131.68
                             2134.10  2134.56  2135.69  2138.28  2144.10
                             2153.75  2156.43  2158.03  2159.01  2162.11
                             2167.08  2176.21  2176.88  2183.21  2197.54
                             4159.18  4164.01  4198.15  4233.51  4279.49
                             4282.91  4314.87  4316.16  4326.79  4327.18
                             4338.77  4344.38  4346.42  4352.61  4355.40
                             4356.40  4375.68  4379.84  4382.71  4399.84
                             4421.26  4434.85  4437.66  4451.55  4459.28
                             4476.49  4482.93  4490.26  4505.87

 Zero-point correction=                           0.411736 (Hartree/Particle)
 Thermal correction to Energy=                    0.433307
 Thermal correction to Enthalpy=                  0.434251
 Thermal correction to Gibbs Free Energy=         0.356688
 Sum of electronic and zero-point Energies=           -717.667723
 Sum of electronic and thermal Energies=              -717.646153
 Sum of electronic and thermal Enthalpies=            -717.645209
 Sum of electronic and thermal Free Energies=         -717.722772

                     E (Thermal)             CV                S
                      KCal/Mol        Cal/Mol-Kelvin    Cal/Mol-Kelvin
 Total                  271.904             75.191            163.246
 Electronic               0.000              0.000              0.000
 Translational            0.889              2.981             42.217
 Rotational               0.889              2.981             34.441
 Vibrational            270.127             69.229             86.589
 Vibration     1          0.593              1.987              7.485
 Vibration     2          0.593              1.986              7.020
 Vibration     3          0.594              1.984              5.825
 Vibration     4          0.594              1.982              5.374
 Vibration     5          0.595              1.977              4.802
 Vibration     6          0.597              1.973              4.435
 Vibration     7          0.598              1.970              4.223
 Vibration     8          0.601              1.959              3.755
 Vibration     9          0.603              1.954              3.583
 Vibration    10          0.605              1.946              3.383
 Vibration    11          0.609              1.933              3.110
 Vibration    12          0.617              1.905              2.699
 Vibration    13          0.620              1.896              2.597
 Vibration    14          0.621              1.893              2.562
 Vibration    15          0.627              1.875              2.400
 Vibration    16          0.637              1.843              2.152
 Vibration    17          0.647              1.812              1.968
 Vibration    18          0.651              1.798              1.893
 Vibration    19          0.661              1.766              1.746
 Vibration    20          0.666              1.754              1.694
 Vibration    21          0.679              1.715              1.548
 Vibration    22          0.702              1.645              1.337
 Vibration    23          0.725              1.581              1.180
 Vibration    24          0.757              1.493              1.002
 Vibration    25          0.770              1.459              0.943
 Vibration    26          0.779              1.437              0.909
 Vibration    27          0.813              1.351              0.783
 Vibration    28          0.837              1.292              0.707
 Vibration    29          0.867              1.224              0.629
 Vibration    30          0.883              1.188              0.592
 Vibration    31          0.958              1.033              0.450

 Optimization completed on the basis of negligible forces.
    -- Stationary point found.
 Normal termination of Gaussian 16 at Wed May 24 16:13:48 2023.
