 Gaussian 16, Revision A.03,
 Gaussian 16:  ES64L-G16RevA.03 25-Dec-2016

 -----------------------------
 # opt freq b3lyp/6-31g(2df,p)
 -----------------------------

 -------------------
 Title Card Required
 -------------------
 Symbolic Z-matrix:
 Charge =  0 Multiplicity = 1

 SCF Done:  E(RB3LYP) =  -394.355461274     A.U. after   12 cycles
 SCF Done:  E(RB3LYP) =  -394.361671392     A.U. after   12 cycles
 SCF Done:  E(RB3LYP) =  -394.364096345     A.U. after   10 cycles
 SCF Done:  E(RB3LYP) =  -394.365844279     A.U. after   10 cycles
 SCF Done:  E(RB3LYP) =  -394.366458261     A.U. after   10 cycles
 SCF Done:  E(RB3LYP) =  -394.366673300     A.U. after    9 cycles
 SCF Done:  E(RB3LYP) =  -394.366749690     A.U. after    8 cycles
 SCF Done:  E(RB3LYP) =  -394.367150733     A.U. after   10 cycles
 SCF Done:  E(RB3LYP) =  -394.367444195     A.U. after    9 cycles
 SCF Done:  E(RB3LYP) =  -394.366882807     A.U. after   10 cycles
 SCF Done:  E(RB3LYP) =  -394.366555796     A.U. after   10 cycles
 SCF Done:  E(RB3LYP) =  -394.367456564     A.U. after   10 cycles
 SCF Done:  E(RB3LYP) =  -394.367988604     A.U. after    6 cycles
 SCF Done:  E(RB3LYP) =  -394.367726622     A.U. after    8 cycles
 SCF Done:  E(RB3LYP) =  -394.368007226     A.U. after    8 cycles
 SCF Done:  E(RB3LYP) =  -394.368027689     A.U. after    8 cycles
 SCF Done:  E(RB3LYP) =  -394.368029334     A.U. after    7 cycles
 SCF Done:  E(RB3LYP) =  -394.368029791     A.U. after    6 cycles
 SCF Done:  E(RB3LYP) =  -394.368029936     A.U. after    6 cycles
 Optimization completed.
    -- Stationary point found.
 Normal termination of Gaussian 16 at Sun May 28 22:25:48 2023.

 ----------------------------------------------------------------------
 #N Geom=AllCheck Guess=TCheck SCRF=Check GenChk RB3LYP/6-31G(2df,p) Fr
 eq
 ----------------------------------------------------------------------

 Structure from the checkpoint file:  "CCCCCqCrCCqCrC.chk"
 -------------------
 Title Card Required
 -------------------
 Charge =  0 Multiplicity = 1

                         Standard orientation:
 ---------------------------------------------------------------------
 Center     Atomic      Atomic             Coordinates (Angstroms)
 Number     Number       Type             X           Y           Z
 ---------------------------------------------------------------------
      1          6           0       -4.843546   -0.140429   -0.467943
      2          6           0       -3.538536   -0.732256    0.071334
      3          6           0       -2.322062    0.171052   -0.163876
      4          6           0       -1.018349   -0.423068    0.381487
      5          6           0        0.261324    0.377037    0.064097
      6          6           0        0.203344    1.796541    0.652087
      7          6           0        1.518479   -0.391524    0.549625
      8          6           0        2.708428   -0.426349   -0.430314
      9          6           0        3.270946    0.963166   -0.760208
     10          6           0        3.818593   -1.337867    0.111131
     11          1           0       -5.691929   -0.807933   -0.286477
     12          1           0       -4.782560    0.033873   -1.548137
     13          1           0       -5.068958    0.820751    0.007648
     14          1           0       -3.358879   -1.710048   -0.395216
     15          1           0       -3.641349   -0.926459    1.147368
     16          1           0       -2.513816    1.149388    0.294365
     17          1           0       -2.213552    0.357240   -1.242261
     18          1           0       -0.900347   -1.436782   -0.025415
     19          1           0       -1.101616   -0.545440    1.471648
     20          1           0        0.321328    0.465845   -1.030980
     21          1           0        0.041251    1.755783    1.736395
     22          1           0       -0.607296    2.388270    0.216787
     23          1           0        1.136047    2.340623    0.480970
     24          1           0        1.240989   -1.431584    0.762853
     25          1           0        1.856636    0.026300    1.508748
     26          1           0        2.342134   -0.867941   -1.369260
     27          1           0        3.629934    1.466784    0.145734
     28          1           0        2.523431    1.609410   -1.229094
     29          1           0        4.117355    0.885141   -1.451133
     30          1           0        4.224204   -0.944433    1.051204
     31          1           0        4.648880   -1.417794   -0.598639
     32          1           0        3.446385   -2.348814    0.308368
 ---------------------------------------------------------------------

 SCF Done:  E(RB3LYP) =  -394.368029936     A.U. after    1 cycles

 The electronic state is 1-A.
 Alpha  occ. eigenvalues --  -10.18163 -10.17905 -10.17441 -10.17136 -10.17051
 Alpha  occ. eigenvalues --  -10.16865 -10.16842 -10.16724 -10.16680 -10.16554
 Alpha  occ. eigenvalues --   -0.81632  -0.78995  -0.76135  -0.70311  -0.67883
 Alpha  occ. eigenvalues --   -0.67030  -0.62942  -0.57701  -0.55601  -0.54960
 Alpha  occ. eigenvalues --   -0.46818  -0.45510  -0.44537  -0.43735  -0.42046
 Alpha  occ. eigenvalues --   -0.41249  -0.39526  -0.39183  -0.38278  -0.37539
 Alpha  occ. eigenvalues --   -0.37239  -0.35033  -0.34988  -0.33892  -0.33445
 Alpha  occ. eigenvalues --   -0.32344  -0.31974  -0.31555  -0.30720  -0.30416
 Alpha  occ. eigenvalues --   -0.28777
 Alpha virt. eigenvalues --    0.08376   0.09585   0.11186   0.11279   0.12259
 Alpha virt. eigenvalues --    0.13392   0.14012   0.14537   0.14991   0.15475
 Alpha virt. eigenvalues --    0.15773   0.16721   0.18074   0.18423   0.18535

 Mulliken charges:
               1
     1  C   -0.379789
     2  C   -0.161001
     3  C   -0.172046
     4  C   -0.185153
     5  C    0.033572
     6  C   -0.394928
     7  C   -0.191459
     8  C    0.046439
     9  C   -0.378884
    10  C   -0.388336
    11  H    0.109370
    12  H    0.112149
    13  H    0.112288
    14  H    0.092434
    15  H    0.093148
    16  H    0.094984
    17  H    0.088412
    18  H    0.086727
    19  H    0.088848
    20  H    0.065320
    21  H    0.108622
    22  H    0.111727
    23  H    0.113359
    24  H    0.084657
    25  H    0.084784
    26  H    0.068588
    27  H    0.109464
    28  H    0.115755
    29  H    0.105794
    30  H    0.110464
    31  H    0.106715
    32  H    0.107973
 Sum of Mulliken charges =  -0.00000

 Dipole moment (field-independent basis, Debye):
    X=             -0.0090    Y=             -0.0732    Z=             -0.0841  Tot=              0.1119
 Quadrupole moment (field-independent basis, Debye-Ang):
   XX=            -69.1773   YY=            -68.4932   ZZ=            -67.4405
   XY=              0.1933   XZ=             -0.4279   YZ=              0.4051

  Exact polarizability: 135.610  -1.044 104.045  -0.367  -0.605  96.172
 Approx polarizability: 153.024  -0.049 149.755  -0.323   0.568 150.487

                      1                      2                      3
                      A                      A                      A
 Frequencies --     35.9295                58.6780                65.6158
 Red. masses --      3.0114                 1.9402                 2.2373
 Frc consts  --      0.0023                 0.0039                 0.0057
 IR Inten    --      0.0065                 0.0040                 0.0062

                      4                      5                      6
                      A                      A                      A
 Frequencies --     93.0102               118.1350               147.9406
 Red. masses --      2.4116                 2.5493                 2.0361
 Frc consts  --      0.0123                 0.0210                 0.0263
 IR Inten    --      0.0024                 0.0099                 0.0178

                      7                      8                      9
                      A                      A                      A
 Frequencies --    192.5589               230.3180               235.3731
 Red. masses --      2.0388                 1.1549                 1.6599
 Frc consts  --      0.0445                 0.0361                 0.0542
 IR Inten    --      0.0056                 0.0078                 0.0168

                     10                     11                     12
                      A                      A                      A
 Frequencies --    245.4316               256.1812               284.4564
 Red. masses --      1.1816                 1.2666                 1.1743
 Frc consts  --      0.0419                 0.0490                 0.0560
 IR Inten    --      0.0310                 0.0446                 0.0247

                     13                     14                     15
                      A                      A                      A
 Frequencies --    303.2696               325.6789               383.0754
 Red. masses --      2.6223                 2.8195                 2.1794
 Frc consts  --      0.1421                 0.1762                 0.1884
 IR Inten    --      0.0385                 0.0901                 0.0170

                     16                     17                     18
                      A                      A                      A
 Frequencies --    407.7138               421.2736               492.6224
 Red. masses --      1.8205                 2.2063                 2.3637
 Frc consts  --      0.1783                 0.2307                 0.3380
 IR Inten    --      0.1951                 0.0878                 0.0761

                     19                     20                     21
                      A                      A                      A
 Frequencies --    518.9062               736.2709               786.3790
 Red. masses --      2.5381                 1.0837                 1.2543
 Frc consts  --      0.4027                 0.3461                 0.4570
 IR Inten    --      0.0398                 2.8679                 0.3093

                     22                     23                     24
                      A                      A                      A
 Frequencies --    813.6616               857.1537               869.6542
 Red. masses --      2.6781                 2.2981                 1.4117
 Frc consts  --      1.0446                 0.9948                 0.6290
 IR Inten    --      0.7208                 0.6640                 0.6026

                     25                     26                     27
                      A                      A                      A
 Frequencies --    904.4564               914.5779               926.5004
 Red. masses --      1.7972                 1.2647                 1.3078
 Frc consts  --      0.8662                 0.6233                 0.6614
 IR Inten    --      1.8028                 1.3440                 0.4582

                     28                     29                     30
                      A                      A                      A
 Frequencies --    935.6421               965.2832               986.4631
 Red. masses --      1.7835                 1.5358                 1.6496
 Frc consts  --      0.9199                 0.8431                 0.9458
 IR Inten    --      0.4945                 0.3094                 3.8437

                     31                     32                     33
                      A                      A                      A
 Frequencies --   1012.7020              1030.2422              1056.6566
 Red. masses --      1.3464                 2.5158                 2.1210
 Frc consts  --      0.8136                 1.5733                 1.3953
 IR Inten    --      0.1982                 0.4853                 0.9408

                     34                     35                     36
                      A                      A                      A
 Frequencies --   1069.3327              1083.1962              1114.6024
 Red. masses --      2.3316                 1.6218                 1.9953
 Frc consts  --      1.5708                 1.1211                 1.4605
 IR Inten    --      0.1277                 0.4760                 1.1845

                     37                     38                     39
                      A                      A                      A
 Frequencies --   1157.8604              1185.0627              1194.9722
 Red. masses --      2.4238                 1.9700                 1.8053
 Frc consts  --      1.9145                 1.6301                 1.5189
 IR Inten    --      3.0931                 2.8594                 3.1108

                     40                     41                     42
                      A                      A                      A
 Frequencies --   1198.2466              1244.5579              1268.4962
 Red. masses --      2.0747                 1.4546                 1.3143
 Frc consts  --      1.7551                 1.3275                 1.2460
 IR Inten    --      1.9556                 4.1455                 5.2292

                     43                     44                     45
                      A                      A                      A
 Frequencies --   1273.8481              1308.5945              1318.7824
 Red. masses --      1.2298                 1.2285                 1.2117
 Frc consts  --      1.1757                 1.2395                 1.2416
 IR Inten    --      0.2815                 0.1272                 0.7609

                     46                     47                     48
                      A                      A                      A
 Frequencies --   1332.3714              1346.8538              1365.1559
 Red. masses --      1.0666                 1.3025                 1.3631
 Frc consts  --      1.1156                 1.3921                 1.4967
 IR Inten    --      0.4386                 3.5188                 6.1405

                     49                     50                     51
                      A                      A                      A
 Frequencies --   1372.7491              1381.4998              1387.2919
 Red. masses --      1.3804                 1.3947                 1.3928
 Frc consts  --      1.5326                 1.5683                 1.5794
 IR Inten    --      0.4770                 1.7334                 1.2497

                     52                     53                     54
                      A                      A                      A
 Frequencies --   1397.3415              1400.9323              1411.4476
 Red. masses --      1.5158                 1.3108                 1.2403
 Frc consts  --      1.7438                 1.5158                 1.4558
 IR Inten    --      2.5474                 5.2296                 2.6042

                     55                     56                     57
                      A                      A                      A
 Frequencies --   1414.0601              1421.6637              1478.2080
 Red. masses --      1.2638                 1.2385                 1.0753
 Frc consts  --      1.4889                 1.4748                 1.3844
 IR Inten    --      3.7658                 1.6621                 0.2504

                     58                     59                     60
                      A                      A                      A
 Frequencies --   1483.2032              1485.9347              1489.2617
 Red. masses --      1.0682                 1.0657                 1.0498
 Frc consts  --      1.3845                 1.3864                 1.3718
 IR Inten    --      0.0885                 0.6244                 0.7256

                     61                     62                     63
                      A                      A                      A
 Frequencies --   1496.0644              1498.7442              1499.6262
 Red. masses --      1.0642                 1.0544                 1.0535
 Frc consts  --      1.4034                 1.3954                 1.3959
 IR Inten    --      2.6524                 3.2222                 4.3864

                     64                     65                     66
                      A                      A                      A
 Frequencies --   1499.8324              1503.6164              1507.9794
 Red. masses --      1.0580                 1.0514                 1.0488
 Frc consts  --      1.4023                 1.4006                 1.4052
 IR Inten    --      1.5712                 2.7084                 2.6392

                     67                     68                     69
                      A                      A                      A
 Frequencies --   1512.7930              1513.8500              2984.3379
 Red. masses --      1.0880                 1.0515                 1.0809
 Frc consts  --      1.4670                 1.4198                 5.6721
 IR Inten    --      2.4556                 8.2525                 2.5179

                     70                     71                     72
                      A                      A                      A
 Frequencies --   2988.5334              2994.1546              3002.5937
 Red. masses --      1.0792                 1.0603                 1.0620
 Frc consts  --      5.6791                 5.6003                 5.6412
 IR Inten    --     10.8542                 2.5260                 1.2673

                     73                     74                     75
                      A                      A                      A
 Frequencies --   3006.1167              3014.5928              3020.8356
 Red. masses --      1.0628                 1.0620                 1.0359
 Frc consts  --      5.6588                 5.6862                 5.5696
 IR Inten    --     36.3322                61.2345                33.6547

                     76                     77                     78
                      A                      A                      A
 Frequencies --   3025.8655              3026.4427              3027.8938
 Red. masses --      1.0459                 1.0643                 1.0507
 Frc consts  --      5.6420                 5.7436                 5.6758
 IR Inten    --     29.5328                 6.9453                42.9475

                     79                     80                     81
                      A                      A                      A
 Frequencies --   3029.1847              3036.2282              3042.7299
 Red. masses --      1.0469                 1.0991                 1.1004
 Frc consts  --      5.6599                 5.9697                 6.0022
 IR Inten    --     13.6989                 0.8662                33.0743

                     82                     83                     84
                      A                      A                      A
 Frequencies --   3061.4667              3084.2675              3090.1954
 Red. masses --      1.1026                 1.1005                 1.1001
 Frc consts  --      6.0885                 6.1681                 6.1896
 IR Inten    --     69.3919                 4.7791                63.5031

                     85                     86                     87
                      A                      A                      A
 Frequencies --   3093.6298              3094.9434              3095.9744
 Red. masses --      1.1019                 1.0971                 1.1006
 Frc consts  --      6.2134                 6.1916                 6.2153
 IR Inten    --     68.1157                 9.1785                52.6920

                     88                     89                     90
                      A                      A                      A
 Frequencies --   3098.8226              3104.5662              3115.3077
 Red. masses --      1.1009                 1.0998                 1.0997
 Frc consts  --      6.2287                 6.2454                 6.2881
 IR Inten    --     43.3690                59.8143                20.2850

 - Thermochemistry -
 -------------------
 Temperature   298.150 Kelvin.  Pressure   1.00000 Atm.
 Atom     1 has atomic number  6 and mass  12.00000

 Molecular mass:   142.17215 amu.
 Principal axes and moments of inertia in atomic units:
                           1         2         3
     Eigenvalues --   613.298624266.966714558.59405
           X            1.00000  -0.00035   0.00128
           Y            0.00036   0.99997  -0.00782
           Z           -0.00128   0.00782   0.99997
 This molecule is an asymmetric top.
 Rotational symmetry number  1.
 Warning -- assumption of classical behavior for rotation
           may cause significant error
 Rotational temperatures (Kelvin)      0.14123     0.02030     0.01900
 Rotational constants (GHZ):           2.94268     0.42296     0.39590
 Zero-point vibrational energy     791141.5 (Joules/Mol)
                                  189.08735 (Kcal/Mol)
 Warning -- explicit consideration of  19 degrees of freedom as
           vibrations may cause significant error
 Vibrational temperatures:     51.69    84.42    94.41   133.82   169.97
          (Kelvin)            212.85   277.05   331.38   338.65   353.12
                              368.59   409.27   436.34   468.58   551.16
                              586.61   606.12   708.77   746.59  1059.33
                             1131.42  1170.68  1233.25  1251.24  1301.31
                             1315.87  1333.03  1346.18  1388.83  1419.30
                             1457.05  1482.29  1520.29  1538.53  1558.48
                             1603.66  1665.90  1705.04  1719.30  1724.01
                             1790.64  1825.08  1832.78  1882.78  1897.43
                             1916.99  1937.82  1964.15  1975.08  1987.67
                             1996.00  2010.46  2015.63  2030.76  2034.52
                             2045.46  2126.81  2134.00  2137.93  2142.72
                             2152.50  2156.36  2157.63  2157.92  2163.37
                             2169.65  2176.57  2178.09  4293.80  4299.83
                             4307.92  4320.06  4325.13  4337.33  4346.31
                             4353.55  4354.38  4356.46  4358.32  4368.46
                             4377.81  4404.77  4437.57  4446.10  4451.04
                             4452.93  4454.42  4458.51  4466.78  4482.23

 Zero-point correction=                           0.301330 (Hartree/Particle)
 Thermal correction to Energy=                    0.315026
 Thermal correction to Enthalpy=                  0.315970
 Thermal correction to Gibbs Free Energy=         0.260929
 Sum of electronic and zero-point Energies=           -394.066700
 Sum of electronic and thermal Energies=              -394.053004
 Sum of electronic and thermal Enthalpies=            -394.052060
 Sum of electronic and thermal Free Energies=         -394.107101

                     E (Thermal)             CV                S
                      KCal/Mol        Cal/Mol-Kelvin    Cal/Mol-Kelvin
 Total                  197.682             50.047            115.844
 Electronic               0.000              0.000              0.000
 Translational            0.889              2.981             40.767
 Rotational               0.889              2.981             30.857
 Vibrational            195.904             44.085             44.220
 Vibration     1          0.594              1.982              5.472
 Vibration     2          0.596              1.974              4.501
 Vibration     3          0.597              1.971              4.281
 Vibration     4          0.602              1.954              3.596
 Vibration     5          0.608              1.934              3.131
 Vibration     6          0.617              1.905              2.699
 Vibration     7          0.635              1.850              2.203
 Vibration     8          0.652              1.795              1.876
 Vibration     9          0.655              1.787              1.838
 Vibration    10          0.660              1.770              1.763
 Vibration    11          0.666              1.752              1.688
 Vibration    12          0.683              1.703              1.507
 Vibration    13          0.695              1.668              1.399
 Vibration    14          0.710              1.624              1.281
 Vibration    15          0.752              1.506              1.027
 Vibration    16          0.772              1.453              0.935
 Vibration    17          0.784              1.424              0.888
 Vibration    18          0.848              1.266              0.677
 Vibration    19          0.874              1.208              0.613

 Optimization completed.
    -- Stationary point found.
 Normal termination of Gaussian 16 at Sun May 28 23:22:56 2023.
