 Gaussian 16, Revision A.03,
 Gaussian 16:  ES64L-G16RevA.03 25-Dec-2016

 -----------------------------
 # opt freq b3lyp/6-31g(2df,p)
 -----------------------------

 -------------------
 Title Card Required
 -------------------
 Symbolic Z-matrix:
 Charge =  0 Multiplicity = 1

 SCF Done:  E(RB3LYP) =  -463.240614001     A.U. after   12 cycles
 SCF Done:  E(RB3LYP) =  -463.249144976     A.U. after   11 cycles
 SCF Done:  E(RB3LYP) =  -463.250920943     A.U. after   11 cycles
 SCF Done:  E(RB3LYP) =  -463.252600329     A.U. after   11 cycles
 SCF Done:  E(RB3LYP) =  -463.253558811     A.U. after   11 cycles
 SCF Done:  E(RB3LYP) =  -463.254658542     A.U. after   10 cycles
 SCF Done:  E(RB3LYP) =  -463.254870938     A.U. after    9 cycles
 SCF Done:  E(RB3LYP) =  -463.254892319     A.U. after    9 cycles
 SCF Done:  E(RB3LYP) =  -463.254898418     A.U. after    8 cycles
 SCF Done:  E(RB3LYP) =  -463.254899742     A.U. after    7 cycles
 SCF Done:  E(RB3LYP) =  -463.254899898     A.U. after    6 cycles
 Optimization completed.
    -- Stationary point found.
 Normal termination of Gaussian 16 at Tue May 23 06:16:45 2023.

 ----------------------------------------------------------------------
 #N Geom=AllCheck Guess=TCheck SCRF=Check GenChk RB3LYP/6-31G(2df,p) Fr
 eq
 ----------------------------------------------------------------------

 Structure from the checkpoint file:  "CCCCN1CC1CC1CN1.chk"
 -------------------
 Title Card Required
 -------------------
 Charge =  0 Multiplicity = 1

                         Standard orientation:
 ---------------------------------------------------------------------
 Center     Atomic      Atomic             Coordinates (Angstroms)
 Number     Number       Type             X           Y           Z
 ---------------------------------------------------------------------
      1          6           0       -4.732827   -0.518592   -0.344400
      2          6           0       -3.417477   -0.577231    0.437052
      3          6           0       -2.253074    0.090650   -0.301672
      4          6           0       -0.939735    0.032913    0.478051
      5          7           0        0.151603    0.641979   -0.280892
      6          6           0        0.332985    2.080254   -0.097189
      7          6           0        1.310413    1.116420    0.481362
      8          6           0        2.688148    0.913193   -0.115442
      9          6           0        3.175921   -0.525553   -0.189659
     10          6           0        2.583438   -1.622652    0.616600
     11          7           0        2.355612   -1.558552   -0.837941
     12          1           0       -5.545873   -1.003039    0.205135
     13          1           0       -4.639436   -1.020952   -1.313455
     14          1           0       -5.032247    0.517461   -0.537962
     15          1           0       -3.162313   -1.624725    0.645514
     16          1           0       -3.551782   -0.098099    1.416084
     17          1           0       -2.501648    1.140104   -0.509047
     18          1           0       -2.103032   -0.387823   -1.277153
     19          1           0       -0.670037   -1.013626    0.669894
     20          1           0       -1.068310    0.516899    1.464066
     21          1           0       -0.340112    2.588884    0.591282
     22          1           0        0.586735    2.647369   -0.988917
     23          1           0        1.249332    0.986940    1.562680
     24          1           0        3.406161    1.503866    0.468696
     25          1           0        2.701192    1.331716   -1.129967
     26          1           0        4.233688   -0.605572   -0.437742
     27          1           0        1.760942   -1.387555    1.286262
     28          1           0        3.204803   -2.450226    0.948716
     29          1           0        1.434682   -1.162032   -1.020474
 ---------------------------------------------------------------------

 SCF Done:  E(RB3LYP) =  -463.254899898     A.U. after    1 cycles

 The electronic state is 1-A.
 Alpha  occ. eigenvalues --  -14.33366 -14.30644 -10.21867 -10.21210 -10.21020
 Alpha  occ. eigenvalues --  -10.20590 -10.19848 -10.18775 -10.18224 -10.17910
 Alpha  occ. eigenvalues --  -10.17379  -0.97036  -0.93845  -0.80192  -0.75825
 Alpha  occ. eigenvalues --   -0.72753  -0.66267  -0.63716  -0.61463  -0.59701
 Alpha  occ. eigenvalues --   -0.57827  -0.55805  -0.50474  -0.48383  -0.48125
 Alpha  occ. eigenvalues --   -0.46806  -0.44394  -0.43205  -0.41506  -0.41134
 Alpha  occ. eigenvalues --   -0.38907  -0.37734  -0.36598  -0.36080  -0.34593
 Alpha  occ. eigenvalues --   -0.33645  -0.32722  -0.32636  -0.32187  -0.30604
 Alpha  occ. eigenvalues --   -0.30043  -0.24659  -0.22477
 Alpha virt. eigenvalues --    0.08014   0.08751   0.09748   0.10394   0.11209
 Alpha virt. eigenvalues --    0.12728   0.12989   0.13668   0.14416   0.14937
 Alpha virt. eigenvalues --    0.15265   0.15839   0.16579   0.16685   0.17486

 Mulliken charges:
               1
     1  C   -0.379266
     2  C   -0.164998
     3  C   -0.164574
     4  C   -0.148758
     5  N   -0.081114
     6  C   -0.270281
     7  C    0.011209
     8  C   -0.257649
     9  C    0.029873
    10  C   -0.241347
    11  N   -0.323676
    12  H    0.111876
    13  H    0.116807
    14  H    0.113882
    15  H    0.097518
    16  H    0.094003
    17  H    0.095859
    18  H    0.107043
    19  H    0.105061
    20  H    0.079604
    21  H    0.108125
    22  H    0.116413
    23  H    0.087759
    24  H    0.103545
    25  H    0.107999
    26  H    0.085663
    27  H    0.105483
    28  H    0.109838
    29  H    0.244101
 Sum of Mulliken charges =   0.00000

 Dipole moment (field-independent basis, Debye):
    X=             -1.0561    Y=              1.8774    Z=              1.8631  Tot=              2.8480
 Quadrupole moment (field-independent basis, Debye-Ang):
   XX=            -69.4454   YY=            -70.7629   ZZ=            -71.1615
   XY=              4.2807   XZ=              2.7960   YZ=             -2.9110

  Exact polarizability: 129.533   0.647 106.364   0.115  -4.411  91.320
 Approx polarizability: 154.329   0.939 155.712   0.936  -4.127 146.869

                      1                      2                      3
                      A                      A                      A
 Frequencies --     42.1944                63.7870                74.0073
 Red. masses --      3.3719                 1.9844                 2.5045
 Frc consts  --      0.0035                 0.0048                 0.0081
 IR Inten    --      0.3176                 0.6126                 0.4423

                      4                      5                      6
                      A                      A                      A
 Frequencies --    101.8724               114.3056               148.2917
 Red. masses --      3.2191                 2.9791                 2.2529
 Frc consts  --      0.0197                 0.0229                 0.0292
 IR Inten    --      0.6506                 0.3861                 0.3714

                      7                      8                      9
                      A                      A                      A
 Frequencies --    150.4482               246.2312               251.1823
 Red. masses --      2.5265                 1.2705                 2.4268
 Frc consts  --      0.0337                 0.0454                 0.0902
 IR Inten    --      0.5245                 0.1750                 0.7446

                     10                     11                     12
                      A                      A                      A
 Frequencies --    272.8945               323.6871               357.6679
 Red. masses --      3.4014                 2.9535                 2.1972
 Frc consts  --      0.1492                 0.1823                 0.1656
 IR Inten    --      0.9657                 0.8820                 0.5181

                     13                     14                     15
                      A                      A                      A
 Frequencies --    405.4520               444.2096               480.4949
 Red. masses --      2.3594                 2.8636                 2.8589
 Frc consts  --      0.2285                 0.3329                 0.3889
 IR Inten    --      2.1595                 1.4919                 3.1573

                     16                     17                     18
                      A                      A                      A
 Frequencies --    583.0589               741.7422               756.1603
 Red. masses --      2.4173                 1.0734                 3.1459
 Frc consts  --      0.4842                 0.3479                 1.0598
 IR Inten    --      1.6310                 2.7617                 0.5245

                     19                     20                     21
                      A                      A                      A
 Frequencies --    805.4558               818.2227               835.7472
 Red. masses --      1.2766                 2.4734                 3.5209
 Frc consts  --      0.4880                 0.9756                 1.4490
 IR Inten    --      0.4236                24.1805                 1.8197

                     22                     23                     24
                      A                      A                      A
 Frequencies --    842.8156               881.6621               911.9186
 Red. masses --      2.9306                 1.7518                 1.7294
 Frc consts  --      1.2265                 0.8023                 0.8474
 IR Inten    --     27.9268                 4.7205                 2.0969

                     25                     26                     27
                      A                      A                      A
 Frequencies --    939.3694               951.2335               974.0616
 Red. masses --      2.1354                 1.1863                 2.9739
 Frc consts  --      1.1102                 0.6324                 1.6624
 IR Inten    --      8.1273                 0.4369                23.3338

                     28                     29                     30
                      A                      A                      A
 Frequencies --    988.3411               992.1316              1023.6342
 Red. masses --      1.4783                 1.1676                 3.1434
 Frc consts  --      0.8508                 0.6772                 1.9406
 IR Inten    --      3.0833                11.6072                 1.1933

                     31                     32                     33
                      A                      A                      A
 Frequencies --   1056.1156              1066.4763              1088.6546
 Red. masses --      1.4494                 2.3094                 1.5012
 Frc consts  --      0.9525                 1.5475                 1.0482
 IR Inten    --     10.1390                 0.1780                 6.3245

                     34                     35                     36
                      A                      A                      A
 Frequencies --   1113.0122              1119.7382              1125.3535
 Red. masses --      1.3233                 1.4090                 1.8162
 Frc consts  --      0.9658                 1.0409                 1.3552
 IR Inten    --      0.8902                 3.5258                 1.4079

                     37                     38                     39
                      A                      A                      A
 Frequencies --   1142.6614              1164.9700              1172.6091
 Red. masses --      1.7451                 1.5585                 1.7065
 Frc consts  --      1.3425                 1.2462                 1.3825
 IR Inten    --      2.7726                 2.9663                13.0131

                     40                     41                     42
                      A                      A                      A
 Frequencies --   1207.1340              1212.2404              1258.8392
 Red. masses --      1.2377                 1.9368                 1.3672
 Frc consts  --      1.0626                 1.6769                 1.2765
 IR Inten    --     19.4539                10.8292                 2.2349

                     43                     44                     45
                      A                      A                      A
 Frequencies --   1271.4271              1279.3201              1290.9270
 Red. masses --      1.3948                 1.6149                 1.4127
 Frc consts  --      1.3285                 1.5573                 1.3871
 IR Inten    --      6.8423                16.2428                 9.2131

                     46                     47                     48
                      A                      A                      A
 Frequencies --   1296.5418              1322.3159              1324.4839
 Red. masses --      1.3968                 1.4016                 1.2078
 Frc consts  --      1.3834                 1.4439                 1.2484
 IR Inten    --      2.1021                13.5155                 6.9435

                     49                     50                     51
                      A                      A                      A
 Frequencies --   1326.4198              1353.8861              1381.0028
 Red. masses --      1.0621                 1.5840                 1.4386
 Frc consts  --      1.1010                 1.7107                 1.6165
 IR Inten    --      1.5833                 8.2132                 3.8870

                     52                     53                     54
                      A                      A                      A
 Frequencies --   1401.6575              1412.8751              1418.6771
 Red. masses --      1.6891                 1.3102                 1.4778
 Frc consts  --      1.9552                 1.5410                 1.7524
 IR Inten    --     20.9443                 2.1267                11.6187

                     55                     56                     57
                      A                      A                      A
 Frequencies --   1450.0077              1475.4405              1484.5144
 Red. masses --      1.5672                 1.1012                 1.0830
 Frc consts  --      1.9414                 1.4124                 1.4062
 IR Inten    --      9.2845                 3.7555                 1.2914

                     58                     59                     60
                      A                      A                      A
 Frequencies --   1488.3847              1499.6960              1499.9907
 Red. masses --      1.0789                 1.1023                 1.0458
 Frc consts  --      1.4082                 1.4606                 1.3864
 IR Inten    --      0.3707                 4.8398                 4.9981

                     61                     62                     63
                      A                      A                      A
 Frequencies --   1510.3692              1514.1211              1518.0722
 Red. masses --      1.1445                 1.2576                 1.1464
 Frc consts  --      1.5382                 1.6986                 1.5566
 IR Inten    --      1.7375                 1.7636                 2.8227

                     64                     65                     66
                      A                      A                      A
 Frequencies --   2928.9797              3011.1757              3017.2826
 Red. masses --      1.0703                 1.0586                 1.0595
 Frc consts  --      5.4099                 5.6554                 5.6828
 IR Inten    --     45.6652                 9.4391                30.5679

                     67                     68                     69
                      A                      A                      A
 Frequencies --   3019.5934              3030.0393              3035.8375
 Red. masses --      1.0647                 1.0381                 1.0820
 Frc consts  --      5.7197                 5.6153                 5.8752
 IR Inten    --     22.9575                30.6686                38.2623

                     70                     71                     72
                      A                      A                      A
 Frequencies --   3038.3630              3050.5769              3069.3331
 Red. masses --      1.0991                 1.1007                 1.1034
 Frc consts  --      5.9782                 6.0352                 6.1245
 IR Inten    --      0.8725                13.6298                36.4902

                     73                     74                     75
                      A                      A                      A
 Frequencies --   3091.6674              3097.0778              3097.7703
 Red. masses --      1.0539                 1.1020                 1.0844
 Frc consts  --      5.9350                 6.2278                 6.1310
 IR Inten    --     20.8106                57.3093                15.9939

                     76                     77                     78
                      A                      A                      A
 Frequencies --   3102.3361              3105.9213              3110.7020
 Red. masses --      1.1011                 1.0719                 1.0696
 Frc consts  --      6.2441                 6.0924                 6.0982
 IR Inten    --     37.2225                40.5861                35.0650

                     79                     80                     81
                      A                      A                      A
 Frequencies --   3179.6879              3188.7301              3479.8360
 Red. masses --      1.1172                 1.1175                 1.0748
 Frc consts  --      6.6551                 6.6949                 7.6683
 IR Inten    --     16.5928                31.7002                26.2920

 - Thermochemistry -
 -------------------
 Temperature   298.150 Kelvin.  Pressure   1.00000 Atm.
 Atom     1 has atomic number  6 and mass  12.00000

 Molecular mass:   154.14700 amu.
 Principal axes and moments of inertia in atomic units:
                           1         2         3
     Eigenvalues --   856.581733857.968394396.18733
           X            0.99995   0.00878   0.00396
           Y           -0.00869   0.99972  -0.02178
           Z           -0.00415   0.02175   0.99975
 This molecule is an asymmetric top.
 Rotational symmetry number  1.
 Warning -- assumption of classical behavior for rotation
           may cause significant error
 Rotational temperatures (Kelvin)      0.10112     0.02245     0.01970
 Rotational constants (GHZ):           2.10691     0.46780     0.41052
 Zero-point vibrational energy     690395.6 (Joules/Mol)
                                  165.00850 (Kcal/Mol)
 Warning -- explicit consideration of  16 degrees of freedom as
           vibrations may cause significant error
 Vibrational temperatures:     60.71    91.78   106.48   146.57   164.46
          (Kelvin)            213.36   216.46   354.27   361.40   392.63
                              465.71   514.60   583.36   639.12   691.32
                              838.89  1067.20  1087.95  1158.87  1177.24
                             1202.45  1212.62  1268.52  1312.05  1351.54
                             1368.61  1401.46  1422.00  1427.46  1472.78
                             1519.51  1534.42  1566.33  1601.38  1611.05
                             1619.13  1644.03  1676.13  1687.12  1736.80
                             1744.14  1811.19  1829.30  1840.66  1857.36
                             1865.43  1902.52  1905.64  1908.42  1947.94
                             1986.95  2016.67  2032.81  2041.16  2086.24
                             2122.83  2135.89  2141.45  2157.73  2158.15
                             2173.08  2178.48  2184.17  4214.15  4332.41
                             4341.20  4344.52  4359.55  4367.89  4371.53
                             4389.10  4416.09  4448.22  4456.00  4457.00
                             4463.57  4468.73  4475.61  4574.86  4587.87
                             5006.71

 Zero-point correction=                           0.262958 (Hartree/Particle)
 Thermal correction to Energy=                    0.275365
 Thermal correction to Enthalpy=                  0.276309
 Thermal correction to Gibbs Free Energy=         0.223481
 Sum of electronic and zero-point Energies=           -462.991942
 Sum of electronic and thermal Energies=              -462.979535
 Sum of electronic and thermal Enthalpies=            -462.978591
 Sum of electronic and thermal Free Energies=         -463.031419

                     E (Thermal)             CV                S
                      KCal/Mol        Cal/Mol-Kelvin    Cal/Mol-Kelvin
 Total                  172.794             45.794            111.186
 Electronic               0.000              0.000              0.000
 Translational            0.889              2.981             41.008
 Rotational               0.889              2.981             31.053
 Vibrational            171.016             39.832             39.125
 Vibration     1          0.595              1.980              5.153
 Vibration     2          0.597              1.972              4.336
 Vibration     3          0.599              1.966              4.044
 Vibration     4          0.604              1.948              3.418
 Vibration     5          0.607              1.938              3.194
 Vibration     6          0.618              1.905              2.694
 Vibration     7          0.618              1.902              2.667
 Vibration     8          0.661              1.769              1.757
 Vibration     9          0.663              1.761              1.722
 Vibration    10          0.676              1.723              1.578
 Vibration    11          0.708              1.628              1.291
 Vibration    12          0.733              1.559              1.132
 Vibration    13          0.770              1.458              0.943
 Vibration    14          0.804              1.374              0.813
 Vibration    15          0.837              1.293              0.709
 Vibration    16          0.940              1.068              0.480

 Optimization completed.
    -- Stationary point found.
 Normal termination of Gaussian 16 at Tue May 23 07:24:31 2023.
