 Gaussian 16, Revision A.03,
 Gaussian 16:  ES64L-G16RevA.03 25-Dec-2016

 -----------------------------
 # opt freq b3lyp/6-31g(2df,p)
 -----------------------------

 -------------------
 Title Card Required
 -------------------
 Symbolic Z-matrix:
 Charge =  0 Multiplicity = 1

 SCF Done:  E(RB3LYP) =  -564.222345084     A.U. after   12 cycles
 SCF Done:  E(RB3LYP) =  -564.227757071     A.U. after   10 cycles
 SCF Done:  E(RB3LYP) =  -564.228796060     A.U. after   10 cycles
 SCF Done:  E(RB3LYP) =  -564.230630237     A.U. after   10 cycles
 SCF Done:  E(RB3LYP) =  -564.231265684     A.U. after   10 cycles
 SCF Done:  E(RB3LYP) =  -564.231703019     A.U. after   10 cycles
 SCF Done:  E(RB3LYP) =  -564.232090348     A.U. after   10 cycles
 SCF Done:  E(RB3LYP) =  -564.232532086     A.U. after   10 cycles
 SCF Done:  E(RB3LYP) =  -564.232281523     A.U. after   10 cycles
 SCF Done:  E(RB3LYP) =  -564.232773092     A.U. after   10 cycles
 SCF Done:  E(RB3LYP) =  -564.232775220     A.U. after    8 cycles
 SCF Done:  E(RB3LYP) =  -564.232805459     A.U. after    8 cycles
 SCF Done:  E(RB3LYP) =  -564.232812261     A.U. after    9 cycles
 SCF Done:  E(RB3LYP) =  -564.232825130     A.U. after    8 cycles
 SCF Done:  E(RB3LYP) =  -564.232826891     A.U. after    7 cycles
 SCF Done:  E(RB3LYP) =  -564.232828002     A.U. after    8 cycles
 SCF Done:  E(RB3LYP) =  -564.232828060     A.U. after    6 cycles
 SCF Done:  E(RB3LYP) =  -564.232828082     A.U. after    6 cycles
 Optimization completed.
    -- Stationary point found.
 Normal termination of Gaussian 16 at Mon May 22 17:10:41 2023.

 ----------------------------------------------------------------------
 #N Geom=AllCheck Guess=TCheck SCRF=Check GenChk RB3LYP/6-31G(2df,p) Fr
 eq
 ----------------------------------------------------------------------

 Structure from the checkpoint file:  "CCCCNCqCrCqCCrCOC.chk"
 -------------------
 Title Card Required
 -------------------
 Charge =  0 Multiplicity = 1

                         Standard orientation:
 ---------------------------------------------------------------------
 Center     Atomic      Atomic             Coordinates (Angstroms)
 Number     Number       Type             X           Y           Z
 ---------------------------------------------------------------------
      1          6           0       -5.811678    0.201846   -0.639214
      2          6           0       -4.628346   -0.186293    0.251503
      3          6           0       -3.276202   -0.055455   -0.456612
      4          6           0       -2.090108   -0.434674    0.430587
      5          7           0       -0.831089   -0.318152   -0.296908
      6          6           0        0.377031   -0.630825    0.483004
      7          6           0        0.563000   -2.155862    0.497875
      8          6           0        1.576196    0.171622   -0.099553
      9          6           0        1.712723    1.578373    0.526372
     10          6           0        0.532793    2.539095    0.346016
     11          6           0        2.918468   -0.557636    0.037958
     12          8           0        3.915779    0.202886   -0.615834
     13          6           0        5.189186   -0.387918   -0.542841
     14          1           0       -6.763329    0.096831   -0.108809
     15          1           0       -5.857098   -0.429248   -1.533700
     16          1           0       -5.730391    1.241967   -0.974304
     17          1           0       -4.756063   -1.220042    0.599229
     18          1           0       -4.629275    0.438695    1.154324
     19          1           0       -3.149700    0.979953   -0.805783
     20          1           0       -3.258686   -0.684985   -1.354753
     21          1           0       -2.210902   -1.473358    0.762608
     22          1           0       -2.105747    0.182726    1.351306
     23          1           0       -0.761422    0.619393   -0.672180
     24          1           0        0.253263   -0.307988    1.535206
     25          1           0        0.739180   -2.537516   -0.512201
     26          1           0       -0.340748   -2.640154    0.878568
     27          1           0        1.389627   -2.462058    1.146001
     28          1           0        1.399024    0.277355   -1.179541
     29          1           0        2.610499    2.037051    0.103498
     30          1           0        1.910826    1.455018    1.600602
     31          1           0        0.293045    2.688319   -0.713831
     32          1           0        0.778329    3.522269    0.760832
     33          1           0       -0.372379    2.192983    0.855034
     34          1           0        2.870487   -1.559663   -0.411381
     35          1           0        3.180917   -0.689674    1.103601
     36          1           0        5.884990    0.263358   -1.077844
     37          1           0        5.205792   -1.385501   -1.010719
     38          1           0        5.532777   -0.495392    0.498701
 ---------------------------------------------------------------------

 SCF Done:  E(RB3LYP) =  -564.232828082     A.U. after    1 cycles

 The electronic state is 1-A.
 Alpha  occ. eigenvalues --  -19.13643 -14.30107 -10.22165 -10.22047 -10.20520
 Alpha  occ. eigenvalues --  -10.19597 -10.18110 -10.17699 -10.17335 -10.17243
 Alpha  occ. eigenvalues --  -10.17182 -10.17011 -10.16546  -1.02969  -0.89742
 Alpha  occ. eigenvalues --   -0.80313  -0.77998  -0.74175  -0.72123  -0.69556
 Alpha  occ. eigenvalues --   -0.66854  -0.62669  -0.61623  -0.58447  -0.57781
 Alpha  occ. eigenvalues --   -0.55131  -0.49542  -0.47725  -0.47275  -0.46051
 Alpha  occ. eigenvalues --   -0.45668  -0.43696  -0.43143  -0.42973  -0.41271
 Alpha  occ. eigenvalues --   -0.40477  -0.40134  -0.39440  -0.37803  -0.36780
 Alpha  occ. eigenvalues --   -0.36577  -0.36478  -0.35391  -0.33840  -0.33429
 Alpha  occ. eigenvalues --   -0.32995  -0.32252  -0.31996  -0.31445  -0.30195
 Alpha  occ. eigenvalues --   -0.29971  -0.25115  -0.21339
 Alpha virt. eigenvalues --    0.07901   0.08854   0.09748   0.10092   0.11163
 Alpha virt. eigenvalues --    0.12177   0.13216   0.13941   0.14325   0.14651
 Alpha virt. eigenvalues --    0.15145   0.15686   0.16195   0.16676   0.17034

 Mulliken charges:
               1
     1  C   -0.379024
     2  C   -0.161968
     3  C   -0.177729
     4  C   -0.130067
     5  N   -0.307806
     6  C    0.066763
     7  C   -0.390404
     8  C   -0.029643
     9  C   -0.163133
    10  C   -0.411533
    11  C   -0.083040
    12  O   -0.233087
    13  C   -0.227141
    14  H    0.110098
    15  H    0.114459
    16  H    0.112910
    17  H    0.095183
    18  H    0.094386
    19  H    0.087457
    20  H    0.104105
    21  H    0.099682
    22  H    0.071089
    23  H    0.213980
    24  H    0.049471
    25  H    0.120455
    26  H    0.109326
    27  H    0.107900
    28  H    0.082597
    29  H    0.118646
    30  H    0.087699
    31  H    0.114144
    32  H    0.111159
    33  H    0.122809
    34  H    0.090331
    35  H    0.080634
    36  H    0.125048
    37  H    0.102437
    38  H    0.101808
 Sum of Mulliken charges =  -0.00000

 Dipole moment (field-independent basis, Debye):
    X=              0.3012    Y=             -0.1733    Z=              0.8254  Tot=              0.8956
 Quadrupole moment (field-independent basis, Debye-Ang):
   XX=            -80.0504   YY=            -84.6617   ZZ=            -86.2600
   XY=             -3.0617   XZ=              0.4843   YZ=             -0.4817

  Exact polarizability: 169.784  -2.658 127.341  -0.676  -0.672 111.801
 Approx polarizability: 188.145   0.157 180.410  -1.217  -1.987 178.682

                      1                      2                      3
                      A                      A                      A
 Frequencies --     25.1973                37.8628                48.4070
 Red. masses --      3.5668                 2.8426                 1.8043
 Frc consts  --      0.0013                 0.0024                 0.0025
 IR Inten    --      0.0762                 0.0641                 0.1728

                      4                      5                      6
                      A                      A                      A
 Frequencies --     82.0305                85.7761                97.9287
 Red. masses --      2.5026                 2.8165                 2.5117
 Frc consts  --      0.0099                 0.0122                 0.0142
 IR Inten    --      0.6596                 1.3640                 0.7591

                      7                      8                      9
                      A                      A                      A
 Frequencies --    114.0188               124.7135               131.5722
 Red. masses --      2.2777                 2.0919                 1.9062
 Frc consts  --      0.0174                 0.0192                 0.0194
 IR Inten    --      0.5846                 0.0866                 1.5419

                     10                     11                     12
                      A                      A                      A
 Frequencies --    170.6615               220.0090               240.0257
 Red. masses --      2.4292                 2.6042                 2.8042
 Frc consts  --      0.0417                 0.0743                 0.0952
 IR Inten    --      0.8596                 0.4723                 0.9575

                     13                     14                     15
                      A                      A                      A
 Frequencies --    240.8315               247.4286               250.2160
 Red. masses --      1.5030                 1.5480                 1.5881
 Frc consts  --      0.0514                 0.0558                 0.0586
 IR Inten    --      1.1186                 0.6200                 0.4541

                     16                     17                     18
                      A                      A                      A
 Frequencies --    282.1766               301.4109               320.3066
 Red. masses --      1.3346                 1.1886                 2.0524
 Frc consts  --      0.0626                 0.0636                 0.1241
 IR Inten    --      0.1000                 0.8596                 0.4489

                     19                     20                     21
                      A                      A                      A
 Frequencies --    360.1225               374.5597               401.9031
 Red. masses --      3.0143                 2.4691                 2.6528
 Frc consts  --      0.2303                 0.2041                 0.2525
 IR Inten    --      1.6101                 1.8355                 0.8987

                     22                     23                     24
                      A                      A                      A
 Frequencies --    427.0647               511.0236               533.7409
 Red. masses --      3.2248                 2.7161                 2.4708
 Frc consts  --      0.3465                 0.4179                 0.4147
 IR Inten    --      0.7085                 0.5044                 6.9176

                     25                     26                     27
                      A                      A                      A
 Frequencies --    585.8744               741.6657               744.5327
 Red. masses --      2.8901                 1.0756                 1.3161
 Frc consts  --      0.5845                 0.3486                 0.4299
 IR Inten    --      1.2140                 1.9700                47.0926

                     28                     29                     30
                      A                      A                      A
 Frequencies --    768.2057               811.2185               825.6104
 Red. masses --      1.3613                 1.1768                 1.6771
 Frc consts  --      0.4733                 0.4563                 0.6735
 IR Inten    --      9.9790                 3.4010                 2.5308

                     31                     32                     33
                      A                      A                      A
 Frequencies --    875.5038               907.6758               945.5372
 Red. masses --      2.1132                 1.8159                 1.4190
 Frc consts  --      0.9543                 0.8815                 0.7474
 IR Inten    --      0.9166                 4.0695                 3.6876

                     34                     35                     36
                      A                      A                      A
 Frequencies --    961.7802               976.3690               999.1847
 Red. masses --      1.6307                 1.4334                 2.2739
 Frc consts  --      0.8888                 0.8051                 1.3375
 IR Inten    --      5.5715                 5.1520                 7.1015

                     37                     38                     39
                      A                      A                      A
 Frequencies --   1018.1212              1032.0944              1043.0086
 Red. masses --      2.5985                 2.4181                 1.8190
 Frc consts  --      1.5870                 1.5176                 1.1659
 IR Inten    --      0.9518                 2.2836                 1.0195

                     40                     41                     42
                      A                      A                      A
 Frequencies --   1062.7329              1068.5283              1099.9490
 Red. masses --      2.5842                 2.2701                 2.0717
 Frc consts  --      1.7196                 1.5271                 1.4768
 IR Inten    --      2.4391                 0.8547                 2.8330

                     43                     44                     45
                      A                      A                      A
 Frequencies --   1110.1470              1145.9218              1150.0019
 Red. masses --      2.1226                 2.8338                 2.4524
 Frc consts  --      1.5413                 2.1925                 1.9109
 IR Inten    --      0.6325                81.3314                55.1360

                     46                     47                     48
                      A                      A                      A
 Frequencies --   1158.6400              1167.6301              1181.3390
 Red. masses --      2.9703                 2.5252                 1.9166
 Frc consts  --      2.3493                 2.0284                 1.5759
 IR Inten    --     55.3325                81.9740                 6.0556

                     49                     50                     51
                      A                      A                      A
 Frequencies --   1188.1257              1203.1778              1228.5044
 Red. masses --      1.4492                 2.0364                 1.6435
 Frc consts  --      1.2053                 1.7369                 1.4614
 IR Inten    --      7.2818                 1.3741                31.8227

                     52                     53                     54
                      A                      A                      A
 Frequencies --   1249.0453              1268.3973              1270.4792
 Red. masses --      1.3580                 1.2650                 1.2641
 Frc consts  --      1.2483                 1.1991                 1.2022
 IR Inten    --      8.2330                 1.4770                 6.5450

                     55                     56                     57
                      A                      A                      A
 Frequencies --   1294.6778              1313.8944              1325.8682
 Red. masses --      1.3367                 1.1558                 1.0690
 Frc consts  --      1.3201                 1.1756                 1.1072
 IR Inten    --      2.1543                 9.3872                 0.5860

                     58                     59                     60
                      A                      A                      A
 Frequencies --   1334.2047              1340.7752              1361.7138
 Red. masses --      1.1819                 1.1795                 1.3110
 Frc consts  --      1.2396                 1.2493                 1.4323
 IR Inten    --     13.0081                13.2694                 3.7429

                     61                     62                     63
                      A                      A                      A
 Frequencies --   1377.3424              1386.6412              1389.8521
 Red. masses --      1.2998                 1.4577                 1.4420
 Frc consts  --      1.4528                 1.6514                 1.6411
 IR Inten    --      9.0734                 1.4272                 1.0113

                     64                     65                     66
                      A                      A                      A
 Frequencies --   1406.6162              1409.6080              1410.6389
 Red. masses --      1.2811                 1.2467                 1.3202
 Frc consts  --      1.4935                 1.4595                 1.5478
 IR Inten    --      5.2729                 3.0538                 5.0394

                     67                     68                     69
                      A                      A                      A
 Frequencies --   1417.4111              1424.2556              1480.3609
 Red. masses --      1.3848                 1.3653                 1.1540
 Frc consts  --      1.6392                 1.6318                 1.4901
 IR Inten    --      6.5057                21.5908                 1.3079

                     70                     71                     72
                      A                      A                      A
 Frequencies --   1485.0611              1485.8568              1488.2274
 Red. masses --      1.0470                 1.0677                 1.0801
 Frc consts  --      1.3605                 1.3889                 1.4095
 IR Inten    --      4.6017                 0.1437                12.9480

                     73                     74                     75
                      A                      A                      A
 Frequencies --   1491.3896              1493.6666              1499.7612
 Red. masses --      1.0709                 1.0689                 1.0440
 Frc consts  --      1.4034                 1.4051                 1.3835
 IR Inten    --      0.3672                 1.0558                 6.2575

                     76                     77                     78
                      A                      A                      A
 Frequencies --   1499.9906              1503.8481              1505.0690
 Red. masses --      1.0553                 1.0594                 1.0584
 Frc consts  --      1.3990                 1.4116                 1.4125
 IR Inten    --      4.1349                 3.3556                14.5924

                     79                     80                     81
                      A                      A                      A
 Frequencies --   1507.9720              1510.6483              1513.5328
 Red. masses --      1.1086                 1.0790                 1.1188
 Frc consts  --      1.4852                 1.4508                 1.5100
 IR Inten    --      3.1796                 1.6628                17.5660

                     82                     83                     84
                      A                      A                      A
 Frequencies --   1523.0272              1530.6890              2893.4100
 Red. masses --      1.0890                 1.0844                 1.0769
 Frc consts  --      1.4883                 1.4969                 5.3117
 IR Inten    --      4.2155                 0.6503                11.1553

                     85                     86                     87
                      A                      A                      A
 Frequencies --   2899.2770              2937.8962              2966.1370
 Red. masses --      1.0771                 1.0656                 1.0391
 Frc consts  --      5.3346                 5.4189                 5.3864
 IR Inten    --     99.5543                36.0735                77.8613

                     88                     89                     90
                      A                      A                      A
 Frequencies --   3000.4549              3001.4271              3007.2588
 Red. masses --      1.0651                 1.0783                 1.0992
 Frc consts  --      5.6498                 5.7232                 5.8568
 IR Inten    --      8.0659                 9.9181                63.2978

                     91                     92                     93
                      A                      A                      A
 Frequencies --   3011.2427              3014.1898              3019.5638
 Red. masses --      1.0826                 1.0608                 1.0775
 Frc consts  --      5.7835                 5.6785                 5.7885
 IR Inten    --     18.2987                29.6065                43.1983

                     94                     95                     96
                      A                      A                      A
 Frequencies --   3025.0128              3028.5462              3034.6955
 Red. masses --      1.0435                 1.0366                 1.0693
 Frc consts  --      5.6259                 5.6016                 5.8020
 IR Inten    --     42.6251                31.4844                18.6678

                     97                     98                     99
                      A                      A                      A
 Frequencies --   3037.8443              3041.8402              3064.1320
 Red. masses --      1.0932                 1.0500                 1.1005
 Frc consts  --      5.9442                 5.7242                 6.0879
 IR Inten    --      7.0665                36.4526                48.1377

                    100                    101                    102
                      A                      A                      A
 Frequencies --   3082.1299              3088.4781              3095.4347
 Red. masses --      1.0930                 1.0999                 1.1021
 Frc consts  --      6.1173                 6.1816                 6.2215
 IR Inten    --      4.7202                34.3182                56.7776

                    103                    104                    105
                      A                      A                      A
 Frequencies --   3100.4602              3105.8797              3107.0059
 Red. masses --      1.1011                 1.0981                 1.1000
 Frc consts  --      6.2361                 6.2414                 6.2563
 IR Inten    --     40.1021                38.1652                54.2112

                    106                    107                    108
                      A                      A                      A
 Frequencies --   3110.1722              3114.8888              3555.9217
 Red. masses --      1.0956                 1.1023                 1.0734
 Frc consts  --      6.2439                 6.3015                 7.9966
 IR Inten    --     28.7803                26.0776                 1.1742

 - Thermochemistry -
 -------------------
 Temperature   298.150 Kelvin.  Pressure   1.00000 Atm.
 Atom     1 has atomic number  6 and mass  12.00000

 Molecular mass:   187.19361 amu.
 Principal axes and moments of inertia in atomic units:
                           1         2         3
     Eigenvalues --  1067.990217037.412157700.43796
           X            0.99998  -0.00491   0.00348
           Y            0.00492   0.99998  -0.00366
           Z           -0.00346   0.00368   0.99999
 This molecule is an asymmetric top.
 Rotational symmetry number  1.
 Warning -- assumption of classical behavior for rotation
           may cause significant error
 Rotational temperatures (Kelvin)      0.08110     0.01231     0.01125
 Rotational constants (GHZ):           1.68985     0.25645     0.23437
 Zero-point vibrational energy     923959.0 (Joules/Mol)
                                  220.83151 (Kcal/Mol)
 Warning -- explicit consideration of  25 degrees of freedom as
           vibrations may cause significant error
 Vibrational temperatures:     36.25    54.48    69.65   118.02   123.41
          (Kelvin)            140.90   164.05   179.43   189.30   245.54
                              316.54   345.34   346.50   355.99   360.01
                              405.99   433.66   460.85   518.14   538.91
                              578.25   614.45   735.25   767.93   842.94
                             1067.09  1071.22  1105.28  1167.16  1187.87
                             1259.65  1305.94  1360.42  1383.79  1404.78
                             1437.60  1464.85  1484.95  1500.66  1529.04
                             1537.37  1582.58  1597.25  1648.73  1654.60
                             1667.02  1679.96  1699.68  1709.45  1731.10
                             1767.54  1797.10  1824.94  1827.94  1862.75
                             1890.40  1907.63  1919.62  1929.08  1959.20
                             1981.69  1995.07  1999.69  2023.81  2028.11
                             2029.59  2039.34  2049.19  2129.91  2136.67
                             2137.82  2141.23  2145.78  2149.05  2157.82
                             2158.15  2163.70  2165.46  2169.64  2173.49
                             2177.64  2191.30  2202.32  4162.97  4171.41
                             4226.98  4267.61  4316.99  4318.38  4326.77
                             4332.51  4336.75  4344.48  4352.32  4357.40
                             4366.25  4370.78  4376.53  4408.60  4434.50
                             4443.63  4453.64  4460.87  4468.67  4470.29
                             4474.84  4481.63  5116.18

 Zero-point correction=                           0.351917 (Hartree/Particle)
 Thermal correction to Energy=                    0.369199
 Thermal correction to Enthalpy=                  0.370143
 Thermal correction to Gibbs Free Energy=         0.305830
 Sum of electronic and zero-point Energies=           -563.880911
 Sum of electronic and thermal Energies=              -563.863629
 Sum of electronic and thermal Enthalpies=            -563.862685
 Sum of electronic and thermal Free Energies=         -563.926998

                     E (Thermal)             CV                S
                      KCal/Mol        Cal/Mol-Kelvin    Cal/Mol-Kelvin
 Total                  231.676             62.130            135.359
 Electronic               0.000              0.000              0.000
 Translational            0.889              2.981             41.587
 Rotational               0.889              2.981             32.426
 Vibrational            229.899             56.169             61.346
 Vibration     1          0.593              1.985              6.176
 Vibration     2          0.594              1.982              5.368
 Vibration     3          0.595              1.978              4.881
 Vibration     4          0.600              1.961              3.842
 Vibration     5          0.601              1.959              3.754
 Vibration     6          0.603              1.951              3.495
 Vibration     7          0.607              1.938              3.199
 Vibration     8          0.610              1.928              3.026
 Vibration     9          0.612              1.922              2.923
 Vibration    10          0.626              1.879              2.428
 Vibration    11          0.647              1.811              1.959
 Vibration    12          0.657              1.779              1.803
 Vibration    13          0.658              1.778              1.797
 Vibration    14          0.661              1.767              1.749
 Vibration    15          0.663              1.762              1.729
 Vibration    16          0.681              1.707              1.520
 Vibration    17          0.693              1.671              1.409
 Vibration    18          0.706              1.635              1.309
 Vibration    19          0.735              1.554              1.122
 Vibration    20          0.746              1.524              1.061
 Vibration    21          0.768              1.466              0.956
 Vibration    22          0.789              1.411              0.868
 Vibration    23          0.866              1.226              0.631
 Vibration    24          0.889              1.175              0.579
 Vibration    25          0.943              1.062              0.475

 Optimization completed.
    -- Stationary point found.
 Normal termination of Gaussian 16 at Mon May 22 19:11:43 2023.
