 Gaussian 16, Revision A.03,
 Gaussian 16:  ES64L-G16RevA.03 25-Dec-2016

 -----------------------------
 # opt freq b3lyp/6-31g(2df,p)
 -----------------------------

 -------------------
 Title Card Required
 -------------------
 Symbolic Z-matrix:
 Charge =  0 Multiplicity = 1

 SCF Done:  E(RB3LYP) =  -716.848806316     A.U. after   13 cycles
 SCF Done:  E(RB3LYP) =  -716.865983923     A.U. after   13 cycles
 SCF Done:  E(RB3LYP) =  -716.871023169     A.U. after   13 cycles
 SCF Done:  E(RB3LYP) =  -716.873894592     A.U. after   12 cycles
 SCF Done:  E(RB3LYP) =  -716.870845397     A.U. after   13 cycles
 SCF Done:  E(RB3LYP) =  -716.875112029     A.U. after   12 cycles
 SCF Done:  E(RB3LYP) =  -716.875883103     A.U. after   12 cycles
 SCF Done:  E(RB3LYP) =  -716.876521157     A.U. after   12 cycles
 SCF Done:  E(RB3LYP) =  -716.877021448     A.U. after   11 cycles
 SCF Done:  E(RB3LYP) =  -716.877427475     A.U. after   12 cycles
 SCF Done:  E(RB3LYP) =  -716.877625721     A.U. after   12 cycles
 SCF Done:  E(RB3LYP) =  -716.877674682     A.U. after   11 cycles
 SCF Done:  E(RB3LYP) =  -716.877703841     A.U. after   10 cycles
 SCF Done:  E(RB3LYP) =  -716.877746728     A.U. after   12 cycles
 SCF Done:  E(RB3LYP) =  -716.877748477     A.U. after   10 cycles
 SCF Done:  E(RB3LYP) =  -716.877746249     A.U. after   11 cycles
 SCF Done:  E(RB3LYP) =  -716.877750565     A.U. after   10 cycles
 SCF Done:  E(RB3LYP) =  -716.877750656     A.U. after    8 cycles
 SCF Done:  E(RB3LYP) =  -716.877750752     A.U. after    8 cycles
 Optimization completed.
    -- Stationary point found.
 Normal termination of Gaussian 16 at Tue May 23 12:17:03 2023.

 ----------------------------------------------------------------------
 #N Geom=AllCheck Guess=TCheck SCRF=Check GenChk RB3LYP/6-31G(2df,p) Fr
 eq
 ----------------------------------------------------------------------

 Structure from the checkpoint file:  "CCCCCNCCCqCCOrCqCrCdO.chk"
 -------------------
 Title Card Required
 -------------------
 Charge =  0 Multiplicity = 1

                         Standard orientation:
 ---------------------------------------------------------------------
 Center     Atomic      Atomic             Coordinates (Angstroms)
 Number     Number       Type             X           Y           Z
 ---------------------------------------------------------------------
      1          6           0        7.692991    0.284840    0.112052
      2          6           0        6.429703   -0.513996   -0.219282
      3          6           0        5.136587    0.225820    0.140397
      4          6           0        3.869323   -0.567023   -0.193596
      5          6           0        2.582262    0.169593    0.176445
      6          7           0        1.402010   -0.602389   -0.197958
      7          6           0        0.143268    0.030602    0.173471
      8          6           0       -1.041738   -0.844773   -0.243065
      9          6           0       -2.428011   -0.286609    0.133270
     10          6           0       -2.691352    1.111438   -0.490111
     11          6           0       -2.478118    2.275670    0.483474
     12          8           0       -2.763592    3.535766   -0.099314
     13          6           0       -3.568823   -1.274671   -0.254802
     14          6           0       -3.357469   -2.717835    0.238347
     15          6           0       -4.872263   -0.774038    0.339196
     16          8           0       -5.810920   -0.347077   -0.281945
     17          1           0        8.598506   -0.268860   -0.155126
     18          1           0        7.747055    0.514727    1.182109
     19          1           0        7.713016    1.236811   -0.430218
     20          1           0        6.454603   -1.475998    0.309803
     21          1           0        6.419973   -0.758473   -1.289677
     22          1           0        5.112690    1.189428   -0.387627
     23          1           0        5.145414    0.469625    1.212010
     24          1           0        3.896414   -1.532020    0.333638
     25          1           0        3.842697   -0.803415   -1.264320
     26          1           0        2.541248    1.126794   -0.361521
     27          1           0        2.600130    0.425221    1.254414
     28          1           0        1.455126   -1.519790    0.236671
     29          1           0        0.100681    1.000073   -0.338314
     30          1           0        0.076457    0.251920    1.257648
     31          1           0       -0.906665   -1.826483    0.225834
     32          1           0       -0.991407   -1.008951   -1.326960
     33          1           0       -2.454951   -0.185916    1.230558
     34          1           0       -3.717528    1.183900   -0.862975
     35          1           0       -2.041620    1.248464   -1.365620
     36          1           0       -1.461085    2.251862    0.904802
     37          1           0       -3.171871    2.179153    1.326638
     38          1           0       -2.152836    3.667093   -0.831551
     39          1           0       -3.689532   -1.269409   -1.344147
     40          1           0       -3.170003   -2.747278    1.318022
     41          1           0       -2.512796   -3.192693   -0.264549
     42          1           0       -4.243623   -3.328138    0.036419
     43          1           0       -4.906236   -0.834526    1.455042
 ---------------------------------------------------------------------

 SCF Done:  E(RB3LYP) =  -716.877750752     A.U. after    1 cycles

 The electronic state is 1-A.
 Alpha  occ. eigenvalues --  -19.13957 -19.13228 -14.31331 -10.26846 -10.22608
 Alpha  occ. eigenvalues --  -10.20856 -10.20400 -10.20381 -10.20015 -10.19111
 Alpha  occ. eigenvalues --  -10.18724 -10.18157 -10.17981 -10.17942 -10.17920
 Alpha  occ. eigenvalues --  -10.17294  -1.04627  -1.01366  -0.90558  -0.83444
 Alpha  occ. eigenvalues --   -0.79963  -0.77001  -0.75140  -0.72565  -0.68140
 Alpha  occ. eigenvalues --   -0.66224  -0.63504  -0.61476  -0.59838  -0.57978
 Alpha  occ. eigenvalues --   -0.57302  -0.56991  -0.50368  -0.49438  -0.47787
 Alpha  occ. eigenvalues --   -0.47019  -0.46440  -0.45546  -0.44986  -0.43946
 Alpha  occ. eigenvalues --   -0.43595  -0.43091  -0.41962  -0.41346  -0.40686
 Alpha  occ. eigenvalues --   -0.39415  -0.38845  -0.38229  -0.37335  -0.36860
 Alpha  occ. eigenvalues --   -0.36569  -0.35762  -0.35276  -0.34947  -0.33730
 Alpha  occ. eigenvalues --   -0.33471  -0.32980  -0.32900  -0.32260  -0.31269
 Alpha  occ. eigenvalues --   -0.31221  -0.26434  -0.24720  -0.22422
 Alpha virt. eigenvalues --   -0.02183   0.06784   0.07804   0.08804   0.09291
 Alpha virt. eigenvalues --    0.09586   0.10416   0.11244   0.12179   0.12490
 Alpha virt. eigenvalues --    0.12879   0.13757   0.14146   0.14672   0.15198

 Mulliken charges:
               1
     1  C   -0.379818
     2  C   -0.163394
     3  C   -0.156959
     4  C   -0.197431
     5  C   -0.122825
     6  N   -0.298232
     7  C   -0.134068
     8  C   -0.220494
     9  C   -0.003787
    10  C   -0.232377
    11  C   -0.063360
    12  O   -0.416238
    13  C   -0.065838
    14  C   -0.429001
    15  C    0.161659
    16  O   -0.252168
    17  H    0.111261
    18  H    0.112979
    19  H    0.113561
    20  H    0.093284
    21  H    0.095427
    22  H    0.092914
    23  H    0.091933
    24  H    0.086373
    25  H    0.105581
    26  H    0.098462
    27  H    0.072595
    28  H    0.207464
    29  H    0.099035
    30  H    0.073586
    31  H    0.091506
    32  H    0.108497
    33  H    0.071542
    34  H    0.131367
    35  H    0.086619
    36  H    0.092024
    37  H    0.111354
    38  H    0.280330
    39  H    0.094656
    40  H    0.120596
    41  H    0.134071
    42  H    0.128466
    43  H    0.068850
 Sum of Mulliken charges =  -0.00000

 Dipole moment (field-independent basis, Debye):
    X=              3.5973    Y=             -2.0712    Z=              0.8914  Tot=              4.2456
 Quadrupole moment (field-independent basis, Debye-Ang):
   XX=           -127.4645   YY=           -103.8279   ZZ=           -100.3393
   XY=              9.5409   XZ=             -3.1278   YZ=             -4.8219

  Exact polarizability: 199.041   1.046 149.851  -0.120  -1.838 130.407
 Approx polarizability: 226.671  -5.836 212.540   3.453  -5.661 213.349

                      1                      2                      3
                      A                      A                      A
 Frequencies --     21.2057                30.5325                33.4833
 Red. masses --      4.4613                 5.2790                 1.6884
 Frc consts  --      0.0012                 0.0029                 0.0011
 IR Inten    --      0.6505                 2.4791                 0.2295

                      4                      5                      6
                      A                      A                      A
 Frequencies --     40.4304                47.3182                61.2515
 Red. masses --      4.6561                 3.7278                 3.7717
 Frc consts  --      0.0045                 0.0049                 0.0083
 IR Inten    --      1.5864                 0.5116                 2.6275

                      7                      8                      9
                      A                      A                      A
 Frequencies --     85.1106                88.8254               107.2834
 Red. masses --      2.3263                 2.9498                 2.3242
 Frc consts  --      0.0099                 0.0137                 0.0158
 IR Inten    --      1.4384                 3.1668                 1.5773

                     10                     11                     12
                      A                      A                      A
 Frequencies --    110.7071               126.8913               159.5644
 Red. masses --      2.0245                 2.6578                 1.9730
 Frc consts  --      0.0146                 0.0252                 0.0296
 IR Inten    --      1.4047                 0.7099                 1.6065

                     13                     14                     15
                      A                      A                      A
 Frequencies --    167.9404               175.0065               192.1482
 Red. masses --      2.2598                 2.9896                 2.6027
 Frc consts  --      0.0376                 0.0539                 0.0566
 IR Inten    --      1.6561                 0.5442                 1.1608

                     16                     17                     18
                      A                      A                      A
 Frequencies --    204.1437               233.2117               246.8080
 Red. masses --      2.7580                 1.4118                 1.1179
 Frc consts  --      0.0677                 0.0452                 0.0401
 IR Inten    --      0.7460                 0.7079                 0.0120

                     19                     20                     21
                      A                      A                      A
 Frequencies --    279.1461               293.3628               317.1550
 Red. masses --      2.1698                 1.3590                 2.7305
 Frc consts  --      0.0996                 0.0689                 0.1618
 IR Inten    --     13.1976                55.9212                32.7116

                     22                     23                     24
                      A                      A                      A
 Frequencies --    327.4145               331.9884               348.5554
 Red. masses --      2.9574                 2.5807                 3.3338
 Frc consts  --      0.1868                 0.1676                 0.2386
 IR Inten    --      2.0451                 1.4460                 1.4969

                     25                     26                     27
                      A                      A                      A
 Frequencies --    405.1888               434.3984               489.6817
 Red. masses --      3.4433                 2.7948                 3.4621
 Frc consts  --      0.3331                 0.3107                 0.4891
 IR Inten    --      0.9691                 1.8658                 3.2760

                     28                     29                     30
                      A                      A                      A
 Frequencies --    509.5086               536.9976               591.6805
 Red. masses --      3.0193                 2.9069                 3.0951
 Frc consts  --      0.4618                 0.4939                 0.6384
 IR Inten    --      4.9666                 1.0598                 6.4517

                     31                     32                     33
                      A                      A                      A
 Frequencies --    735.4561               769.0100               773.2846
 Red. masses --      1.0682                 1.1092                 1.1470
 Frc consts  --      0.3404                 0.3865                 0.4041
 IR Inten    --      2.8430                 0.7389                 5.3560

                     34                     35                     36
                      A                      A                      A
 Frequencies --    779.7806               804.0970               861.5608
 Red. masses --      1.2128                 1.2693                 1.2021
 Frc consts  --      0.4345                 0.4835                 0.5257
 IR Inten    --     53.4375                 8.9823                 1.3464

                     37                     38                     39
                      A                      A                      A
 Frequencies --    878.4133               893.0201               901.6492
 Red. masses --      1.8143                 2.2075                 1.9231
 Frc consts  --      0.8248                 1.0372                 0.9211
 IR Inten    --      5.3980                17.0448                14.1131

                     40                     41                     42
                      A                      A                      A
 Frequencies --    941.3573               971.6180               982.8842
 Red. masses --      2.0956                 2.1138                 1.2541
 Frc consts  --      1.0941                 1.1757                 0.7138
 IR Inten    --      7.4560                 0.6518                 4.5480

                     43                     44                     45
                      A                      A                      A
 Frequencies --    995.6096              1008.1422              1028.4062
 Red. masses --      1.8937                 3.6484                 1.7808
 Frc consts  --      1.1059                 2.1847                 1.1097
 IR Inten    --     13.2289                 0.6104                 9.5762

                     46                     47                     48
                      A                      A                      A
 Frequencies --   1031.7433              1051.0429              1067.0507
 Red. masses --      3.1688                 2.9936                 2.4582
 Frc consts  --      1.9874                 1.9484                 1.6491
 IR Inten    --      5.9605                 3.3990                13.3080

                     49                     50                     51
                      A                      A                      A
 Frequencies --   1068.3334              1074.7741              1081.7086
 Red. masses --      2.3992                 2.4930                 3.0882
 Frc consts  --      1.6134                 1.6967                 2.1290
 IR Inten    --      3.9596                30.3162                77.8675

                     52                     53                     54
                      A                      A                      A
 Frequencies --   1109.3285              1126.6999              1139.9487
 Red. masses --      1.5868                 2.3606                 2.3590
 Frc consts  --      1.1505                 1.7656                 1.8061
 IR Inten    --      0.9165                 2.1655                 6.7877

                     55                     56                     57
                      A                      A                      A
 Frequencies --   1150.0781              1151.5902              1157.2272
 Red. masses --      1.8063                 1.4734                 3.8041
 Frc consts  --      1.4076                 1.1512                 3.0015
 IR Inten    --     23.8982                 3.1159                62.3131

                     58                     59                     60
                      A                      A                      A
 Frequencies --   1162.8230              1208.8038              1223.1676
 Red. masses --      2.2265                 1.5457                 1.5429
 Frc consts  --      1.7737                 1.3307                 1.3601
 IR Inten    --      5.5749                 9.7553                 7.8940

                     61                     62                     63
                      A                      A                      A
 Frequencies --   1244.0886              1260.0760              1271.2522
 Red. masses --      1.4099                 1.3039                 1.3250
 Frc consts  --      1.2857                 1.2198                 1.2616
 IR Inten    --      1.3307                 3.7805                 5.8942

                     64                     65                     66
                      A                      A                      A
 Frequencies --   1290.3553              1307.2553              1316.5024
 Red. masses --      1.2798                 1.3405                 1.2665
 Frc consts  --      1.2554                 1.3497                 1.2933
 IR Inten    --      4.7703                 1.6397                 0.9501

                     67                     68                     69
                      A                      A                      A
 Frequencies --   1318.4745              1322.4578              1327.9423
 Red. masses --      1.2026                 1.0691                 1.0924
 Frc consts  --      1.2318                 1.1016                 1.1350
 IR Inten    --      5.0479                 1.4591                 5.4444

                     70                     71                     72
                      A                      A                      A
 Frequencies --   1333.7177              1340.2578              1351.3445
 Red. masses --      1.1051                 1.2917                 1.3337
 Frc consts  --      1.1582                 1.3671                 1.4349
 IR Inten    --      0.1208                 2.5570                 0.6915

                     73                     74                     75
                      A                      A                      A
 Frequencies --   1365.3323              1374.9676              1390.6945
 Red. masses --      1.2970                 1.3406                 1.4336
 Frc consts  --      1.4245                 1.4932                 1.6336
 IR Inten    --      3.8221                 3.6400                19.6923

                     76                     77                     78
                      A                      A                      A
 Frequencies --   1399.6683              1402.2224              1406.0329
 Red. masses --      1.4456                 1.3768                 1.2381
 Frc consts  --      1.6686                 1.5950                 1.4421
 IR Inten    --      3.3087                10.2781                 2.2036

                     79                     80                     81
                      A                      A                      A
 Frequencies --   1413.3922              1422.5040              1427.8143
 Red. masses --      1.2474                 1.2751                 1.2153
 Frc consts  --      1.4681                 1.5202                 1.4598
 IR Inten    --      1.3431                48.1632                 2.5919

                     82                     83                     84
                      A                      A                      A
 Frequencies --   1429.8163              1484.3337              1485.3027
 Red. masses --      1.4824                 1.0686                 1.1039
 Frc consts  --      1.7856                 1.3872                 1.4348
 IR Inten    --      3.2292                 0.8204                 1.5937

                     85                     86                     87
                      A                      A                      A
 Frequencies --   1487.7953              1492.5408              1495.7352
 Red. masses --      1.0722                 1.1464                 1.0810
 Frc consts  --      1.3984                 1.5046                 1.4248
 IR Inten    --      0.5593                27.2692                 1.2932

                     88                     89                     90
                      A                      A                      A
 Frequencies --   1498.9665              1499.8302              1502.1810
 Red. masses --      1.0706                 1.0403                 1.0990
 Frc consts  --      1.4173                 1.3788                 1.4611
 IR Inten    --      2.4965                 4.7891                15.4106

                     91                     92                     93
                      A                      A                      A
 Frequencies --   1507.0452              1510.3574              1513.6048
 Red. masses --      1.0489                 1.0801                 1.0896
 Frc consts  --      1.4036                 1.4517                 1.4708
 IR Inten    --     10.5778                 1.4763                 1.0699

                     94                     95                     96
                      A                      A                      A
 Frequencies --   1518.1526              1527.7260              1831.0810
 Red. masses --      1.0917                 1.0908                10.4955
 Frc consts  --      1.4825                 1.5000                20.7333
 IR Inten    --      4.7582                 0.5779               173.5252

                     97                     98                     99
                      A                      A                      A
 Frequencies --   2830.0278              2896.3764              2906.1141
 Red. masses --      1.0805                 1.0730                 1.0730
 Frc consts  --      5.0985                 5.3034                 5.3390
 IR Inten    --     90.2616                43.5140                96.7954

                    100                    101                    102
                      A                      A                      A
 Frequencies --   2969.2254              2987.1152              2999.0274
 Red. masses --      1.0800                 1.0690                 1.0640
 Frc consts  --      5.6099                 5.6201                 5.6386
 IR Inten    --     12.8748                62.6753                 1.8511

                    103                    104                    105
                      A                      A                      A
 Frequencies --   3003.2000              3012.6504              3015.2966
 Red. masses --      1.0613                 1.0697                 1.0627
 Frc consts  --      5.6395                 5.7199                 5.6926
 IR Inten    --     10.2034                17.8668                32.3025

                    106                    107                    108
                      A                      A                      A
 Frequencies --   3022.5869              3024.4506              3027.0706
 Red. masses --      1.0831                 1.0588                 1.0909
 Frc consts  --      5.8299                 5.7065                 5.8896
 IR Inten    --     37.0136                17.0058                 8.5202

                    109                    110                    111
                      A                      A                      A
 Frequencies --   3028.5534              3033.6590              3036.5451
 Red. masses --      1.0381                 1.0395                 1.0831
 Frc consts  --      5.6097                 5.6367                 5.8843
 IR Inten    --     44.6261                19.7855                26.4258

                    112                    113                    114
                      A                      A                      A
 Frequencies --   3047.4649              3050.4444              3059.4535
 Red. masses --      1.1006                 1.0840                 1.0902
 Frc consts  --      6.0223                 5.9431                 6.0121
 IR Inten    --      4.1367                 7.3158                25.2061

                    115                    116                    117
                      A                      A                      A
 Frequencies --   3066.0586              3069.6231              3086.6483
 Red. masses --      1.1018                 1.1017                 1.0965
 Frc consts  --      6.1024                 6.1162                 6.1552
 IR Inten    --     63.6651                61.8411                26.0631

                    118                    119                    120
                      A                      A                      A
 Frequencies --   3094.6655              3098.1631              3100.6322
 Red. masses --      1.1021                 1.1006                 1.1009
 Frc consts  --      6.2185                 6.2240                 6.2360
 IR Inten    --     59.3855                27.8026                38.5243

                    121                    122                    123
                      A                      A                      A
 Frequencies --   3126.0395              3493.2894              3814.4729
 Red. masses --      1.0986                 1.0731                 1.0661
 Frc consts  --      6.3255                 7.7156                 9.1394
 IR Inten    --     17.4226                 0.6241                14.4084

 - Thermochemistry -
 -------------------
 Temperature   298.150 Kelvin.  Pressure   1.00000 Atm.
 Atom     1 has atomic number  6 and mass  12.00000

 Molecular mass:   229.20418 amu.
 Principal axes and moments of inertia in atomic units:
                           1         2         3
     Eigenvalues --  1903.00183********************
           X            0.99999   0.00463  -0.00097
           Y           -0.00463   0.99998  -0.00351
           Z            0.00095   0.00352   0.99999
 This molecule is an asymmetric top.
 Rotational symmetry number  1.
 Warning -- assumption of classical behavior for rotation
           may cause significant error
 Rotational temperatures (Kelvin)      0.04551     0.00635     0.00568
 Rotational constants (GHZ):           0.94837     0.13234     0.11825
 Zero-point vibrational energy    1023376.7 (Joules/Mol)
                                  244.59290 (Kcal/Mol)
 Warning -- explicit consideration of  30 degrees of freedom as
           vibrations may cause significant error
 Vibrational temperatures:     30.51    43.93    48.18    58.17    68.08
          (Kelvin)             88.13   122.46   127.80   154.36   159.28
                              182.57   229.58   241.63   251.80   276.46
                              293.72   335.54   355.10   401.63   422.08
                              456.32   471.08   477.66   501.49   582.98
                              625.00   704.54   733.07   772.62   851.30
                             1058.16  1106.43  1112.58  1121.93  1156.92
                             1239.59  1263.84  1284.86  1297.27  1354.40
                             1397.94  1414.15  1432.46  1450.49  1479.65
                             1484.45  1512.22  1535.25  1537.09  1546.36
                             1556.34  1596.08  1621.07  1640.13  1654.71
                             1656.88  1664.99  1673.04  1739.20  1759.87
                             1789.97  1812.97  1829.05  1856.53  1880.85
                             1894.15  1896.99  1902.72  1910.61  1918.92
                             1928.33  1944.28  1964.41  1978.27  2000.90
                             2013.81  2017.49  2022.97  2033.56  2046.67
                             2054.31  2057.19  2135.63  2137.02  2140.61
                             2147.43  2152.03  2156.68  2157.92  2161.30
                             2168.30  2173.07  2177.74  2184.28  2198.06
                             2634.52  4071.78  4167.24  4181.25  4272.05
                             4297.79  4314.93  4320.93  4334.53  4338.34
                             4348.83  4351.51  4355.28  4357.41  4364.76
                             4368.91  4384.62  4388.91  4401.87  4411.37
                             4416.50  4441.00  4452.53  4457.57  4461.12
                             4497.67  5026.06  5488.18

 Zero-point correction=                           0.389784 (Hartree/Particle)
 Thermal correction to Energy=                    0.410696
 Thermal correction to Enthalpy=                  0.411640
 Thermal correction to Gibbs Free Energy=         0.336854
 Sum of electronic and zero-point Energies=           -716.487967
 Sum of electronic and thermal Energies=              -716.467055
 Sum of electronic and thermal Enthalpies=            -716.466111
 Sum of electronic and thermal Free Energies=         -716.540897

                     E (Thermal)             CV                S
                      KCal/Mol        Cal/Mol-Kelvin    Cal/Mol-Kelvin
 Total                  257.715             73.603            157.401
 Electronic               0.000              0.000              0.000
 Translational            0.889              2.981             42.190
 Rotational               0.889              2.981             34.337
 Vibrational            255.938             67.641             80.873
 Vibration     1          0.593              1.985              6.518
 Vibration     2          0.594              1.984              5.795
 Vibration     3          0.594              1.983              5.612
 Vibration     4          0.594              1.981              5.238
 Vibration     5          0.595              1.979              4.926
 Vibration     6          0.597              1.973              4.416
 Vibration     7          0.601              1.960              3.769
 Vibration     8          0.602              1.957              3.686
 Vibration     9          0.606              1.943              3.317
 Vibration    10          0.607              1.941              3.256
 Vibration    11          0.611              1.926              2.993
 Vibration    12          0.621              1.892              2.555
 Vibration    13          0.625              1.882              2.458
 Vibration    14          0.627              1.873              2.381
 Vibration    15          0.634              1.851              2.207
 Vibration    16          0.640              1.834              2.095
 Vibration    17          0.654              1.790              1.854
 Vibration    18          0.661              1.768              1.753
 Vibration    19          0.679              1.712              1.539
 Vibration    20          0.688              1.686              1.454
 Vibration    21          0.704              1.641              1.325
 Vibration    22          0.711              1.621              1.273
 Vibration    23          0.714              1.612              1.250
 Vibration    24          0.726              1.578              1.173
 Vibration    25          0.770              1.459              0.944
 Vibration    26          0.795              1.395              0.844
 Vibration    27          0.846              1.273              0.684
 Vibration    28          0.865              1.229              0.635
 Vibration    29          0.892              1.168              0.572
 Vibration    30          0.949              1.050              0.464

                           ! Non-Optimized Parameters !
 Normal termination of Gaussian 16 at Tue May 23 15:45:42 2023.
