 Gaussian 16, Revision A.03,
 Gaussian 16:  ES64L-G16RevA.03 25-Dec-2016

 -----------------------------
 # opt freq b3lyp/6-31g(2df,p)
 -----------------------------

 -------------------
 Title Card Required
 -------------------
 Symbolic Z-matrix:
 Charge =  0 Multiplicity = 1

 SCF Done:  E(RB3LYP) =  -314.172136251     A.U. after   15 cycles
 SCF Done:  E(RB3LYP) =  -314.247445110     A.U. after   12 cycles
 SCF Done:  E(RB3LYP) =  -314.345874725     A.U. after   11 cycles
 SCF Done:  E(RB3LYP) =  -314.433245757     A.U. after   11 cycles
 SCF Done:  E(RB3LYP) =  -314.482834660     A.U. after   11 cycles
 SCF Done:  E(RB3LYP) =  -314.506631779     A.U. after   10 cycles
 SCF Done:  E(RB3LYP) =  -314.519093818     A.U. after   10 cycles
 SCF Done:  E(RB3LYP) =  -314.522004492     A.U. after    9 cycles
 SCF Done:  E(RB3LYP) =  -314.523856186     A.U. after   10 cycles
 SCF Done:  E(RB3LYP) =  -314.524269581     A.U. after   10 cycles
 SCF Done:  E(RB3LYP) =  -314.524421146     A.U. after    9 cycles
 SCF Done:  E(RB3LYP) =  -314.524424815     A.U. after    9 cycles
 SCF Done:  E(RB3LYP) =  -314.524423295     A.U. after    9 cycles
 SCF Done:  E(RB3LYP) =  -314.524448942     A.U. after    9 cycles
 SCF Done:  E(RB3LYP) =  -314.524385080     A.U. after    9 cycles
 SCF Done:  E(RB3LYP) =  -314.524458631     A.U. after    9 cycles
 SCF Done:  E(RB3LYP) =  -314.524443880     A.U. after    9 cycles
 SCF Done:  E(RB3LYP) =  -314.524461629     A.U. after    9 cycles
 SCF Done:  E(RB3LYP) =  -314.524462154     A.U. after    7 cycles
 Optimization completed.
    -- Stationary point found.
 Normal termination of Gaussian 16 at Sun May 28 04:40:16 2023.

 ----------------------------------------------------------------------
 #N Geom=AllCheck Guess=TCheck SCRF=Check GenChk RB3LYP/6-31G(2df,p) Fr
 eq
 ----------------------------------------------------------------------

 Structure from the checkpoint file:  "CCCC1CCCC1.chk"
 -------------------
 Title Card Required
 -------------------
 Charge =  0 Multiplicity = 1

                         Standard orientation:
 ---------------------------------------------------------------------
 Center     Atomic      Atomic             Coordinates (Angstroms)
 Number     Number       Type             X           Y           Z
 ---------------------------------------------------------------------
      1          6           0        2.225360   -1.263970   -0.002672
      2          6           0        1.441384    0.017557    0.316692
      3          6           0        2.228613    1.249302   -0.155823
      4          6           0        0.021857   -0.009621   -0.276425
      5          6           0       -0.855865   -1.200973    0.156763
      6          6           0       -2.274714   -0.764393   -0.232288
      7          6           0       -2.322152    0.736254    0.134343
      8          6           0       -0.846305    1.227097    0.084748
      9          1           0        1.736399   -2.155009    0.401027
     10          1           0        3.235205   -1.219056    0.418941
     11          1           0        2.326827   -1.400372   -1.086449
     12          1           0        1.334882    0.084187    1.410577
     13          1           0        2.351168    1.237934   -1.245936
     14          1           0        1.727205    2.183541    0.112751
     15          1           0        3.229683    1.268710    0.287864
     16          1           0        0.119060   -0.054017   -1.372326
     17          1           0       -0.786447   -1.334170    1.245880
     18          1           0       -0.560545   -2.146704   -0.305994
     19          1           0       -3.057840   -1.347968    0.260489
     20          1           0       -2.410930   -0.893719   -1.312973
     21          1           0       -2.730383    0.866845    1.141725
     22          1           0       -2.972038    1.301599   -0.539417
     23          1           0       -0.543691    1.618960    1.062884
     24          1           0       -0.707616    2.041717   -0.631072
 ---------------------------------------------------------------------

 SCF Done:  E(RB3LYP) =  -314.524462154     A.U. after    1 cycles

 The electronic state is 1-A.
 Alpha  occ. eigenvalues --  -10.17983 -10.17441 -10.17114 -10.17093 -10.16945
 Alpha  occ. eigenvalues --  -10.16922 -10.16592 -10.16590  -0.83247  -0.77892
 Alpha  occ. eigenvalues --   -0.70125  -0.68917  -0.67242  -0.58438  -0.55920
 Alpha  occ. eigenvalues --   -0.54152  -0.47464  -0.46049  -0.43871  -0.40807
 Alpha  occ. eigenvalues --   -0.40731  -0.39599  -0.38570  -0.37443  -0.34581
 Alpha  occ. eigenvalues --   -0.33041  -0.32539  -0.32442  -0.31314  -0.30332
 Alpha  occ. eigenvalues --   -0.30104  -0.30036
 Alpha virt. eigenvalues --    0.08065   0.09702   0.10636   0.13073   0.13837
 Alpha virt. eigenvalues --    0.14720   0.15717   0.16077   0.16899   0.17469
 Alpha virt. eigenvalues --    0.17783   0.18653   0.19126   0.20358   0.20877

 Mulliken charges:
               1
     1  C   -0.393148
     2  C    0.023892
     3  C   -0.390963
     4  C    0.083364
     5  C   -0.218227
     6  C   -0.203889
     7  C   -0.207655
     8  C   -0.219215
     9  H    0.113110
    10  H    0.106115
    11  H    0.108523
    12  H    0.064568
    13  H    0.108459
    14  H    0.113510
    15  H    0.106372
    16  H    0.059641
    17  H    0.088912
    18  H    0.092576
    19  H    0.089316
    20  H    0.094226
    21  H    0.096822
    22  H    0.093700
    23  H    0.093485
    24  H    0.096505
 Sum of Mulliken charges =  -0.00000

 Dipole moment (field-independent basis, Debye):
    X=             -0.0604    Y=             -0.0019    Z=              0.0105  Tot=              0.0614
 Quadrupole moment (field-independent basis, Debye-Ang):
   XX=            -53.8341   YY=            -53.6713   ZZ=            -52.1276
   XY=              0.0008   XZ=              0.1456   YZ=             -0.0549

  Exact polarizability:  96.789   0.058  83.900  -0.003  -0.050  73.587
 Approx polarizability: 118.376   0.055 115.660   0.078   0.046 117.450

                      1                      2                      3
                      A                      A                      A
 Frequencies --     32.6816                93.6682               171.9917
 Red. masses --      1.8784                 2.3510                 1.9237
 Frc consts  --      0.0012                 0.0122                 0.0335
 IR Inten    --      0.0047                 0.0032                 0.0074

                      4                      5                      6
                      A                      A                      A
 Frequencies --    190.2919               233.4639               248.8815
 Red. masses --      2.1903                 1.0956                 1.1692
 Frc consts  --      0.0467                 0.0352                 0.0427
 IR Inten    --      0.0263                 0.0001                 0.0003

                      7                      8                      9
                      A                      A                      A
 Frequencies --    329.2965               353.6361               412.8283
 Red. masses --      2.3269                 1.9193                 2.9732
 Frc consts  --      0.1487                 0.1414                 0.2985
 IR Inten    --      0.0206                 0.1110                 0.0626

                     10                     11                     12
                      A                      A                      A
 Frequencies --    459.7711               549.4287               615.2681
 Red. masses --      2.4710                 1.8853                 2.4792
 Frc consts  --      0.3078                 0.3353                 0.5530
 IR Inten    --      0.0467                 0.3854                 0.3304

                     13                     14                     15
                      A                      A                      A
 Frequencies --    776.8496               811.4789               861.9969
 Red. masses --      1.2163                 2.1865                 2.1020
 Frc consts  --      0.4325                 0.8483                 0.9202
 IR Inten    --      0.4416                 0.6858                 0.3070

                     16                     17                     18
                      A                      A                      A
 Frequencies --    883.0796               902.9233               927.6340
 Red. masses --      2.6931                 2.6242                 1.1874
 Frc consts  --      1.2374                 1.2605                 0.6020
 IR Inten    --      0.8563                 0.9758                 0.2963

                     19                     20                     21
                      A                      A                      A
 Frequencies --    938.2643               957.5456               967.9806
 Red. masses --      1.6422                 1.5543                 1.5996
 Frc consts  --      0.8518                 0.8396                 0.8830
 IR Inten    --      0.9239                 1.4818                 0.3213

                     22                     23                     24
                      A                      A                      A
 Frequencies --    984.3145              1011.9619              1045.9607
 Red. masses --      1.5763                 1.4714                 1.8202
 Frc consts  --      0.8998                 0.8878                 1.1733
 IR Inten    --      1.2349                 0.3243                 0.5408

                     25                     26                     27
                      A                      A                      A
 Frequencies --   1072.0292              1111.2824              1154.1355
 Red. masses --      3.1504                 1.5211                 2.3372
 Frc consts  --      2.1332                 1.1068                 1.8343
 IR Inten    --      0.2755                 0.1138                 0.4739

                     28                     29                     30
                      A                      A                      A
 Frequencies --   1192.3021              1202.5301              1217.4573
 Red. masses --      1.7192                 1.4250                 1.5489
 Frc consts  --      1.4399                 1.2141                 1.3526
 IR Inten    --      4.2426                 0.7336                 0.8562

                     31                     32                     33
                      A                      A                      A
 Frequencies --   1232.2237              1278.5030              1290.3245
 Red. masses --      1.6937                 1.2403                 1.2947
 Frc consts  --      1.5152                 1.1945                 1.2700
 IR Inten    --      0.6160                 3.7911                 0.1984

                     34                     35                     36
                      A                      A                      A
 Frequencies --   1303.5800              1323.4903              1342.9851
 Red. masses --      1.2777                 1.2778                 1.3094
 Frc consts  --      1.2792                 1.3188                 1.3915
 IR Inten    --      1.7714                 1.6114                 4.2388

                     37                     38                     39
                      A                      A                      A
 Frequencies --   1344.2465              1353.4481              1356.0964
 Red. masses --      1.2334                 1.4294                 1.4362
 Frc consts  --      1.3131                 1.5427                 1.5562
 IR Inten    --      0.9588                 1.1141                 0.8628

                     40                     41                     42
                      A                      A                      A
 Frequencies --   1390.3340              1399.5768              1420.6123
 Red. masses --      1.5353                 1.2532                 1.2281
 Frc consts  --      1.7486                 1.4463                 1.4603
 IR Inten    --      1.4596                 4.1561                 3.0661

                     43                     44                     45
                      A                      A                      A
 Frequencies --   1487.4507              1488.4759              1491.1035
 Red. masses --      1.0742                 1.0488                 1.0819
 Frc consts  --      1.4002                 1.3691                 1.4172
 IR Inten    --      0.9284                 0.0790                 1.2015

                     46                     47                     48
                      A                      A                      A
 Frequencies --   1492.8904              1496.8124              1505.3443
 Red. masses --      1.0641                 1.0786                 1.0578
 Frc consts  --      1.3974                 1.4238                 1.4123
 IR Inten    --      3.0016                 0.9293                 2.9710

                     49                     50                     51
                      A                      A                      A
 Frequencies --   1511.8789              1517.6364              2974.2562
 Red. masses --      1.0521                 1.1007                 1.0791
 Frc consts  --      1.4169                 1.4937                 5.6240
 IR Inten    --      7.1966                 0.2332                 0.2806

                     52                     53                     54
                      A                      A                      A
 Frequencies --   2988.2645              3010.8262              3022.5567
 Red. masses --      1.0840                 1.0696                 1.0371
 Frc consts  --      5.7034                 5.7125                 5.5824
 IR Inten    --     27.6790                30.2902                21.1991

                     55                     56                     57
                      A                      A                      A
 Frequencies --   3027.5099              3030.4831              3031.9888
 Red. masses --      1.0377                 1.0649                 1.0649
 Frc consts  --      5.6042                 5.7623                 5.7680
 IR Inten    --     32.2365                43.0756                21.4589

                     58                     59                     60
                      A                      A                      A
 Frequencies --   3049.7541              3072.8069              3084.0536
 Red. masses --      1.0643                 1.0966                 1.0961
 Frc consts  --      5.8321                 6.1006                 6.1423
 IR Inten    --     43.7787                24.7280                 8.9833

                     61                     62                     63
                      A                      A                      A
 Frequencies --   3084.4388              3086.1054              3090.7923
 Red. masses --      1.0992                 1.0983                 1.0993
 Frc consts  --      6.1613                 6.1631                 6.1874
 IR Inten    --      6.1251                29.8231                63.5714

                     64                     65                     66
                      A                      A                      A
 Frequencies --   3099.1429              3106.0856              3107.9564
 Red. masses --      1.1040                 1.0998                 1.0996
 Frc consts  --      6.2472                 6.2516                 6.2579
 IR Inten    --     85.3553                34.9124                32.9375

 - Thermochemistry -
 -------------------
 Temperature   298.150 Kelvin.  Pressure   1.00000 Atm.
 Atom     1 has atomic number  6 and mass  12.00000

 Molecular mass:   112.12520 amu.
 Principal axes and moments of inertia in atomic units:
                           1         2         3
     Eigenvalues --   495.225121352.891111724.13060
           X            1.00000  -0.00037  -0.00187
           Y            0.00037   1.00000  -0.00052
           Z            0.00187   0.00052   1.00000
 This molecule is an asymmetric top.
 Rotational symmetry number  1.
 Warning -- assumption of classical behavior for rotation
           may cause significant error
 Rotational temperatures (Kelvin)      0.17490     0.06402     0.05024
 Rotational constants (GHZ):           3.64428     1.33399     1.04675
 Zero-point vibrational energy     589788.7 (Joules/Mol)
                                  140.96288 (Kcal/Mol)
 Warning -- explicit consideration of  12 degrees of freedom as
           vibrations may cause significant error
 Vibrational temperatures:     47.02   134.77   247.46   273.79   335.90
          (Kelvin)            358.08   473.78   508.80   593.97   661.51
                              790.51   885.23  1117.71  1167.54  1240.22
                             1270.55  1299.11  1334.66  1349.95  1377.69
                             1392.71  1416.21  1455.99  1504.90  1542.41
                             1598.89  1660.54  1715.46  1730.17  1751.65
                             1772.90  1839.48  1856.49  1875.56  1904.21
                             1932.26  1934.07  1947.31  1951.12  2000.38
                             2013.68  2043.94  2140.11  2141.58  2145.37
                             2147.94  2153.58  2165.85  2175.26  2183.54
                             4279.29  4299.45  4331.91  4348.79  4355.91
                             4360.19  4362.36  4387.92  4421.08  4437.27
                             4437.82  4440.22  4446.96  4458.98  4468.96
                             4471.66

 Zero-point correction=                           0.224639 (Hartree/Particle)
 Thermal correction to Energy=                    0.233805
 Thermal correction to Enthalpy=                  0.234749
 Thermal correction to Gibbs Free Energy=         0.190362
 Sum of electronic and zero-point Energies=           -314.299824
 Sum of electronic and thermal Energies=              -314.290657
 Sum of electronic and thermal Enthalpies=            -314.289713
 Sum of electronic and thermal Free Energies=         -314.334100

                     E (Thermal)             CV                S
                      KCal/Mol        Cal/Mol-Kelvin    Cal/Mol-Kelvin
 Total                  146.715             34.647             93.421
 Electronic               0.000              0.000              0.000
 Translational            0.889              2.981             40.059
 Rotational               0.889              2.981             28.537
 Vibrational            144.937             28.685             24.825
 Vibration     1          0.594              1.983              5.660
 Vibration     2          0.603              1.954              3.582
 Vibration     3          0.626              1.877              2.414
 Vibration     4          0.634              1.853              2.225
 Vibration     5          0.654              1.790              1.852
 Vibration     6          0.662              1.765              1.738
 Vibration     7          0.712              1.617              1.264
 Vibration     8          0.730              1.568              1.150
 Vibration     9          0.777              1.442              0.917
 Vibration    10          0.818              1.339              0.767
 Vibration    11          0.905              1.141              0.545
 Vibration    12          0.975              1.000              0.424

                           ! Non-Optimized Parameters !
 Normal termination of Gaussian 16 at Sun May 28 05:12:33 2023.
