 Gaussian 16, Revision A.03,
 Gaussian 16:  ES64L-G16RevA.03 25-Dec-2016

 -----------------------------
 # opt freq b3lyp/6-31g(2df,p)
 -----------------------------

 -------------------
 Title Card Required
 -------------------
 Symbolic Z-matrix:
 Charge =  0 Multiplicity = 1

 SCF Done:  E(RB3LYP) =  -355.039944609     A.U. after   12 cycles
 SCF Done:  E(RB3LYP) =  -355.045076955     A.U. after   10 cycles
 SCF Done:  E(RB3LYP) =  -355.047338429     A.U. after   10 cycles
 SCF Done:  E(RB3LYP) =  -355.049055357     A.U. after   10 cycles
 SCF Done:  E(RB3LYP) =  -355.049625816     A.U. after   10 cycles
 SCF Done:  E(RB3LYP) =  -355.049796119     A.U. after    9 cycles
 SCF Done:  E(RB3LYP) =  -355.049852883     A.U. after    8 cycles
 SCF Done:  E(RB3LYP) =  -355.050049116     A.U. after    9 cycles
 SCF Done:  E(RB3LYP) =  -355.042337846     A.U. after   10 cycles
 SCF Done:  E(RB3LYP) =  -355.042503977     A.U. after   10 cycles
 SCF Done:  E(RB3LYP) =  -355.050067661     A.U. after    7 cycles
 SCF Done:  E(RB3LYP) =  -355.050831829     A.U. after   10 cycles
 SCF Done:  E(RB3LYP) =  -355.049738020     A.U. after   10 cycles
 SCF Done:  E(RB3LYP) =  -355.051112961     A.U. after    9 cycles
 SCF Done:  E(RB3LYP) =  -355.050691867     A.U. after   10 cycles
 SCF Done:  E(RB3LYP) =  -355.051150790     A.U. after    9 cycles
 SCF Done:  E(RB3LYP) =  -355.051156144     A.U. after    8 cycles
 SCF Done:  E(RB3LYP) =  -355.051157938     A.U. after    6 cycles
 SCF Done:  E(RB3LYP) =  -355.051158368     A.U. after    6 cycles
 Optimization completed.
    -- Stationary point found.
 Normal termination of Gaussian 16 at Sun May 28 19:44:21 2023.

 ----------------------------------------------------------------------
 #N Geom=AllCheck Guess=TCheck SCRF=Check GenChk RB3LYP/6-31G(2df,p) Fr
 eq
 ----------------------------------------------------------------------

 Structure from the checkpoint file:  "CCCCqCrCCqCrC.chk"
 -------------------
 Title Card Required
 -------------------
 Charge =  0 Multiplicity = 1

                         Standard orientation:
 ---------------------------------------------------------------------
 Center     Atomic      Atomic             Coordinates (Angstroms)
 Number     Number       Type             X           Y           Z
 ---------------------------------------------------------------------
      1          6           0       -4.064169   -0.772371   -0.211342
      2          6           0       -2.849212    0.145371   -0.379338
      3          6           0       -1.572361   -0.445455    0.230192
      4          6           0       -0.283746    0.367705   -0.006226
      5          6           0       -0.385052    1.778699    0.596320
      6          6           0        0.951074   -0.398121    0.537376
      7          6           0        2.193988   -0.409132   -0.375045
      8          6           0        2.763200    0.989153   -0.652297
      9          6           0        3.279488   -1.321143    0.213575
     10          1           0       -4.963730   -0.331390   -0.652403
     11          1           0       -4.272302   -0.962927    0.847565
     12          1           0       -3.897961   -1.742550   -0.692969
     13          1           0       -3.069192    1.118026    0.075877
     14          1           0       -2.682630    0.339848   -1.447758
     15          1           0       -1.425038   -1.453436   -0.181631
     16          1           0       -1.715736   -0.582264    1.312477
     17          1           0       -0.164634    0.471585   -1.095143
     18          1           0       -0.605664    1.721904    1.669521
     19          1           0       -1.175483    2.370499    0.125408
     20          1           0        0.551119    2.331961    0.483678
     21          1           0        0.671143   -1.443404    0.719594
     22          1           0        1.231501    0.007870    1.519902
     23          1           0        1.884046   -0.838696   -1.339533
     24          1           0        3.068108    1.481071    0.279515
     25          1           0        2.037790    1.637584   -1.151879
     26          1           0        3.646869    0.927508   -1.296649
     27          1           0        3.628649   -0.939921    1.180946
     28          1           0        4.148823   -1.383719   -0.449663
     29          1           0        2.905066   -2.337791    0.373856
 ---------------------------------------------------------------------

 SCF Done:  E(RB3LYP) =  -355.051158368     A.U. after    1 cycles

 The electronic state is 1-A.
 Alpha  occ. eigenvalues --  -10.18170 -10.17911 -10.17385 -10.17063 -10.16883
 Alpha  occ. eigenvalues --  -10.16852 -10.16730 -10.16684 -10.16568  -0.81578
 Alpha  occ. eigenvalues --   -0.78474  -0.74646  -0.67961  -0.67106  -0.66572
 Alpha  occ. eigenvalues --   -0.59222  -0.55531  -0.55021  -0.46382  -0.45493
 Alpha  occ. eigenvalues --   -0.44052  -0.43678  -0.41006  -0.40910  -0.38939
 Alpha  occ. eigenvalues --   -0.38258  -0.37528  -0.37255  -0.35867  -0.34637
 Alpha  occ. eigenvalues --   -0.34229  -0.32970  -0.32211  -0.31655  -0.30785
 Alpha  occ. eigenvalues --   -0.30471  -0.28966
 Alpha virt. eigenvalues --    0.08366   0.09864   0.11386   0.11823   0.12673
 Alpha virt. eigenvalues --    0.13766   0.14354   0.14932   0.15393   0.16166
 Alpha virt. eigenvalues --    0.17062   0.17684   0.18200   0.18503   0.19149

 Mulliken charges:
               1
     1  C   -0.377989
     2  C   -0.175980
     3  C   -0.165619
     4  C    0.035826
     5  C   -0.394990
     6  C   -0.191801
     7  C    0.046422
     8  C   -0.378901
     9  C   -0.388324
    10  H    0.109021
    11  H    0.112709
    12  H    0.111979
    13  H    0.098150
    14  H    0.091629
    15  H    0.086288
    16  H    0.088349
    17  H    0.065281
    18  H    0.108770
    19  H    0.111425
    20  H    0.113477
    21  H    0.084559
    22  H    0.084816
    23  H    0.068660
    24  H    0.109462
    25  H    0.115725
    26  H    0.105851
    27  H    0.110479
    28  H    0.106741
    29  H    0.107983
 Sum of Mulliken charges =  -0.00000

 Dipole moment (field-independent basis, Debye):
    X=             -0.0033    Y=             -0.0175    Z=             -0.1128  Tot=              0.1142
 Quadrupole moment (field-independent basis, Debye-Ang):
   XX=            -62.2666   YY=            -61.9358   ZZ=            -60.8580
   XY=             -0.2185   XZ=             -0.1703   YZ=              0.2855

  Exact polarizability: 119.333  -0.367  95.274  -0.152  -0.443  86.928
 Approx polarizability: 138.060  -0.350 134.982  -0.066   0.422 135.691

                      1                      2                      3
                      A                      A                      A
 Frequencies --     42.5529                68.7965                80.8911
 Red. masses --      2.8135                 2.5437                 1.6842
 Frc consts  --      0.0030                 0.0071                 0.0065
 IR Inten    --      0.0071                 0.0076                 0.0124

                      4                      5                      6
                      A                      A                      A
 Frequencies --    112.8981               153.4815               206.9620
 Red. masses --      2.3970                 2.1958                 2.3097
 Frc consts  --      0.0180                 0.0305                 0.0583
 IR Inten    --      0.0014                 0.0241                 0.0025

                      7                      8                      9
                      A                      A                      A
 Frequencies --    230.7662               241.6335               253.1096
 Red. masses --      1.0486                 1.1066                 1.2253
 Frc consts  --      0.0329                 0.0381                 0.0462
 IR Inten    --      0.0090                 0.0076                 0.0057

                     10                     11                     12
                      A                      A                      A
 Frequencies --    270.0708               299.9955               312.6688
 Red. masses --      1.2987                 1.8659                 2.5024
 Frc consts  --      0.0558                 0.0989                 0.1441
 IR Inten    --      0.0975                 0.0472                 0.0986

                     13                     14                     15
                      A                      A                      A
 Frequencies --    360.9873               398.6357               409.1282
 Red. masses --      2.6467                 2.1497                 1.7290
 Frc consts  --      0.2032                 0.2013                 0.1705
 IR Inten    --      0.0336                 0.0868                 0.1316

                     16                     17                     18
                      A                      A                      A
 Frequencies --    471.2075               526.1078               746.1352
 Red. masses --      2.2052                 2.4906                 1.1181
 Frc consts  --      0.2885                 0.4062                 0.3668
 IR Inten    --      0.0677                 0.0412                 2.3514

                     19                     20                     21
                      A                      A                      A
 Frequencies --    808.8694               841.9066               868.5457
 Red. masses --      2.7377                 1.8729                 1.3750
 Frc consts  --      1.0553                 0.7822                 0.6111
 IR Inten    --      0.5528                 0.2976                 0.9473

                     22                     23                     24
                      A                      A                      A
 Frequencies --    877.4938               903.1222               927.8255
 Red. masses --      1.4377                 1.9780                 1.1931
 Frc consts  --      0.6523                 0.9505                 0.6052
 IR Inten    --      0.6498                 1.1824                 0.4791

                     25                     26                     27
                      A                      A                      A
 Frequencies --    948.8976               965.5650               984.9062
 Red. masses --      1.8020                 1.5637                 1.6539
 Frc consts  --      0.9560                 0.8589                 0.9452
 IR Inten    --      2.3760                 0.1401                 3.8795

                     28                     29                     30
                      A                      A                      A
 Frequencies --   1003.2599              1035.4194              1067.4419
 Red. masses --      1.2796                 2.5923                 1.8939
 Frc consts  --      0.7589                 1.6375                 1.2715
 IR Inten    --      0.1281                 0.5452                 0.3254

                     31                     32                     33
                      A                      A                      A
 Frequencies --   1081.0761              1108.6412              1159.0524
 Red. masses --      1.7910                 1.9777                 2.3105
 Frc consts  --      1.2333                 1.4322                 1.8288
 IR Inten    --      0.1916                 0.1357                 4.2458

                     34                     35                     36
                      A                      A                      A
 Frequencies --   1184.8011              1194.9978              1197.8292
 Red. masses --      1.9636                 1.8171                 2.0677
 Frc consts  --      1.6240                 1.5288                 1.7479
 IR Inten    --      2.5700                 2.6311                 2.1754

                     37                     38                     39
                      A                      A                      A
 Frequencies --   1258.6928              1271.5433              1291.9426
 Red. masses --      1.3893                 1.2663                 1.2082
 Frc consts  --      1.2968                 1.2063                 1.1881
 IR Inten    --      6.5881                 1.7576                 0.5723

                     40                     41                     42
                      A                      A                      A
 Frequencies --   1323.9355              1329.8386              1355.1003
 Red. masses --      1.2612                 1.1195                 1.3467
 Frc consts  --      1.3024                 1.1664                 1.4570
 IR Inten    --      0.7052                 0.6695                 3.0034

                     43                     44                     45
                      A                      A                      A
 Frequencies --   1364.8843              1381.4847              1385.1053
 Red. masses --      1.3619                 1.4060                 1.3212
 Frc consts  --      1.4948                 1.5810                 1.4935
 IR Inten    --      6.3316                 1.6448                 0.5447

                     46                     47                     48
                      A                      A                      A
 Frequencies --   1393.7122              1400.6128              1410.6645
 Red. masses --      1.5217                 1.2840                 1.2459
 Frc consts  --      1.7415                 1.4841                 1.4608
 IR Inten    --      0.1712                 5.3793                 1.7083

                     49                     50                     51
                      A                      A                      A
 Frequencies --   1414.4462              1421.5189              1478.3466
 Red. masses --      1.2516                 1.2387                 1.0733
 Frc consts  --      1.4753                 1.4748                 1.3820
 IR Inten    --      4.2656                 1.8739                 0.1174

                     52                     53                     54
                      A                      A                      A
 Frequencies --   1483.4566              1489.0693              1493.5522
 Red. masses --      1.0672                 1.0492                 1.0592
 Frc consts  --      1.3837                 1.3707                 1.3921
 IR Inten    --      0.0889                 0.9890                 1.2149

                     55                     56                     57
                      A                      A                      A
 Frequencies --   1496.6815              1498.7789              1499.6167
 Red. masses --      1.0666                 1.0532                 1.0417
 Frc consts  --      1.4077                 1.3939                 1.3802
 IR Inten    --      2.8375                 2.5479                 6.7079

                     58                     59                     60
                      A                      A                      A
 Frequencies --   1503.4839              1507.7318              1510.9116
 Red. masses --      1.0509                 1.0516                 1.0788
 Frc consts  --      1.3997                 1.4085                 1.4511
 IR Inten    --      1.5191                 2.6022                 2.9909

                     61                     62                     63
                      A                      A                      A
 Frequencies --   1513.7217              2984.0300              2988.4289
 Red. masses --      1.0516                 1.0808                 1.0794
 Frc consts  --      1.4196                 5.6703                 5.6796
 IR Inten    --      8.0724                 2.4101                11.2596

                     64                     65                     66
                      A                      A                      A
 Frequencies --   2994.1642              3005.8104              3015.0757
 Red. masses --      1.0602                 1.0625                 1.0669
 Frc consts  --      5.5998                 5.6559                 5.7143
 IR Inten    --      6.9984                33.2914                34.2568

                     67                     68                     69
                      A                      A                      A
 Frequencies --   3020.7454              3025.9056              3027.2931
 Red. masses --      1.0359                 1.0374                 1.0358
 Frc consts  --      5.5692                 5.5961                 5.5931
 IR Inten    --     32.3686                23.9056                35.8971

                     70                     71                     72
                      A                      A                      A
 Frequencies --   3028.8203              3029.0775              3042.5920
 Red. masses --      1.0944                 1.0415                 1.1004
 Frc consts  --      5.9150                 5.6303                 6.0019
 IR Inten    --     21.3215                17.8622                32.6151

                     73                     74                     75
                      A                      A                      A
 Frequencies --   3059.2627              3084.1894              3090.1425
 Red. masses --      1.0991                 1.1005                 1.1001
 Frc consts  --      6.0604                 6.1678                 6.1894
 IR Inten    --     35.4727                 4.6852                60.4067

                     76                     77                     78
                      A                      A                      A
 Frequencies --   3093.9082              3095.1860              3095.9264
 Red. masses --      1.1003                 1.0992                 1.1006
 Frc consts  --      6.2053                 6.2042                 6.2153
 IR Inten    --     61.6624                18.5954                46.4775

                     79                     80                     81
                      A                      A                      A
 Frequencies --   3099.1467              3104.4334              3114.8822
 Red. masses --      1.1006                 1.0998                 1.0998
 Frc consts  --      6.2285                 6.2449                 6.2869
 IR Inten    --     41.9033                63.0131                19.7266

 - Thermochemistry -
 -------------------
 Temperature   298.150 Kelvin.  Pressure   1.00000 Atm.
 Atom     1 has atomic number  6 and mass  12.00000

 Molecular mass:   128.15650 amu.
 Principal axes and moments of inertia in atomic units:
                           1         2         3
     Eigenvalues --   580.240982888.204653202.16903
           X            1.00000   0.00221   0.00051
           Y           -0.00221   0.99998  -0.00513
           Z           -0.00052   0.00513   0.99999
 This molecule is an asymmetric top.
 Rotational symmetry number  1.
 Warning -- assumption of classical behavior for rotation
           may cause significant error
 Rotational temperatures (Kelvin)      0.14927     0.02999     0.02705
 Rotational constants (GHZ):           3.11033     0.62487     0.56360
 Zero-point vibrational energy     716703.9 (Joules/Mol)
                                  171.29634 (Kcal/Mol)
 Warning -- explicit consideration of  17 degrees of freedom as
           vibrations may cause significant error
 Vibrational temperatures:     61.22    98.98   116.38   162.44   220.83
          (Kelvin)            297.77   332.02   347.66   364.17   388.57
                              431.63   449.86   519.38   573.55   588.64
                              677.96   756.95  1073.52  1163.78  1211.32
                             1249.64  1262.52  1299.39  1334.93  1365.25
                             1389.23  1417.06  1443.47  1489.74  1535.81
                             1555.43  1595.09  1667.62  1704.66  1719.34
                             1723.41  1810.98  1829.47  1858.82  1904.85
                             1913.34  1949.69  1963.76  1987.65  1992.86
                             2005.24  2015.17  2029.63  2035.07  2045.25
                             2127.01  2134.36  2142.44  2148.89  2153.39
                             2156.41  2157.61  2163.18  2169.29  2173.86
                             2177.91  4293.35  4299.68  4307.93  4324.69
                             4338.02  4346.18  4353.60  4355.60  4357.80
                             4358.17  4377.61  4401.60  4437.46  4446.03
                             4451.44  4453.28  4454.35  4458.98  4466.59
                             4481.62

 Zero-point correction=                           0.272978 (Hartree/Particle)
 Thermal correction to Energy=                    0.285304
 Thermal correction to Enthalpy=                  0.286248
 Thermal correction to Gibbs Free Energy=         0.234827
 Sum of electronic and zero-point Energies=           -354.778180
 Sum of electronic and thermal Energies=              -354.765854
 Sum of electronic and thermal Enthalpies=            -354.764910
 Sum of electronic and thermal Free Energies=         -354.816332

                     E (Thermal)             CV                S
                      KCal/Mol        Cal/Mol-Kelvin    Cal/Mol-Kelvin
 Total                  179.031             45.173            108.225
 Electronic               0.000              0.000              0.000
 Translational            0.889              2.981             40.457
 Rotational               0.889              2.981             30.063
 Vibrational            177.253             39.212             37.705
 Vibration     1          0.595              1.980              5.137
 Vibration     2          0.598              1.969              4.187
 Vibration     3          0.600              1.962              3.869
 Vibration     4          0.607              1.939              3.218
 Vibration     5          0.619              1.899              2.629
 Vibration     6          0.641              1.830              2.070
 Vibration     7          0.652              1.794              1.873
 Vibration     8          0.658              1.777              1.791
 Vibration     9          0.664              1.758              1.709
 Vibration    10          0.674              1.728              1.596
 Vibration    11          0.693              1.674              1.417
 Vibration    12          0.701              1.650              1.348
 Vibration    13          0.735              1.553              1.118
 Vibration    14          0.765              1.473              0.968
 Vibration    15          0.773              1.450              0.930
 Vibration    16          0.828              1.314              0.734
 Vibration    17          0.881              1.192              0.596

                           ! Non-Optimized Parameters !
 Normal termination of Gaussian 16 at Sun May 28 20:28:00 2023.
