 Gaussian 16, Revision A.03,
 Gaussian 16:  ES64L-G16RevA.03 25-Dec-2016

 -----------------------------
 # opt freq b3lyp/6-31g(2df,p)
 -----------------------------

 -------------------
 Title Card Required
 -------------------
 Symbolic Z-matrix:
 Charge =  0 Multiplicity = 1

 SCF Done:  E(RB3LYP) =  -700.790186771     A.U. after   12 cycles
 SCF Done:  E(RB3LYP) =  -700.809283728     A.U. after   11 cycles
 SCF Done:  E(RB3LYP) =  -700.818335236     A.U. after   11 cycles
 SCF Done:  E(RB3LYP) =  -700.821724621     A.U. after   11 cycles
 SCF Done:  E(RB3LYP) =  -700.823353179     A.U. after   11 cycles
 SCF Done:  E(RB3LYP) =  -700.824401567     A.U. after   11 cycles
 SCF Done:  E(RB3LYP) =  -700.824639249     A.U. after   10 cycles
 SCF Done:  E(RB3LYP) =  -700.824717930     A.U. after   10 cycles
 SCF Done:  E(RB3LYP) =  -700.824825883     A.U. after   10 cycles
 SCF Done:  E(RB3LYP) =  -700.824956105     A.U. after   10 cycles
 SCF Done:  E(RB3LYP) =  -700.825445220     A.U. after    9 cycles
 SCF Done:  E(RB3LYP) =  -700.825508531     A.U. after    9 cycles
 SCF Done:  E(RB3LYP) =  -700.825378260     A.U. after    9 cycles
 SCF Done:  E(RB3LYP) =  -700.825511565     A.U. after   10 cycles
 SCF Done:  E(RB3LYP) =  -700.825510883     A.U. after    8 cycles
 SCF Done:  E(RB3LYP) =  -700.825512777     A.U. after    8 cycles
 SCF Done:  E(RB3LYP) =  -700.825512040     A.U. after    8 cycles
 SCF Done:  E(RB3LYP) =  -700.825512849     A.U. after    8 cycles
 SCF Done:  E(RB3LYP) =  -700.825512867     A.U. after    5 cycles
 Optimization completed on the basis of negligible forces.
    -- Stationary point found.
 Normal termination of Gaussian 16 at Mon May 22 20:26:18 2023.

 ----------------------------------------------------------------------
 #N Geom=AllCheck Guess=TCheck SCRF=Check GenChk RB3LYP/6-31G(2df,p) Fr
 eq
 ----------------------------------------------------------------------

 Structure from the checkpoint file:  "CCCCCCqCCCrCC1CCqCOrO1.chk"
 -------------------
 Title Card Required
 -------------------
 Charge =  0 Multiplicity = 1

                         Standard orientation:
 ---------------------------------------------------------------------
 Center     Atomic      Atomic             Coordinates (Angstroms)
 Number     Number       Type             X           Y           Z
 ---------------------------------------------------------------------
      1          6           0       -6.744367   -1.486720    0.028626
      2          6           0       -5.560565   -0.576358   -0.309174
      3          6           0       -4.211138   -1.149784    0.136645
      4          6           0       -3.019548   -0.245206   -0.199824
      5          6           0       -1.679755   -0.831961    0.259474
      6          6           0       -0.414153   -0.036402   -0.123413
      7          6           0       -0.417383    1.407801    0.444179
      8          6           0       -0.906723    2.485538   -0.534467
      9          6           0       -0.918978    3.887486    0.080933
     10          6           0        0.830455   -0.840157    0.304941
     11          6           0        2.157274   -0.358338   -0.269300
     12          6           0        3.031757    0.658151    0.507362
     13          6           0        4.095643   -0.457508    0.498840
     14          6           0        5.349941   -0.181453   -0.314773
     15          8           0        6.188104   -1.311403   -0.456805
     16          8           0        3.185635   -1.375537   -0.142749
     17          1           0       -7.692545   -1.050769   -0.301546
     18          1           0       -6.815559   -1.659307    1.108428
     19          1           0       -6.641864   -2.464960   -0.454377
     20          1           0       -5.708446    0.406113    0.158813
     21          1           0       -5.535725   -0.393831   -1.391819
     22          1           0       -4.063567   -2.134147   -0.329459
     23          1           0       -4.234912   -1.331464    1.220505
     24          1           0       -3.180073    0.737310    0.261632
     25          1           0       -2.991777   -0.073145   -1.284968
     26          1           0       -1.586344   -1.845755   -0.152667
     27          1           0       -1.698953   -0.954337    1.352412
     28          1           0       -0.387322    0.034541   -1.221749
     29          1           0        0.592878    1.686397    0.763584
     30          1           0       -1.028491    1.437626    1.357131
     31          1           0       -1.909894    2.237687   -0.898519
     32          1           0       -0.257122    2.480366   -1.419960
     33          1           0       -1.592298    3.935361    0.944244
     34          1           0       -1.251596    4.639367   -0.641625
     35          1           0        0.079531    4.177761    0.427354
     36          1           0        0.717733   -1.877373   -0.035470
     37          1           0        0.898554   -0.884009    1.400677
     38          1           0        2.022576   -0.089473   -1.327595
     39          1           0        2.655510    0.919217    1.497698
     40          1           0        3.298809    1.572137   -0.028377
     41          1           0        4.384467   -0.832693    1.493368
     42          1           0        5.880676    0.671257    0.145435
     43          1           0        5.067867    0.114142   -1.331171
     44          1           0        6.433210   -1.613038    0.424159
 ---------------------------------------------------------------------

 SCF Done:  E(RB3LYP) =  -700.825512867     A.U. after    1 cycles

 The electronic state is 1-A.
 Alpha  occ. eigenvalues --  -19.13241 -19.12532 -10.23163 -10.23090 -10.22449
 Alpha  occ. eigenvalues --  -10.18846 -10.18453 -10.17819 -10.17630 -10.17575
 Alpha  occ. eigenvalues --  -10.17510 -10.17479 -10.17475 -10.17436 -10.17265
 Alpha  occ. eigenvalues --  -10.17014  -1.03487  -1.01143  -0.82117  -0.79227
 Alpha  occ. eigenvalues --   -0.76773  -0.75353  -0.74679  -0.71351  -0.67825
 Alpha  occ. eigenvalues --   -0.66887  -0.62888  -0.59994  -0.58588  -0.57271
 Alpha  occ. eigenvalues --   -0.55968  -0.54456  -0.50101  -0.48769  -0.48483
 Alpha  occ. eigenvalues --   -0.47510  -0.46222  -0.45207  -0.43247  -0.42598
 Alpha  occ. eigenvalues --   -0.42355  -0.41772  -0.41074  -0.40014  -0.39540
 Alpha  occ. eigenvalues --   -0.39006  -0.38523  -0.37093  -0.36990  -0.35745
 Alpha  occ. eigenvalues --   -0.35395  -0.34073  -0.33824  -0.33524  -0.32849
 Alpha  occ. eigenvalues --   -0.32144  -0.31950  -0.31616  -0.31495  -0.30432
 Alpha  occ. eigenvalues --   -0.29798  -0.29230  -0.27265  -0.23727
 Alpha virt. eigenvalues --    0.06849   0.08322   0.09176   0.09268   0.09567
 Alpha virt. eigenvalues --    0.09893   0.10452   0.11549   0.11681   0.12835
 Alpha virt. eigenvalues --    0.13724   0.13959   0.15011   0.15257   0.15381

 Mulliken charges:
               1
     1  C   -0.378978
     2  C   -0.164964
     3  C   -0.158317
     4  C   -0.195381
     5  C   -0.187608
     6  C   -0.006493
     7  C   -0.178133
     8  C   -0.166759
     9  C   -0.381406
    10  C   -0.231169
    11  C    0.149658
    12  C   -0.320841
    13  C    0.112010
    14  C   -0.058009
    15  O   -0.412861
    16  O   -0.300439
    17  H    0.109897
    18  H    0.112545
    19  H    0.113200
    20  H    0.092419
    21  H    0.093247
    22  H    0.091524
    23  H    0.090360
    24  H    0.096952
    25  H    0.091098
    26  H    0.090429
    27  H    0.090117
    28  H    0.067561
    29  H    0.098164
    30  H    0.089346
    31  H    0.102705
    32  H    0.092591
    33  H    0.113286
    34  H    0.111212
    35  H    0.111147
    36  H    0.108659
    37  H    0.088893
    38  H    0.072588
    39  H    0.110049
    40  H    0.107318
    41  H    0.062737
    42  H    0.079625
    43  H    0.111209
    44  H    0.280813
 Sum of Mulliken charges =  -0.00000

 Dipole moment (field-independent basis, Debye):
    X=             -0.9111    Y=              1.9006    Z=              1.6375  Tot=              2.6690
 Quadrupole moment (field-independent basis, Debye-Ang):
   XX=           -107.1921   YY=           -106.6858   ZZ=           -100.9603
   XY=              7.2916   XZ=             10.7680   YZ=             -3.0287

  Exact polarizability: 200.144   0.641 153.364   2.859  -2.255 132.105
 Approx polarizability: 222.491  -2.665 216.457   3.184  -0.396 215.183

                      1                      2                      3
                      A                      A                      A
 Frequencies --     22.7995                28.9242                39.3657
 Red. masses --      3.9183                 3.7275                 2.9996
 Frc consts  --      0.0012                 0.0018                 0.0027
 IR Inten    --      0.8061                 0.5252                 2.1560

                      4                      5                      6
                      A                      A                      A
 Frequencies --     49.9525                56.5087                62.1072
 Red. masses --      3.0072                 1.8246                 3.6426
 Frc consts  --      0.0044                 0.0034                 0.0083
 IR Inten    --      0.2062                 0.1066                 0.6452

                      7                      8                      9
                      A                      A                      A
 Frequencies --     77.2875                90.2524               110.8088
 Red. masses --      1.7314                 2.8316                 3.2604
 Frc consts  --      0.0061                 0.0136                 0.0236
 IR Inten    --      0.1968                 0.3244                 0.5298

                     10                     11                     12
                      A                      A                      A
 Frequencies --    141.0708               150.5168               166.9909
 Red. masses --      2.6836                 1.7216                 2.7167
 Frc consts  --      0.0315                 0.0230                 0.0446
 IR Inten    --      1.6189                 0.0392                 1.7567

                     13                     14                     15
                      A                      A                      A
 Frequencies --    185.0802               190.1781               208.0268
 Red. masses --      3.3096                 3.1476                 2.6190
 Frc consts  --      0.0668                 0.0671                 0.0668
 IR Inten    --      1.0456                 3.3298                 0.3995

                     16                     17                     18
                      A                      A                      A
 Frequencies --    237.8723               248.0231               251.2238
 Red. masses --      1.5559                 1.1224                 1.6020
 Frc consts  --      0.0519                 0.0407                 0.0596
 IR Inten    --      0.2785                 0.0104                 4.8613

                     19                     20                     21
                      A                      A                      A
 Frequencies --    263.7532               302.8272               335.4989
 Red. masses --      1.2484                 3.4380                 2.9063
 Frc consts  --      0.0512                 0.1858                 0.1927
 IR Inten    --     99.3858                 9.8774                 0.5365

                     22                     23                     24
                      A                      A                      A
 Frequencies --    353.2117               423.8628               431.6824
 Red. masses --      3.0683                 2.4850                 2.0297
 Frc consts  --      0.2255                 0.2630                 0.2229
 IR Inten    --      1.1847                 1.0024                 0.2068

                     25                     26                     27
                      A                      A                      A
 Frequencies --    444.4330               489.5881               497.8146
 Red. masses --      2.7720                 2.7574                 2.6015
 Frc consts  --      0.3226                 0.3894                 0.3799
 IR Inten    --      1.1649                12.6119                 7.5728

                     28                     29                     30
                      A                      A                      A
 Frequencies --    559.8538               733.5690               735.8387
 Red. masses --      2.8294                 1.1109                 1.0686
 Frc consts  --      0.5225                 0.3522                 0.3409
 IR Inten    --      6.4836                 4.1886                 3.1234

                     31                     32                     33
                      A                      A                      A
 Frequencies --    759.1972               780.5285               814.7432
 Red. masses --      1.1480                 3.5577                 2.2595
 Frc consts  --      0.3899                 1.2770                 0.8837
 IR Inten    --      0.1107                 7.1741                 5.6668

                     34                     35                     36
                      A                      A                      A
 Frequencies --    826.6756               835.8559               862.9377
 Red. masses --      1.7505                 1.2377                 1.4515
 Frc consts  --      0.7048                 0.5095                 0.6368
 IR Inten    --      1.3141                 0.7728                 0.2734

                     37                     38                     39
                      A                      A                      A
 Frequencies --    894.3398               898.3570               915.2979
 Red. masses --      1.6701                 1.8952                 2.9417
 Frc consts  --      0.7870                 0.9012                 1.4520
 IR Inten    --      5.8436                 3.0075                17.0833

                     40                     41                     42
                      A                      A                      A
 Frequencies --    928.8303               942.0334               981.4409
 Red. masses --      2.2145                 1.5784                 1.5393
 Frc consts  --      1.1257                 0.8253                 0.8736
 IR Inten    --      8.7574                 4.3331                14.7407

                     43                     44                     45
                      A                      A                      A
 Frequencies --    985.9017               997.5065              1014.4250
 Red. masses --      2.5528                 2.7602                 3.1151
 Frc consts  --      1.4620                 1.6182                 1.8887
 IR Inten    --     23.1305                81.2292                 0.4810

                     46                     47                     48
                      A                      A                      A
 Frequencies --   1035.0998              1050.5981              1055.6472
 Red. masses --      2.8144                 2.3551                 2.2311
 Frc consts  --      1.7766                 1.5316                 1.4649
 IR Inten    --      9.7157                 5.5839                11.5736

                     49                     50                     51
                      A                      A                      A
 Frequencies --   1058.4590              1068.3400              1071.7318
 Red. masses --      2.2574                 2.2430                 1.5334
 Frc consts  --      1.4901                 1.5083                 1.0377
 IR Inten    --     14.6006                 0.9814                28.2275

                     52                     53                     54
                      A                      A                      A
 Frequencies --   1079.6278              1093.1032              1099.0098
 Red. masses --      2.1136                 2.1132                 2.1346
 Frc consts  --      1.4515                 1.4877                 1.5191
 IR Inten    --     44.5208                32.6789                10.1954

                     55                     56                     57
                      A                      A                      A
 Frequencies --   1123.7334              1133.1278              1146.3588
 Red. masses --      1.7456                 2.4307                 2.4491
 Frc consts  --      1.2987                 1.8389                 1.8963
 IR Inten    --     13.5925                13.5321                 0.1424

                     58                     59                     60
                      A                      A                      A
 Frequencies --   1162.7726              1190.7223              1228.7303
 Red. masses --      2.1149                 1.9984                 1.5137
 Frc consts  --      1.6847                 1.6694                 1.3465
 IR Inten    --      1.3954                 0.6366                 3.5511

                     61                     62                     63
                      A                      A                      A
 Frequencies --   1233.0395              1241.6696              1253.1185
 Red. masses --      1.4327                 1.3119                 1.2619
 Frc consts  --      1.2833                 1.1917                 1.1675
 IR Inten    --      2.4097                10.5928                 4.0201

                     64                     65                     66
                      A                      A                      A
 Frequencies --   1257.0737              1268.9258              1276.4220
 Red. masses --      1.4482                 1.3360                 1.3282
 Frc consts  --      1.3484                 1.2674                 1.2750
 IR Inten    --     14.3475                 2.0732                 1.5177

                     67                     68                     69
                      A                      A                      A
 Frequencies --   1286.6291              1298.4687              1313.9379
 Red. masses --      1.2920                 1.2393                 1.2689
 Frc consts  --      1.2601                 1.2311                 1.2907
 IR Inten    --      0.4608                 1.0292                 0.9637

                     70                     71                     72
                      A                      A                      A
 Frequencies --   1322.0229              1330.5658              1332.5730
 Red. masses --      1.2384                 1.0693                 1.1192
 Frc consts  --      1.2753                 1.1154                 1.1709
 IR Inten    --      7.3293                 2.0273                 1.4956

                     73                     74                     75
                      A                      A                      A
 Frequencies --   1336.9972              1346.0729              1367.2111
 Red. masses --      1.1301                 1.3225                 1.2770
 Frc consts  --      1.1902                 1.4118                 1.4064
 IR Inten    --      0.0530                 1.6182                23.0895

                     76                     77                     78
                      A                      A                      A
 Frequencies --   1371.2470              1379.0597              1387.8206
 Red. masses --      1.3802                 1.3449                 1.5107
 Frc consts  --      1.5290                 1.5070                 1.7143
 IR Inten    --      0.9930                 0.9815                 0.7035

                     79                     80                     81
                      A                      A                      A
 Frequencies --   1392.2695              1398.0616              1404.7898
 Red. masses --      1.3648                 1.5819                 1.4740
 Frc consts  --      1.5587                 1.8217                 1.7138
 IR Inten    --     37.6065                 0.7134                 0.1329

                     82                     83                     84
                      A                      A                      A
 Frequencies --   1411.3045              1412.7519              1413.7934
 Red. masses --      1.3745                 1.2394                 1.2887
 Frc consts  --      1.6130                 1.4574                 1.5176
 IR Inten    --      5.2865                 0.6180                 2.3582

                     85                     86                     87
                      A                      A                      A
 Frequencies --   1426.6840              1474.1264              1482.6317
 Red. masses --      1.3677                 1.0849                 1.0846
 Frc consts  --      1.6402                 1.3890                 1.4047
 IR Inten    --     35.8097                 0.5271                 1.3478

                     88                     89                     90
                      A                      A                      A
 Frequencies --   1483.2656              1487.6191              1488.6112
 Red. masses --      1.0760                 1.0692                 1.0873
 Frc consts  --      1.3948                 1.3941                 1.4196
 IR Inten    --      1.4017                 3.2483                 1.2906

                     91                     92                     93
                      A                      A                      A
 Frequencies --   1491.4719              1493.8130              1496.0892
 Red. masses --      1.0786                 1.1105                 1.0659
 Frc consts  --      1.4136                 1.4601                 1.4056
 IR Inten    --      0.6862                 1.4527                 0.6827

                     94                     95                     96
                      A                      A                      A
 Frequencies --   1499.3662              1499.9221              1504.1519
 Red. masses --      1.0408                 1.0403                 1.0802
 Frc consts  --      1.3786                 1.3789                 1.4400
 IR Inten    --      5.1848                 4.9090                 0.6862

                     97                     98                     99
                      A                      A                      A
 Frequencies --   1511.7581              1514.7307              2947.9319
 Red. masses --      1.0849                 1.0928                 1.0715
 Frc consts  --      1.4609                 1.4773                 5.4860
 IR Inten    --      4.2084                 1.7791                58.8691

                    100                    101                    102
                      A                      A                      A
 Frequencies --   2974.4325              2979.4296              2986.9347
 Red. masses --      1.0833                 1.0817                 1.0823
 Frc consts  --      5.6470                 5.6573                 5.6890
 IR Inten    --     88.9426                 2.0684                17.8692

                    103                    104                    105
                      A                      A                      A
 Frequencies --   2996.3918              3000.3305              3007.6906
 Red. masses --      1.0600                 1.0583                 1.0605
 Frc consts  --      5.6071                 5.6129                 5.6524
 IR Inten    --      2.5153                 2.5076                 3.6220

                    106                    107                    108
                      A                      A                      A
 Frequencies --   3009.0220              3014.6505              3016.5878
 Red. masses --      1.0664                 1.0623                 1.0618
 Frc consts  --      5.6886                 5.6884                 5.6927
 IR Inten    --      2.2633                 1.6606               112.9413

                    109                    110                    111
                      A                      A                      A
 Frequencies --   3023.2155              3024.0743              3027.4139
 Red. masses --      1.0676                 1.0898                 1.0427
 Frc consts  --      5.7492                 5.8718                 5.6304
 IR Inten    --     28.1008                19.8028                38.8539

                    112                    113                    114
                      A                      A                      A
 Frequencies --   3028.0959              3030.3306              3045.6859
 Red. masses --      1.0361                 1.0963                 1.1031
 Frc consts  --      5.5973                 5.9312                 6.0287
 IR Inten    --     40.8705                17.9962                 2.9177

                    115                    116                    117
                      A                      A                      A
 Frequencies --   3053.9687              3056.4308              3064.7933
 Red. masses --      1.0893                 1.1019                 1.1028
 Frc consts  --      5.9857                 6.0650                 6.1028
 IR Inten    --      5.0146                 8.8515               100.6692

                    118                    119                    120
                      A                      A                      A
 Frequencies --   3069.1296              3072.8261              3073.5054
 Red. masses --      1.0658                 1.0936                 1.0892
 Frc consts  --      5.9150                 6.0838                 6.0620
 IR Inten    --     31.4815                29.1220                21.8870

                    121                    122                    123
                      A                      A                      A
 Frequencies --   3094.2310              3095.3019              3099.6525
 Red. masses --      1.1020                 1.1018                 1.1010
 Frc consts  --      6.2164                 6.2196                 6.2323
 IR Inten    --     54.8912                75.3042                23.1900

                    124                    125                    126
                      A                      A                      A
 Frequencies --   3099.8630              3125.7358              3809.3978
 Red. masses --      1.1005                 1.1076                 1.0660
 Frc consts  --      6.2304                 6.3761                 9.1145
 IR Inten    --     54.5823                19.6260                16.8455

 - Thermochemistry -
 -------------------
 Temperature   298.150 Kelvin.  Pressure   1.00000 Atm.
 Atom     1 has atomic number  6 and mass  12.00000

 Molecular mass:   228.20893 amu.
 Principal axes and moments of inertia in atomic units:
                           1         2         3
     Eigenvalues --  2010.63339********************
           X            0.99994   0.01107   0.00253
           Y           -0.01106   0.99992  -0.00598
           Z           -0.00260   0.00596   0.99998
 This molecule is an asymmetric top.
 Rotational symmetry number  1.
 Warning -- assumption of classical behavior for rotation
           may cause significant error
 Rotational temperatures (Kelvin)      0.04308     0.00743     0.00650
 Rotational constants (GHZ):           0.89760     0.15471     0.13542
 Zero-point vibrational energy    1056548.9 (Joules/Mol)
                                  252.52124 (Kcal/Mol)
 Warning -- explicit consideration of  28 degrees of freedom as
           vibrations may cause significant error
 Vibrational temperatures:     32.80    41.62    56.64    71.87    81.30
          (Kelvin)             89.36   111.20   129.85   159.43   202.97
                              216.56   240.26   266.29   273.62   299.30
                              342.25   356.85   361.46   379.48   435.70
                              482.71   508.19   609.84   621.09   639.44
                              704.41   716.24   805.50  1055.44  1058.71
                             1092.32  1123.01  1172.23  1189.40  1202.61
                             1241.57  1286.76  1292.54  1316.91  1336.38
                             1355.38  1412.07  1418.49  1435.19  1459.53
                             1489.28  1511.58  1518.84  1522.89  1537.10
                             1541.98  1553.34  1572.73  1581.23  1616.80
                             1630.32  1649.35  1672.97  1713.18  1767.87
                             1774.07  1786.49  1802.96  1808.65  1825.70
                             1836.49  1851.17  1868.21  1890.46  1902.10
                             1914.39  1917.28  1923.64  1936.70  1967.11
                             1972.92  1984.16  1996.76  2003.17  2011.50
                             2021.18  2030.55  2032.63  2034.13  2052.68
                             2120.94  2133.18  2134.09  2140.35  2141.78
                             2145.90  2149.26  2152.54  2157.25  2158.05
                             2164.14  2175.08  2179.36  4241.42  4279.54
                             4286.73  4297.53  4311.14  4316.81  4327.40
                             4329.31  4337.41  4340.20  4349.73  4350.97
                             4355.77  4356.75  4359.97  4382.06  4393.98
                             4397.52  4409.55  4415.79  4421.11  4422.09
                             4451.91  4453.45  4459.71  4460.01  4497.24
                             5480.87

 Zero-point correction=                           0.402418 (Hartree/Particle)
 Thermal correction to Energy=                    0.422532
 Thermal correction to Enthalpy=                  0.423476
 Thermal correction to Gibbs Free Energy=         0.350987
 Sum of electronic and zero-point Energies=           -700.423095
 Sum of electronic and thermal Energies=              -700.402981
 Sum of electronic and thermal Enthalpies=            -700.402037
 Sum of electronic and thermal Free Energies=         -700.474526

                     E (Thermal)             CV                S
                      KCal/Mol        Cal/Mol-Kelvin    Cal/Mol-Kelvin
 Total                  265.143             72.388            152.566
 Electronic               0.000              0.000              0.000
 Translational            0.889              2.981             42.177
 Rotational               0.889              2.981             34.102
 Vibrational            263.365             66.427             76.286
 Vibration     1          0.593              1.985              6.374
 Vibration     2          0.593              1.984              5.902
 Vibration     3          0.594              1.981              5.291
 Vibration     4          0.595              1.978              4.819
 Vibration     5          0.596              1.975              4.576
 Vibration     6          0.597              1.972              4.389
 Vibration     7          0.599              1.964              3.959
 Vibration     8          0.602              1.956              3.655
 Vibration     9          0.607              1.941              3.255
 Vibration    10          0.615              1.912              2.789
 Vibration    11          0.618              1.902              2.666
 Vibration    12          0.624              1.883              2.469
 Vibration    13          0.631              1.860              2.277
 Vibration    14          0.633              1.853              2.226
 Vibration    15          0.641              1.828              2.061
 Vibration    16          0.656              1.783              1.819
 Vibration    17          0.662              1.766              1.745
 Vibration    18          0.663              1.761              1.722
 Vibration    19          0.670              1.739              1.637
 Vibration    20          0.694              1.668              1.401
 Vibration    21          0.717              1.605              1.233
 Vibration    22          0.729              1.569              1.152
 Vibration    23          0.786              1.418              0.879
 Vibration    24          0.793              1.401              0.853
 Vibration    25          0.804              1.373              0.813
 Vibration    26          0.845              1.273              0.685
 Vibration    27          0.853              1.255              0.664
 Vibration    28          0.915              1.118              0.524

 Optimization completed on the basis of negligible forces.
    -- Stationary point found.
 Normal termination of Gaussian 16 at Tue May 23 00:24:00 2023.
