 Gaussian 16, Revision A.03,
 Gaussian 16:  ES64L-G16RevA.03 25-Dec-2016

 -----------------------------
 # opt freq b3lyp/6-31g(2df,p)
 -----------------------------

 -------------------
 Title Card Required
 -------------------
 Symbolic Z-matrix:
 Charge =  0 Multiplicity = 1

 SCF Done:  E(RB3LYP) =  -355.053092758     A.U. after   11 cycles
 SCF Done:  E(RB3LYP) =  -355.056576777     A.U. after    9 cycles
 SCF Done:  E(RB3LYP) =  -355.056972657     A.U. after    8 cycles
 SCF Done:  E(RB3LYP) =  -355.056988557     A.U. after    6 cycles
 Optimization completed.
    -- Stationary point found.
 Normal termination of Gaussian 16 at Sun May 28 02:25:42 2023.

 ----------------------------------------------------------------------
 #N Geom=AllCheck Guess=TCheck SCRF=Check GenChk RB3LYP/6-31G(2df,p) Fr
 eq
 ----------------------------------------------------------------------

 Structure from the checkpoint file:  "CCCCCCCCC.chk"
 -------------------
 Title Card Required
 -------------------
 Charge =  0 Multiplicity = 1

                         Standard orientation:
 ---------------------------------------------------------------------
 Center     Atomic      Atomic             Coordinates (Angstroms)
 Number     Number       Type             X           Y           Z
 ---------------------------------------------------------------------
      1          6           0       -5.122070    0.369049    0.000000
      2          6           0       -3.846530   -0.478328    0.000000
      3          6           0       -2.563943    0.360882   -0.000000
      4          6           0       -1.282065   -0.479140   -0.000000
      5          6           0        0.000000    0.360954   -0.000000
      6          6           0        1.282065   -0.479140   -0.000000
      7          6           0        2.563943    0.360883   -0.000000
      8          6           0        3.846530   -0.478328    0.000000
      9          6           0        5.122070    0.369049    0.000001
     10          1           0       -6.019849   -0.257242    0.000001
     11          1           0       -5.167411    1.015735   -0.883478
     12          1           0       -5.167411    1.015737    0.883478
     13          1           0       -3.845777   -1.139423   -0.876815
     14          1           0       -3.845777   -1.139422    0.876817
     15          1           0       -2.564677    1.023150    0.877204
     16          1           0       -2.564677    1.023149   -0.877206
     17          1           0       -1.282055   -1.141113   -0.877286
     18          1           0       -1.282055   -1.141113    0.877285
     19          1           0        0.000000    1.022902    0.877263
     20          1           0        0.000000    1.022902   -0.877265
     21          1           0        1.282055   -1.141113   -0.877286
     22          1           0        1.282055   -1.141113    0.877285
     23          1           0        2.564677    1.023150    0.877205
     24          1           0        2.564677    1.023150   -0.877206
     25          1           0        3.845777   -1.139422   -0.876816
     26          1           0        3.845777   -1.139422    0.876816
     27          1           0        5.167411    1.015736   -0.883477
     28          1           0        6.019849   -0.257242    0.000001
     29          1           0        5.167411    1.015736    0.883479
 ---------------------------------------------------------------------

 SCF Done:  E(RB3LYP) =  -355.056988557     A.U. after    1 cycles

 The electronic state is 1-A.
 Alpha  occ. eigenvalues --  -10.17405 -10.17405 -10.17175 -10.17168 -10.17159
 Alpha  occ. eigenvalues --  -10.17146 -10.17138 -10.16845 -10.16845  -0.80568
 Alpha  occ. eigenvalues --   -0.78667  -0.75569  -0.71433  -0.66549  -0.61486
 Alpha  occ. eigenvalues --   -0.57694  -0.57053  -0.56598  -0.47818  -0.46093
 Alpha  occ. eigenvalues --   -0.43421  -0.42779  -0.42258  -0.40142  -0.39569
 Alpha  occ. eigenvalues --   -0.39431  -0.36783  -0.36411  -0.34296  -0.33972
 Alpha  occ. eigenvalues --   -0.33497  -0.32336  -0.32203  -0.31664  -0.31515
 Alpha  occ. eigenvalues --   -0.31496  -0.29234
 Alpha virt. eigenvalues --    0.08992   0.09678   0.10762   0.11481   0.12446
 Alpha virt. eigenvalues --    0.12999   0.13815   0.14829   0.16195   0.16953
 Alpha virt. eigenvalues --    0.17063   0.17823   0.19336   0.19586   0.19899

 Mulliken charges:
               1
     1  C   -0.378890
     2  C   -0.162616
     3  C   -0.157982
     4  C   -0.177509
     5  C   -0.180635
     6  C   -0.177509
     7  C   -0.157982
     8  C   -0.162616
     9  C   -0.378890
    10  H    0.109227
    11  H    0.112200
    12  H    0.112200
    13  H    0.092605
    14  H    0.092605
    15  H    0.089389
    16  H    0.089389
    17  H    0.089848
    18  H    0.089848
    19  H    0.090002
    20  H    0.090002
    21  H    0.089848
    22  H    0.089848
    23  H    0.089389
    24  H    0.089389
    25  H    0.092605
    26  H    0.092605
    27  H    0.112200
    28  H    0.109227
    29  H    0.112200
 Sum of Mulliken charges =  -0.00000

 Dipole moment (field-independent basis, Debye):
    X=              0.0000    Y=             -0.0607    Z=             -0.0000  Tot=              0.0607
 Quadrupole moment (field-independent basis, Debye-Ang):
   XX=            -62.9784   YY=            -61.7956   ZZ=            -60.0388
   XY=             -0.0000   XZ=              0.0000   YZ=              0.0000

  Exact polarizability: 129.857   0.000  89.837   0.000  -0.000  86.581
 Approx polarizability: 135.247   0.000 133.313   0.000  -0.000 135.197

                      1                      2                      3
                      A                      A                      A
 Frequencies --     39.5260                58.7486                61.3777
 Red. masses --      3.1728                 1.5297                 3.3137
 Frc consts  --      0.0029                 0.0031                 0.0074
 IR Inten    --      0.0034                 0.0000                 0.0028

                      4                      5                      6
                      A                      A                      A
 Frequencies --     98.0778               115.5447               155.2941
 Red. masses --      2.5725                 1.6180                 2.1847
 Frc consts  --      0.0146                 0.0127                 0.0310
 IR Inten    --      0.0000                 0.0030                 0.0016

                      7                      8                      9
                      A                      A                      A
 Frequencies --    158.2896               160.9016               239.5945
 Red. masses --      3.0140                 1.8061                 3.7448
 Frc consts  --      0.0445                 0.0275                 0.1267
 IR Inten    --      0.0010                 0.0000                 0.0028

                     10                     11                     12
                      A                      A                      A
 Frequencies --    247.2435               247.5384               288.3548
 Red. masses --      1.1144                 1.1265                 2.9161
 Frc consts  --      0.0401                 0.0407                 0.1429
 IR Inten    --      0.0023                 0.0000                 0.0290

                     13                     14                     15
                      A                      A                      A
 Frequencies --    393.8910               453.9468               494.0862
 Red. masses --      2.7597                 3.2339                 2.7544
 Frc consts  --      0.2523                 0.3926                 0.3962
 IR Inten    --      0.0581                 0.0869                 0.0273

                     16                     17                     18
                      A                      A                      A
 Frequencies --    730.8222               731.9486               743.4093
 Red. masses --      1.0577                 1.0702                 1.0983
 Frc consts  --      0.3328                 0.3378                 0.3576
 IR Inten    --      5.8386                 0.0000                 1.2442

                     19                     20                     21
                      A                      A                      A
 Frequencies --    776.5933               833.6527               895.0701
 Red. masses --      1.1434                 1.1838                 2.0845
 Frc consts  --      0.4063                 0.4847                 0.9839
 IR Inten    --      0.0000                 0.7008                 0.7712

                     22                     23                     24
                      A                      A                      A
 Frequencies --    899.4668               904.7059               977.7375
 Red. masses --      1.8244                 1.1956                 1.1644
 Frc consts  --      0.8697                 0.5766                 0.6558
 IR Inten    --      1.7370                 0.0000                 0.3761

                     25                     26                     27
                      A                      A                      A
 Frequencies --    994.0287              1018.4608              1035.4534
 Red. masses --      4.6647                 2.6952                 3.2951
 Frc consts  --      2.7156                 1.6472                 2.0815
 IR Inten    --      0.0993                 0.2352                 0.1882

                     28                     29                     30
                      A                      A                      A
 Frequencies --   1040.2361              1061.1671              1069.7750
 Red. masses --      1.0817                 2.6710                 2.1390
 Frc consts  --      0.6896                 1.7721                 1.4422
 IR Inten    --      0.0000                 0.0229                 0.0052

                     31                     32                     33
                      A                      A                      A
 Frequencies --   1072.1898              1106.6276              1152.6834
 Red. masses --      2.3048                 1.8521                 2.8812
 Frc consts  --      1.5611                 1.3364                 2.2555
 IR Inten    --      0.3461                 1.7925                 0.5958

                     34                     35                     36
                      A                      A                      A
 Frequencies --   1209.0655              1231.5297              1242.2138
 Red. masses --      1.9346                 1.5838                 1.3093
 Frc consts  --      1.6662                 1.4153                 1.1904
 IR Inten    --      0.0407                 0.0000                 8.9849

                     37                     38                     39
                      A                      A                      A
 Frequencies --   1269.7412              1289.5642              1305.4754
 Red. masses --      1.3694                 1.3118                 1.2453
 Frc consts  --      1.3008                 1.2853                 1.2505
 IR Inten    --      0.0109                 0.0007                 0.0000

                     40                     41                     42
                      A                      A                      A
 Frequencies --   1324.1978              1328.4077              1333.7147
 Red. masses --      1.0218                 1.1297                 1.3448
 Frc consts  --      1.0556                 1.1745                 1.4094
 IR Inten    --      0.0000                 0.6034                 3.3320

                     43                     44                     45
                      A                      A                      A
 Frequencies --   1335.2077              1338.7294              1370.8923
 Red. masses --      1.0847                 1.1030                 1.4136
 Frc consts  --      1.1394                 1.1647                 1.5653
 IR Inten    --      0.1050                 0.0000                 0.1415

                     46                     47                     48
                      A                      A                      A
 Frequencies --   1394.8355              1399.8897              1401.9796
 Red. masses --      1.5337                 1.6170                 1.5860
 Frc consts  --      1.7580                 1.8670                 1.8367
 IR Inten    --      2.1882                 0.0196                 0.7594

                     49                     50                     51
                      A                      A                      A
 Frequencies --   1412.7423              1413.1996              1481.0749
 Red. masses --      1.2591                 1.2567                 1.0732
 Frc consts  --      1.4806                 1.4787                 1.3870
 IR Inten    --      0.0464                 0.9436                 0.1480

                     52                     53                     54
                      A                      A                      A
 Frequencies --   1481.3290              1484.3332              1486.2911
 Red. masses --      1.0730                 1.0683                 1.0687
 Frc consts  --      1.3872                 1.3868                 1.3910
 IR Inten    --      0.0021                 0.0016                 0.5772

                     55                     56                     57
                      A                      A                      A
 Frequencies --   1492.5194              1499.7609              1499.7843
 Red. masses --      1.0693                 1.0741                 1.0404
 Frc consts  --      1.4034                 1.4235                 1.3788
 IR Inten    --      0.1093                 0.5206                 0.0004

                     58                     59                     60
                      A                      A                      A
 Frequencies --   1499.7868              1506.7858              1512.5134
 Red. masses --      1.0403                 1.0809                 1.0889
 Frc consts  --      1.3787                 1.4460                 1.4677
 IR Inten    --      9.7385                 0.6013                 0.3320

                     61                     62                     63
                      A                      A                      A
 Frequencies --   1516.2897              2997.8229              2998.4381
 Red. masses --      1.0960                 1.0571                 1.0576
 Frc consts  --      1.4847                 5.5974                 5.6023
 IR Inten    --      4.3991                 0.0086                 1.3097

                     64                     65                     66
                      A                      A                      A
 Frequencies --   3000.4888              3003.0254              3009.8374
 Red. masses --      1.0575                 1.0586                 1.0593
 Frc consts  --      5.6096                 5.6249                 5.6541
 IR Inten    --      0.7236                 0.0317                 5.8549

                     67                     68                     69
                      A                      A                      A
 Frequencies --   3015.3863              3017.9270              3018.6789
 Red. masses --      1.0596                 1.0594                 1.0976
 Frc consts  --      5.6764                 5.6850                 5.8929
 IR Inten    --      0.0681               183.8576                 0.0261

                     70                     71                     72
                      A                      A                      A
 Frequencies --   3020.6420              3026.7682              3027.6174
 Red. masses --      1.0988                 1.1009                 1.0355
 Frc consts  --      5.9071                 5.9423                 5.5926
 IR Inten    --      0.0000                 0.0570                46.5760

                     73                     74                     75
                      A                      A                      A
 Frequencies --   3027.7976              3036.3514              3047.0694
 Red. masses --      1.0357                 1.1031                 1.1045
 Frc consts  --      5.5943                 5.9917                 6.0422
 IR Inten    --     37.8742                 0.0000                 3.0376

                     76                     77                     78
                      A                      A                      A
 Frequencies --   3056.6443              3064.8753              3094.0861
 Red. masses --      1.1052                 1.1051                 1.1021
 Frc consts  --      6.0837                 6.1164                 6.2162
 IR Inten    --      0.0000               160.7352                 0.0028

                     79                     80                     81
                      A                      A                      A
 Frequencies --   3094.1904              3098.9267              3098.9957
 Red. masses --      1.1021                 1.1010                 1.1010
 Frc consts  --      6.2165                 6.2295                 6.2296
 IR Inten    --    123.3010                32.7525                47.4361

 - Thermochemistry -
 -------------------
 Temperature   298.150 Kelvin.  Pressure   1.00000 Atm.
 Atom     1 has atomic number  6 and mass  12.00000

 Molecular mass:   128.15650 amu.
 Principal axes and moments of inertia in atomic units:
                           1         2         3
     Eigenvalues --   193.062005247.425785340.48558
           X            1.00000   0.00000   0.00000
           Y           -0.00000   1.00000  -0.00000
           Z           -0.00000   0.00000   1.00000
 This molecule is an asymmetric top.
 Rotational symmetry number  1.
 Rotational temperatures (Kelvin)      0.44863     0.01651     0.01622
 Rotational constants (GHZ):           9.34799     0.34393     0.33794
 Zero-point vibrational energy     718201.2 (Joules/Mol)
                                  171.65421 (Kcal/Mol)
 Warning -- explicit consideration of  15 degrees of freedom as
           vibrations may cause significant error
 Vibrational temperatures:     56.87    84.53    88.31   141.11   166.24
          (Kelvin)            223.43   227.74   231.50   344.72   355.73
                              356.15   414.88   566.72   653.13   710.88
                             1051.49  1053.11  1069.60  1117.34  1199.44
                             1287.81  1294.13  1301.67  1406.75  1430.19
                             1465.34  1489.79  1496.67  1526.78  1539.17
                             1542.64  1592.19  1658.45  1739.58  1771.90
                             1787.27  1826.87  1855.40  1878.29  1905.23
                             1911.28  1918.92  1921.07  1926.13  1972.41
                             2006.86  2014.13  2017.14  2032.62  2033.28
                             2130.94  2131.30  2135.62  2138.44  2147.40
                             2157.82  2157.86  2157.86  2167.93  2176.17
                             2181.60  4313.20  4314.08  4317.03  4320.68
                             4330.48  4338.47  4342.12  4343.21  4346.03
                             4354.84  4356.07  4356.33  4368.63  4384.05
                             4397.83  4409.67  4451.70  4451.85  4458.66
                             4458.76

 Zero-point correction=                           0.273548 (Hartree/Particle)
 Thermal correction to Energy=                    0.286067
 Thermal correction to Enthalpy=                  0.287011
 Thermal correction to Gibbs Free Energy=         0.234134
 Sum of electronic and zero-point Energies=           -354.783440
 Sum of electronic and thermal Energies=              -354.770921
 Sum of electronic and thermal Enthalpies=            -354.769977
 Sum of electronic and thermal Free Energies=         -354.822854

                     E (Thermal)             CV                S
                      KCal/Mol        Cal/Mol-Kelvin    Cal/Mol-Kelvin
 Total                  179.510             44.067            111.289
 Electronic               0.000              0.000              0.000
 Translational            0.889              2.981             40.457
 Rotational               0.889              2.981             30.071
 Vibrational            177.732             38.105             40.761
 Vibration     1          0.594              1.981              5.283
 Vibration     2          0.596              1.974              4.499
 Vibration     3          0.597              1.973              4.412
 Vibration     4          0.604              1.951              3.492
 Vibration     5          0.608              1.937              3.174
 Vibration     6          0.620              1.897              2.606
 Vibration     7          0.621              1.893              2.570
 Vibration     8          0.622              1.890              2.539
 Vibration     9          0.657              1.780              1.806
 Vibration    10          0.661              1.767              1.750
 Vibration    11          0.661              1.767              1.748
 Vibration    12          0.685              1.695              1.484
 Vibration    13          0.761              1.483              0.985
 Vibration    14          0.812              1.352              0.784
 Vibration    15          0.850              1.263              0.673

                           ! Non-Optimized Parameters !
 Normal termination of Gaussian 16 at Sun May 28 03:00:52 2023.
