 Gaussian 16, Revision A.03,
 Gaussian 16:  ES64L-G16RevA.03 25-Dec-2016

 -----------------------------
 # opt freq b3lyp/6-31g(2df,p)
 -----------------------------

 -------------------
 Title Card Required
 -------------------
 Symbolic Z-matrix:
 Charge =  0 Multiplicity = 1

 SCF Done:  E(RB3LYP) =  -757.399555667     A.U. after   12 cycles
 SCF Done:  E(RB3LYP) =  -757.404706989     A.U. after   10 cycles
 SCF Done:  E(RB3LYP) =  -757.405424998     A.U. after    9 cycles
 SCF Done:  E(RB3LYP) =  -757.405529283     A.U. after    9 cycles
 SCF Done:  E(RB3LYP) =  -757.405541264     A.U. after    8 cycles
 SCF Done:  E(RB3LYP) =  -757.405545227     A.U. after    8 cycles
 SCF Done:  E(RB3LYP) =  -757.405546534     A.U. after    8 cycles
 SCF Done:  E(RB3LYP) =  -757.405546692     A.U. after    7 cycles
 SCF Done:  E(RB3LYP) =  -757.405546709     A.U. after    6 cycles
 Optimization completed.
    -- Stationary point found.
 Normal termination of Gaussian 16 at Thu May 25 01:07:59 2023.

 ----------------------------------------------------------------------
 #N Geom=AllCheck Guess=TCheck SCRF=Check GenChk RB3LYP/6-31G(2df,p) Fr
 eq
 ----------------------------------------------------------------------

 Structure from the checkpoint file:  "CCCCNCCOCCCCqCrCOCC.chk"
 -------------------
 Title Card Required
 -------------------
 Charge =  0 Multiplicity = 1

                         Standard orientation:
 ---------------------------------------------------------------------
 Center     Atomic      Atomic             Coordinates (Angstroms)
 Number     Number       Type             X           Y           Z
 ---------------------------------------------------------------------
      1          6           0       -9.527982   -0.266390   -0.046388
      2          6           0       -8.233297    0.519894   -0.269341
      3          6           0       -6.973748   -0.308611    0.002733
      4          6           0       -5.678761    0.468958   -0.228706
      5          7           0       -4.508441   -0.344819    0.083418
      6          6           0       -3.243038    0.332330   -0.165867
      7          6           0       -2.075946   -0.550968    0.256944
      8          8           0       -0.876805    0.131311   -0.029000
      9          6           0        0.280394   -0.587529    0.339063
     10          6           0        1.506718    0.242850   -0.016320
     11          6           0        2.815588   -0.455006    0.369373
     12          6           0        4.088887    0.296515   -0.057700
     13          6           0        4.236984    1.662628    0.625233
     14          6           0        5.316761   -0.576648    0.208438
     15          8           0        6.463645    0.057675   -0.314929
     16          6           0        7.658038   -0.658134   -0.083435
     17          6           0        8.815394    0.118287   -0.688968
     18          1           0      -10.409947    0.350361   -0.245568
     19          1           0       -9.599286   -0.626600    0.985892
     20          1           0       -9.578110   -1.141230   -0.704358
     21          1           0       -8.228504    1.407649    0.376827
     22          1           0       -8.206433    0.896252   -1.300492
     23          1           0       -6.980839   -1.199215   -0.643047
     24          1           0       -6.981725   -0.679068    1.035225
     25          1           0       -5.658256    1.349890    0.427286
     26          1           0       -5.662869    0.858694   -1.265641
     27          1           0       -4.545329   -1.196514   -0.470421
     28          1           0       -3.219180    1.253771    0.428186
     29          1           0       -3.098484    0.633604   -1.219558
     30          1           0       -2.111102   -1.513512   -0.286221
     31          1           0       -2.155438   -0.784949    1.330636
     32          1           0        0.309338   -1.560138   -0.183731
     33          1           0        0.266016   -0.808286    1.421035
     34          1           0        1.419693    1.212119    0.485756
     35          1           0        1.491505    0.444789   -1.094478
     36          1           0        2.828775   -1.456945   -0.082095
     37          1           0        2.838472   -0.611887    1.457597
     38          1           0        4.046051    0.455601   -1.144312
     39          1           0        4.213767    1.555412    1.717118
     40          1           0        3.435065    2.348747    0.339703
     41          1           0        5.190728    2.119007    0.351625
     42          1           0        5.186393   -1.568877   -0.257560
     43          1           0        5.434326   -0.744032    1.294848
     44          1           0        7.591640   -1.664715   -0.531452
     45          1           0        7.812614   -0.801268    0.999970
     46          1           0        8.669523    0.246506   -1.765311
     47          1           0        9.758352   -0.412330   -0.526447
     48          1           0        8.891660    1.109943   -0.233851
 ---------------------------------------------------------------------

 SCF Done:  E(RB3LYP) =  -757.405546709     A.U. after    1 cycles

 The electronic state is 1-A.
 Alpha  occ. eigenvalues --  -19.13325 -19.13305 -14.30793 -10.22475 -10.22175
 Alpha  occ. eigenvalues --  -10.22023 -10.21963 -10.19836 -10.19727 -10.18228
 Alpha  occ. eigenvalues --  -10.17944 -10.17797 -10.17529 -10.17469 -10.17310
 Alpha  occ. eigenvalues --  -10.17096 -10.16358  -1.02818  -1.02794  -0.89853
 Alpha  occ. eigenvalues --   -0.81219  -0.78860  -0.76957  -0.74617  -0.72716
 Alpha  occ. eigenvalues --   -0.69307  -0.67048  -0.65080  -0.61251  -0.60337
 Alpha  occ. eigenvalues --   -0.59920  -0.58639  -0.57455  -0.55747  -0.49632
 Alpha  occ. eigenvalues --   -0.49123  -0.48430  -0.48049  -0.47706  -0.46120
 Alpha  occ. eigenvalues --   -0.45413  -0.44796  -0.43455  -0.42928  -0.42287
 Alpha  occ. eigenvalues --   -0.40867  -0.40667  -0.39975  -0.38994  -0.38371
 Alpha  occ. eigenvalues --   -0.37792  -0.37339  -0.36577  -0.36237  -0.35405
 Alpha  occ. eigenvalues --   -0.34750  -0.34451  -0.33291  -0.33024  -0.32790
 Alpha  occ. eigenvalues --   -0.32439  -0.32092  -0.31827  -0.31103  -0.30764
 Alpha  occ. eigenvalues --   -0.30359  -0.25013  -0.24966  -0.21799
 Alpha virt. eigenvalues --    0.08492   0.08705   0.09553   0.09605   0.09998
 Alpha virt. eigenvalues --    0.11461   0.11710   0.12242   0.12633   0.13003
 Alpha virt. eigenvalues --    0.13749   0.13861   0.14656   0.15095   0.15430

 Mulliken charges:
               1
     1  C   -0.379236
     2  C   -0.161083
     3  C   -0.177448
     4  C   -0.117545
     5  N   -0.306832
     6  C   -0.139930
     7  C   -0.064171
     8  O   -0.247309
     9  C   -0.048607
    10  C   -0.210967
    11  C   -0.189950
    12  C    0.004941
    13  C   -0.390897
    14  C   -0.054369
    15  O   -0.246738
    16  C   -0.026507
    17  C   -0.385019
    18  H    0.110712
    19  H    0.114598
    20  H    0.112550
    21  H    0.096236
    22  H    0.094960
    23  H    0.085141
    24  H    0.104424
    25  H    0.100184
    26  H    0.072726
    27  H    0.208226
    28  H    0.110103
    29  H    0.084833
    30  H    0.074277
    31  H    0.095110
    32  H    0.080390
    33  H    0.082736
    34  H    0.110936
    35  H    0.103775
    36  H    0.089917
    37  H    0.092820
    38  H    0.080347
    39  H    0.104384
    40  H    0.114121
    41  H    0.130523
    42  H    0.078313
    43  H    0.078189
    44  H    0.082804
    45  H    0.083502
    46  H    0.125966
    47  H    0.113190
    48  H    0.125673
 Sum of Mulliken charges =  -0.00000

 Dipole moment (field-independent basis, Debye):
    X=              0.0793    Y=             -1.4830    Z=             -0.0413  Tot=              1.4857
 Quadrupole moment (field-independent basis, Debye-Ang):
   XX=           -101.3790   YY=           -109.0543   ZZ=           -109.6848
   XY=             -5.0681   XZ=              5.6421   YZ=              1.8280

  Exact polarizability: 237.903  -0.461 151.259  -1.168  -0.041 142.567
 Approx polarizability: 238.338  -0.733 228.305  -0.121  -0.260 223.643

                      1                      2                      3
                      A                      A                      A
 Frequencies --     12.2328                21.8197                27.1156
 Red. masses --      4.2124                 3.6690                 1.9943
 Frc consts  --      0.0004                 0.0010                 0.0009
 IR Inten    --      0.0548                 0.0440                 0.3246

                      4                      5                      6
                      A                      A                      A
 Frequencies --     34.5489                56.6364                59.3447
 Red. masses --      3.0684                 2.8688                 3.6229
 Frc consts  --      0.0022                 0.0054                 0.0075
 IR Inten    --      0.1195                 0.0497                 0.2353

                      7                      8                      9
                      A                      A                      A
 Frequencies --     67.1017                79.9947                90.5206
 Red. masses --      1.8770                 1.9238                 3.2044
 Frc consts  --      0.0050                 0.0073                 0.0155
 IR Inten    --      0.4709                 0.6082                 0.9243

                     10                     11                     12
                      A                      A                      A
 Frequencies --    103.2697               111.4155               126.1392
 Red. masses --      1.8748                 3.2004                 2.7197
 Frc consts  --      0.0118                 0.0234                 0.0255
 IR Inten    --      0.8602                 0.4911                 0.6936

                     13                     14                     15
                      A                      A                      A
 Frequencies --    144.1388               145.4007               155.4830
 Red. masses --      1.9561                 3.8019                 2.8045
 Frc consts  --      0.0239                 0.0474                 0.0399
 IR Inten    --      1.7310                 0.4236                 1.4946

                     16                     17                     18
                      A                      A                      A
 Frequencies --    158.8965               167.9695               175.5197
 Red. masses --      2.3330                 3.0917                 2.8392
 Frc consts  --      0.0347                 0.0514                 0.0515
 IR Inten    --      1.7311                 1.4683                 3.2956

                     19                     20                     21
                      A                      A                      A
 Frequencies --    238.2984               241.6253               247.4144
 Red. masses --      1.1307                 3.3717                 1.1643
 Frc consts  --      0.0378                 0.1160                 0.0420
 IR Inten    --      0.4135                 0.4495                 0.6025

                     22                     23                     24
                      A                      A                      A
 Frequencies --    248.9817               287.8732               311.0770
 Red. masses --      1.1231                 4.2720                 2.7393
 Frc consts  --      0.0410                 0.2086                 0.1562
 IR Inten    --      0.0597                 0.1241                 0.7045

                     25                     26                     27
                      A                      A                      A
 Frequencies --    316.6124               404.7512               417.9612
 Red. masses --      3.2274                 2.6988                 3.1939
 Frc consts  --      0.1906                 0.2605                 0.3287
 IR Inten    --      1.5381                 1.7084                 0.5848

                     28                     29                     30
                      A                      A                      A
 Frequencies --    427.9506               494.5577               502.4980
 Red. masses --      2.5123                 3.3521                 2.8998
 Frc consts  --      0.2711                 0.4831                 0.4314
 IR Inten    --      0.3842                 1.0806                 2.3357

                     31                     32                     33
                      A                      A                      A
 Frequencies --    550.1277               552.8117               742.2831
 Red. masses --      2.7347                 3.7480                 1.0744
 Frc consts  --      0.4876                 0.6749                 0.3488
 IR Inten    --      2.0192                 6.2445                 2.1699

                     34                     35                     36
                      A                      A                      A
 Frequencies --    757.5051               787.9820               808.7178
 Red. masses --      1.1229                 1.1833                 1.1380
 Frc consts  --      0.3796                 0.4329                 0.4385
 IR Inten    --      1.4864                63.3127                 3.1258

                     37                     38                     39
                      A                      A                      A
 Frequencies --    820.9432               832.0107               841.7582
 Red. masses --      1.0850                 1.2133                 1.8741
 Frc consts  --      0.4308                 0.4949                 0.7824
 IR Inten    --      0.3346                 6.0793                 0.9041

                     40                     41                     42
                      A                      A                      A
 Frequencies --    869.6586               904.8931               906.4169
 Red. masses --      1.4408                 1.8607                 1.9772
 Frc consts  --      0.6420                 0.8977                 0.9571
 IR Inten    --      3.4803                 1.6967                 5.9232

                     43                     44                     45
                      A                      A                      A
 Frequencies --    932.1594               951.8764               954.5229
 Red. masses --      1.2440                 1.2550                 1.8664
 Frc consts  --      0.6369                 0.6700                 1.0019
 IR Inten    --      2.3284                 1.9576                 8.2168

                     46                     47                     48
                      A                      A                      A
 Frequencies --   1007.4347              1015.2619              1025.0632
 Red. masses --      2.2791                 2.6038                 2.0354
 Frc consts  --      1.3628                 1.5813                 1.2601
 IR Inten    --     13.6479                 0.7147                11.0406

                     49                     50                     51
                      A                      A                      A
 Frequencies --   1035.7121              1048.6983              1057.0756
 Red. masses --      3.3225                 3.0273                 3.2279
 Frc consts  --      2.0999                 1.9616                 2.1251
 IR Inten    --      3.9260                 0.2695                 6.3957

                     52                     53                     54
                      A                      A                      A
 Frequencies --   1065.5010              1069.4410              1097.0105
 Red. masses --      2.4748                 2.3775                 2.1129
 Frc consts  --      1.6554                 1.6021                 1.4981
 IR Inten    --      4.9819                 0.6674                10.6868

                     55                     56                     57
                      A                      A                      A
 Frequencies --   1111.9565              1127.8169              1152.0117
 Red. masses --      1.6129                 2.4281                 2.8212
 Frc consts  --      1.1750                 1.8197                 2.2060
 IR Inten    --     15.8628                 7.4790                69.4606

                     58                     59                     60
                      A                      A                      A
 Frequencies --   1154.9514              1159.7581              1166.4263
 Red. masses --      3.8698                 4.2003                 1.9328
 Frc consts  --      3.0414                 3.3286                 1.5493
 IR Inten    --      3.8395               190.6535                 4.9578

                     61                     62                     63
                      A                      A                      A
 Frequencies --   1170.0209              1176.9284              1182.7068
 Red. masses --      6.9636                 2.6890                 1.7366
 Frc consts  --      5.6165                 2.1945                 1.4312
 IR Inten    --    338.6212                44.6196                 2.2681

                     64                     65                     66
                      A                      A                      A
 Frequencies --   1195.5788              1206.4019              1227.0171
 Red. masses --      1.6294                 1.6886                 1.4560
 Frc consts  --      1.3723                 1.4480                 1.2915
 IR Inten    --      4.6320                 9.7599                 4.7311

                     67                     68                     69
                      A                      A                      A
 Frequencies --   1236.7041              1263.6986              1268.2522
 Red. masses --      1.3712                 1.2473                 1.3402
 Frc consts  --      1.2356                 1.1736                 1.2701
 IR Inten    --      2.7691                 4.5866                 5.4342

                     70                     71                     72
                      A                      A                      A
 Frequencies --   1279.4090              1287.9224              1296.5401
 Red. masses --      1.1766                 1.2722                 1.1072
 Frc consts  --      1.1348                 1.2433                 1.0966
 IR Inten    --      2.3108                 9.0319                 2.4009

                     73                     74                     75
                      A                      A                      A
 Frequencies --   1302.4439              1304.7536              1319.1337
 Red. masses --      1.1395                 1.1923                 1.1436
 Frc consts  --      1.1389                 1.1959                 1.1725
 IR Inten    --      5.8504                 1.4147                 0.8857

                     76                     77                     78
                      A                      A                      A
 Frequencies --   1320.0488              1325.0681              1327.3279
 Red. masses --      1.1080                 1.1054                 1.2015
 Frc consts  --      1.1376                 1.1435                 1.2472
 IR Inten    --      0.3441                 3.3672                 0.7101

                     79                     80                     81
                      A                      A                      A
 Frequencies --   1339.3959              1380.7050              1381.9601
 Red. masses --      1.3025                 1.3407                 1.3241
 Frc consts  --      1.3767                 1.5059                 1.4900
 IR Inten    --     34.5491                29.4011                 1.2760

                     82                     83                     84
                      A                      A                      A
 Frequencies --   1386.1737              1392.5706              1403.6363
 Red. masses --      1.3210                 1.3791                 1.4493
 Frc consts  --      1.4955                 1.5757                 1.6823
 IR Inten    --     20.6277                 7.5811                 3.6008

                     85                     86                     87
                      A                      A                      A
 Frequencies --   1405.1949              1410.5761              1412.7394
 Red. masses --      1.3809                 1.3105                 1.2555
 Frc consts  --      1.6065                 1.5364                 1.4763
 IR Inten    --      9.9206                18.8655                 2.9610

                     88                     89                     90
                      A                      A                      A
 Frequencies --   1424.7538              1450.7390              1458.8747
 Red. masses --      1.4892                 1.4517                 1.5544
 Frc consts  --      1.7811                 1.8001                 1.9492
 IR Inten    --     25.6326                 7.2965                 2.0680

                     91                     92                     93
                      A                      A                      A
 Frequencies --   1483.5016              1483.6905              1486.1450
 Red. masses --      1.0624                 1.0608                 1.0658
 Frc consts  --      1.3775                 1.3759                 1.3869
 IR Inten    --      2.1512                 2.7166                 0.6049

                     94                     95                     96
                      A                      A                      A
 Frequencies --   1493.6940              1494.9457              1495.6513
 Red. masses --      1.1171                 1.1757                 1.0598
 Frc consts  --      1.4685                 1.5481                 1.3968
 IR Inten    --      6.3227                27.3977                 3.7898

                     97                     98                     99
                      A                      A                      A
 Frequencies --   1499.2776              1499.9961              1500.2815
 Red. masses --      1.0553                 1.0453                 1.0825
 Frc consts  --      1.3977                 1.3857                 1.4356
 IR Inten    --      2.9424                 4.9191                 1.3773

                    100                    101                    102
                      A                      A                      A
 Frequencies --   1507.5907              1507.7236              1511.6372
 Red. masses --      1.0634                 1.0666                 1.0813
 Frc consts  --      1.4241                 1.4286                 1.4558
 IR Inten    --      2.3092                 9.5207                 3.2658

                    103                    104                    105
                      A                      A                      A
 Frequencies --   1513.4054              1519.0567              1527.5218
 Red. masses --      1.0783                 1.0932                 1.0911
 Frc consts  --      1.4552                 1.4863                 1.5000
 IR Inten    --      6.1721                 9.5250                 0.3466

                    106                    107                    108
                      A                      A                      A
 Frequencies --   1536.6146              1537.3746              2906.4675
 Red. masses --      1.0946                 1.0937                 1.0729
 Frc consts  --      1.5227                 1.5230                 5.3402
 IR Inten    --      1.5765                 1.0275                66.7082

                    109                    110                    111
                      A                      A                      A
 Frequencies --   2930.7316              2932.1498              2937.0255
 Red. masses --      1.0637                 1.0554                 1.0697
 Frc consts  --      5.3829                 5.3460                 5.4365
 IR Inten    --     37.8822                20.7241                62.5428

                    112                    113                    114
                      A                      A                      A
 Frequencies --   2944.1246              2951.4962              2963.6254
 Red. masses --      1.0590                 1.0563                 1.0999
 Frc consts  --      5.4083                 5.4216                 5.6916
 IR Inten    --     58.1872                77.5335                43.6137

                    115                    116                    117
                      A                      A                      A
 Frequencies --   2964.6068              2972.1799              2990.9339
 Red. masses --      1.1044                 1.1055                 1.0907
 Frc consts  --      5.7187                 5.7537                 5.7485
 IR Inten    --     63.7791                46.5865                56.7040

                    118                    119                    120
                      A                      A                      A
 Frequencies --   2997.7758              2999.0742              3010.6386
 Red. masses --      1.0592                 1.0661                 1.0828
 Frc consts  --      5.6082                 5.6496                 5.7826
 IR Inten    --     30.2490                10.0841                11.7062

                    121                    122                    123
                      A                      A                      A
 Frequencies --   3014.2840              3025.7334              3028.3932
 Red. masses --      1.0622                 1.0779                 1.0558
 Frc consts  --      5.6862                 5.8143                 5.7050
 IR Inten    --     20.8972                34.0408                 4.8020

                    124                    125                    126
                      A                      A                      A
 Frequencies --   3028.8885              3032.6787              3037.7641
 Red. masses --      1.0385                 1.0731                 1.0734
 Frc consts  --      5.6132                 5.8152                 5.8361
 IR Inten    --     42.7442                37.5906                46.2305

                    127                    128                    129
                      A                      A                      A
 Frequencies --   3038.4044              3043.8552              3054.0466
 Red. masses --      1.0962                 1.0347                 1.0890
 Frc consts  --      5.9626                 5.6480                 5.9844
 IR Inten    --      4.3265                19.0154                34.8803

                    130                    131                    132
                      A                      A                      A
 Frequencies --   3063.3208              3084.5354              3095.4566
 Red. masses --      1.1009                 1.1025                 1.1021
 Frc consts  --      6.0866                 6.1801                 6.2217
 IR Inten    --     44.7538                50.4430                58.1050

                    133                    134                    135
                      A                      A                      A
 Frequencies --   3100.5907              3100.8712              3118.1470
 Red. masses --      1.0939                 1.1010                 1.1015
 Frc consts  --      6.1958                 6.2376                 6.3097
 IR Inten    --     29.0813                39.5538                27.1981

                    136                    137                    138
                      A                      A                      A
 Frequencies --   3120.2025              3129.2156              3491.2658
 Red. masses --      1.1026                 1.1004                 1.0730
 Frc consts  --      6.3246                 6.3486                 7.7055
 IR Inten    --     26.3653                21.8912                 0.7793

 - Thermochemistry -
 -------------------
 Temperature   298.150 Kelvin.  Pressure   1.00000 Atm.
 Atom     1 has atomic number  6 and mass  12.00000

 Molecular mass:   245.23548 amu.
 Principal axes and moments of inertia in atomic units:
                           1         2         3
     Eigenvalues --   552.81657********************
           X            1.00000  -0.00006   0.00097
           Y            0.00006   1.00000  -0.00088
           Z           -0.00097   0.00088   1.00000
 This molecule is an asymmetric top.
 Rotational symmetry number  1.
 Warning -- assumption of classical behavior for rotation
           may cause significant error
 Rotational temperatures (Kelvin)      0.15668     0.00313     0.00311
 Rotational constants (GHZ):           3.26463     0.06528     0.06474
 Zero-point vibrational energy    1158157.4 (Joules/Mol)
                                  276.80627 (Kcal/Mol)
 Warning -- explicit consideration of  32 degrees of freedom as
           vibrations may cause significant error
 Vibrational temperatures:     17.60    31.39    39.01    49.71    81.49
          (Kelvin)             85.38    96.54   115.09   130.24   148.58
                              160.30   181.49   207.38   209.20   223.71
                              228.62   241.67   252.53   342.86   347.64
                              355.97   358.23   414.19   447.57   455.53
                              582.35   601.35   615.73   711.56   722.98
                              791.51   795.37  1067.98  1089.88  1133.73
                             1163.56  1181.15  1197.08  1211.10  1251.24
                             1301.94  1304.13  1341.17  1369.54  1373.35
                             1449.47  1460.74  1474.84  1490.16  1508.84
                             1520.90  1533.02  1538.69  1578.35  1599.86
                             1622.68  1657.49  1661.72  1668.63  1678.23
                             1683.40  1693.34  1701.65  1720.17  1735.74
                             1765.40  1779.34  1818.18  1824.73  1840.78
                             1853.03  1865.43  1873.93  1877.25  1897.94
                             1899.26  1906.48  1909.73  1927.09  1986.53
                             1988.33  1994.39  2003.60  2019.52  2021.76
                             2029.50  2032.62  2049.90  2087.29  2099.00
                             2134.43  2134.70  2138.23  2149.09  2150.89
                             2151.91  2157.13  2158.16  2158.57  2169.09
                             2169.28  2174.91  2177.45  2185.58  2197.76
                             2210.85  2211.94  4181.76  4216.67  4218.71
                             4225.72  4235.94  4246.54  4264.00  4265.41
                             4276.30  4303.29  4313.13  4315.00  4331.64
                             4336.88  4353.36  4357.18  4357.89  4363.35
                             4370.67  4371.59  4379.43  4394.09  4407.44
                             4437.96  4453.67  4461.06  4461.46  4486.32
                             4489.28  4502.24  5023.15

 Zero-point correction=                           0.441119 (Hartree/Particle)
 Thermal correction to Energy=                    0.463987
 Thermal correction to Enthalpy=                  0.464931
 Thermal correction to Gibbs Free Energy=         0.384612
 Sum of electronic and zero-point Energies=           -756.964428
 Sum of electronic and thermal Energies=              -756.941560
 Sum of electronic and thermal Enthalpies=            -756.940616
 Sum of electronic and thermal Free Energies=         -757.020935

                     E (Thermal)             CV                S
                      KCal/Mol        Cal/Mol-Kelvin    Cal/Mol-Kelvin
 Total                  291.156             79.521            169.045
 Electronic               0.000              0.000              0.000
 Translational            0.889              2.981             42.392
 Rotational               0.889              2.981             34.409
 Vibrational            289.379             73.559             92.244
 Vibration     1          0.593              1.987              7.611
 Vibration     2          0.593              1.985              6.461
 Vibration     3          0.593              1.984              6.030
 Vibration     4          0.594              1.983              5.549
 Vibration     5          0.596              1.975              4.571
 Vibration     6          0.597              1.974              4.479
 Vibration     7          0.598              1.970              4.237
 Vibration     8          0.600              1.963              3.891
 Vibration     9          0.602              1.956              3.649
 Vibration    10          0.605              1.947              3.392
 Vibration    11          0.607              1.940              3.244
 Vibration    12          0.611              1.927              3.004
 Vibration    13          0.616              1.909              2.748
 Vibration    14          0.617              1.908              2.732
 Vibration    15          0.620              1.897              2.604
 Vibration    16          0.621              1.893              2.563
 Vibration    17          0.625              1.882              2.458
 Vibration    18          0.627              1.873              2.376
 Vibration    19          0.656              1.782              1.816
 Vibration    20          0.658              1.777              1.791
 Vibration    21          0.661              1.767              1.749
 Vibration    22          0.662              1.764              1.738
 Vibration    23          0.685              1.696              1.486
 Vibration    24          0.700              1.653              1.357
 Vibration    25          0.703              1.642              1.328
 Vibration    26          0.770              1.460              0.945
 Vibration    27          0.781              1.431              0.899
 Vibration    28          0.789              1.409              0.865
 Vibration    29          0.850              1.262              0.672
 Vibration    30          0.858              1.244              0.652
 Vibration    31          0.905              1.139              0.544
 Vibration    32          0.908              1.134              0.538

 Optimization completed.
    -- Stationary point found.
 Normal termination of Gaussian 16 at Thu May 25 04:33:34 2023.
