 Gaussian 16, Revision A.03,
 Gaussian 16:  ES64L-G16RevA.03 25-Dec-2016

 -----------------------------
 # opt freq b3lyp/6-31g(2df,p)
 -----------------------------

 -------------------
 Title Card Required
 -------------------
 Symbolic Z-matrix:
 Charge =  0 Multiplicity = 1

 SCF Done:  E(RB3LYP) =  -629.028156945     A.U. after   12 cycles
 SCF Done:  E(RB3LYP) =  -629.036170748     A.U. after   10 cycles
 SCF Done:  E(RB3LYP) =  -629.038793281     A.U. after   10 cycles
 SCF Done:  E(RB3LYP) =  -629.042141277     A.U. after   10 cycles
 SCF Done:  E(RB3LYP) =  -629.043837334     A.U. after   10 cycles
 SCF Done:  E(RB3LYP) =  -629.043767328     A.U. after   10 cycles
 SCF Done:  E(RB3LYP) =  -629.044817808     A.U. after    9 cycles
 SCF Done:  E(RB3LYP) =  -629.044937559     A.U. after    8 cycles
 SCF Done:  E(RB3LYP) =  -629.044992574     A.U. after    9 cycles
 SCF Done:  E(RB3LYP) =  -629.045007159     A.U. after    8 cycles
 SCF Done:  E(RB3LYP) =  -629.045010176     A.U. after    8 cycles
 SCF Done:  E(RB3LYP) =  -629.045010680     A.U. after    6 cycles
 SCF Done:  E(RB3LYP) =  -629.045010859     A.U. after    6 cycles
 SCF Done:  E(RB3LYP) =  -629.045010861     A.U. after    5 cycles
 Optimization completed.
    -- Stationary point found.
 Normal termination of Gaussian 16 at Tue May 23 12:33:39 2023.

 ----------------------------------------------------------------------
 #N Geom=AllCheck Guess=TCheck SCRF=Check GenChk RB3LYP/6-31G(2df,p) Fr
 eq
 ----------------------------------------------------------------------

 Structure from the checkpoint file:  "CCCCCCC1CCCqCrCCC1CC.chk"
 -------------------
 Title Card Required
 -------------------
 Charge =  0 Multiplicity = 1

                         Standard orientation:
 ---------------------------------------------------------------------
 Center     Atomic      Atomic             Coordinates (Angstroms)
 Number     Number       Type             X           Y           Z
 ---------------------------------------------------------------------
      1          6           0       -6.376752   -1.141249   -1.021383
      2          6           0       -5.427985   -0.455994   -0.034200
      3          6           0       -3.948422   -0.713480   -0.339624
      4          6           0       -2.991701   -0.033103    0.644987
      5          6           0       -1.511144   -0.290064    0.338132
      6          6           0       -0.573219    0.361284    1.367466
      7          6           0        0.948433    0.296236    1.078213
      8          6           0        1.364510   -1.187503    0.974466
      9          6           0        2.848784   -1.545976    0.797717
     10          6           0        3.380878   -1.280627   -0.621909
     11          6           0        4.563510   -2.196332   -0.966638
     12          6           0        3.768350    0.193121   -0.865329
     13          6           0        3.000735    1.270796   -0.083253
     14          6           0        1.449096    1.208785   -0.085241
     15          6           0        0.877096    2.654088    0.004709
     16          6           0       -0.389814    2.931573   -0.814519
     17          1           0       -7.424484   -0.938948   -0.777363
     18          1           0       -6.237509   -2.228199   -1.014641
     19          1           0       -6.200681   -0.793918   -2.045700
     20          1           0       -5.651031   -0.797217    0.985561
     21          1           0       -5.614757    0.626209   -0.037391
     22          1           0       -3.724441   -0.371575   -1.360056
     23          1           0       -3.761814   -1.796751   -0.338354
     24          1           0       -3.214769   -0.377038    1.664973
     25          1           0       -3.182575    1.049596    0.646993
     26          1           0       -1.283595    0.074926   -0.671538
     27          1           0       -1.342820   -1.373037    0.310716
     28          1           0       -0.745478   -0.124090    2.338067
     29          1           0       -0.872578    1.404803    1.512109
     30          1           0        1.432741    0.701854    1.980602
     31          1           0        0.819608   -1.654982    0.144298
     32          1           0        0.995919   -1.681981    1.883023
     33          1           0        2.950493   -2.618060    1.008541
     34          1           0        3.471003   -1.036090    1.545588
     35          1           0        2.563879   -1.534119   -1.312103
     36          1           0        5.390782   -2.047575   -0.261952
     37          1           0        4.946538   -1.989193   -1.972068
     38          1           0        4.277370   -3.252765   -0.927654
     39          1           0        3.685392    0.400468   -1.940244
     40          1           0        4.833050    0.318894   -0.624423
     41          1           0        3.317066    2.234190   -0.498203
     42          1           0        3.345388    1.282099    0.958980
     43          1           0        1.124241    0.782826   -1.045918
     44          1           0        1.644583    3.352502   -0.346395
     45          1           0        0.706552    2.919752    1.056230
     46          1           0       -0.227293    2.694828   -1.872251
     47          1           0       -0.662565    3.990624   -0.753501
     48          1           0       -1.252345    2.352626   -0.477497
 ---------------------------------------------------------------------

 SCF Done:  E(RB3LYP) =  -629.045010861     A.U. after    1 cycles

 The electronic state is 1-A.
 Alpha  occ. eigenvalues --  -10.17781 -10.17763 -10.17652 -10.17414 -10.17229
 Alpha  occ. eigenvalues --  -10.17202 -10.17166 -10.17038 -10.16972 -10.16949
 Alpha  occ. eigenvalues --  -10.16932 -10.16925 -10.16873 -10.16852 -10.16811
 Alpha  occ. eigenvalues --  -10.16614  -0.82940  -0.80129  -0.78793  -0.77009
 Alpha  occ. eigenvalues --   -0.74669  -0.73159  -0.70541  -0.67770  -0.65084
 Alpha  occ. eigenvalues --   -0.62090  -0.60417  -0.58939  -0.58202  -0.57021
 Alpha  occ. eigenvalues --   -0.53869  -0.53189  -0.47607  -0.45839  -0.45600
 Alpha  occ. eigenvalues --   -0.44867  -0.43968  -0.43151  -0.42129  -0.41075
 Alpha  occ. eigenvalues --   -0.40990  -0.40727  -0.39521  -0.39273  -0.38601
 Alpha  occ. eigenvalues --   -0.37922  -0.37236  -0.36415  -0.35573  -0.35370
 Alpha  occ. eigenvalues --   -0.34478  -0.34194  -0.33693  -0.33402  -0.32404
 Alpha  occ. eigenvalues --   -0.32049  -0.31682  -0.31494  -0.30258  -0.29823
 Alpha  occ. eigenvalues --   -0.29460  -0.29316  -0.28941  -0.28278
 Alpha virt. eigenvalues --    0.08163   0.08595   0.09074   0.09878   0.10387
 Alpha virt. eigenvalues --    0.11368   0.12157   0.12637   0.13104   0.13424
 Alpha virt. eigenvalues --    0.14509   0.14592   0.14790   0.15217   0.16006

 Mulliken charges:
               1
     1  C   -0.379044
     2  C   -0.162264
     3  C   -0.162161
     4  C   -0.180096
     5  C   -0.175155
     6  C   -0.221663
     7  C    0.005976
     8  C   -0.197356
     9  C   -0.219448
    10  C    0.067236
    11  C   -0.406348
    12  C   -0.200858
    13  C   -0.218197
    14  C    0.033420
    15  C   -0.192692
    16  C   -0.391653
    17  H    0.109319
    18  H    0.112154
    19  H    0.112286
    20  H    0.092653
    21  H    0.092937
    22  H    0.089992
    23  H    0.089539
    24  H    0.090117
    25  H    0.092207
    26  H    0.095940
    27  H    0.092004
    28  H    0.086822
    29  H    0.091329
    30  H    0.063315
    31  H    0.095959
    32  H    0.084187
    33  H    0.084282
    34  H    0.087541
    35  H    0.065509
    36  H    0.110762
    37  H    0.107411
    38  H    0.105893
    39  H    0.090337
    40  H    0.087534
    41  H    0.084690
    42  H    0.092428
    43  H    0.062183
    44  H    0.088526
    45  H    0.095526
    46  H    0.110661
    47  H    0.107919
    48  H    0.128339
 Sum of Mulliken charges =  -0.00000

 Dipole moment (field-independent basis, Debye):
    X=             -0.0148    Y=              0.0389    Z=              0.0613  Tot=              0.0741
 Quadrupole moment (field-independent basis, Debye-Ang):
   XX=           -108.1807   YY=           -106.1438   ZZ=           -105.8365
   XY=              0.5613   XZ=             -0.1961   YZ=             -0.5743

  Exact polarizability: 205.188  -4.674 168.747  -2.581  -2.403 149.400
 Approx polarizability: 240.467   0.230 239.226  -0.652  -1.385 236.825

                      1                      2                      3
                      A                      A                      A
 Frequencies --     31.8340                35.2304                44.2087
 Red. masses --      3.2501                 3.4075                 2.1502
 Frc consts  --      0.0019                 0.0025                 0.0025
 IR Inten    --      0.0015                 0.0013                 0.0045

                      4                      5                      6
                      A                      A                      A
 Frequencies --     53.7960                78.4850                85.1562
 Red. masses --      1.8127                 2.2936                 2.8004
 Frc consts  --      0.0031                 0.0083                 0.0120
 IR Inten    --      0.0005                 0.0296                 0.0150

                      7                      8                      9
                      A                      A                      A
 Frequencies --    103.8218               138.2644               146.8831
 Red. masses --      2.5047                 1.7671                 1.9252
 Frc consts  --      0.0159                 0.0199                 0.0245
 IR Inten    --      0.0037                 0.0140                 0.0034

                     10                     11                     12
                      A                      A                      A
 Frequencies --    163.6439               174.0366               222.0638
 Red. masses --      3.0706                 2.3278                 1.7863
 Frc consts  --      0.0484                 0.0415                 0.0519
 IR Inten    --      0.0057                 0.0296                 0.1170

                     13                     14                     15
                      A                      A                      A
 Frequencies --    235.1794               241.2147               247.2019
 Red. masses --      1.9199                 1.6757                 1.1289
 Frc consts  --      0.0626                 0.0574                 0.0406
 IR Inten    --      0.0069                 0.0564                 0.0007

                     16                     17                     18
                      A                      A                      A
 Frequencies --    250.6428               278.1436               294.1659
 Red. masses --      1.4327                 2.1560                 3.1568
 Frc consts  --      0.0530                 0.0983                 0.1609
 IR Inten    --      0.0072                 0.0704                 0.0846

                     19                     20                     21
                      A                      A                      A
 Frequencies --    307.0317               332.9500               348.6063
 Red. masses --      1.8582                 2.4269                 2.6479
 Frc consts  --      0.1032                 0.1585                 0.1896
 IR Inten    --      0.0068                 0.0310                 0.1826

                     22                     23                     24
                      A                      A                      A
 Frequencies --    376.1408               416.7516               435.8660
 Red. masses --      2.5174                 2.4198                 2.1599
 Frc consts  --      0.2098                 0.2476                 0.2418
 IR Inten    --      0.1045                 0.2666                 0.0817

                     25                     26                     27
                      A                      A                      A
 Frequencies --    447.4946               452.7256               500.8903
 Red. masses --      2.5203                 2.7672                 2.6271
 Frc consts  --      0.2974                 0.3342                 0.3883
 IR Inten    --      0.1631                 0.0632                 0.0465

                     28                     29                     30
                      A                      A                      A
 Frequencies --    540.2589               640.1060               726.7097
 Red. masses --      2.3286                 3.0383                 1.9409
 Frc consts  --      0.4005                 0.7335                 0.6039
 IR Inten    --      0.0665                 0.6813                 0.2410

                     31                     32                     33
                      A                      A                      A
 Frequencies --    730.8893               742.2070               756.3556
 Red. masses --      1.0785                 1.1143                 1.4110
 Frc consts  --      0.3395                 0.3617                 0.4756
 IR Inten    --      5.4278                 0.1516                 1.5536

                     34                     35                     36
                      A                      A                      A
 Frequencies --    788.6879               819.0785               834.0571
 Red. masses --      1.2234                 1.5333                 2.0438
 Frc consts  --      0.4484                 0.6061                 0.8377
 IR Inten    --      1.3822                 1.7474                 0.1459

                     37                     38                     39
                      A                      A                      A
 Frequencies --    858.8502               866.6284               894.5829
 Red. masses --      1.7305                 1.9441                 1.8246
 Frc consts  --      0.7521                 0.8603                 0.8603
 IR Inten    --      1.4248                 2.1537                 1.0954

                     40                     41                     42
                      A                      A                      A
 Frequencies --    898.3019               930.1526               937.7016
 Red. masses --      1.5208                 1.9526                 1.6423
 Frc consts  --      0.7230                 0.9953                 0.8508
 IR Inten    --      0.8954                 1.3370                 0.0976

                     43                     44                     45
                      A                      A                      A
 Frequencies --    972.6033               980.5893               986.5529
 Red. masses --      1.7489                 1.8006                 1.6772
 Frc consts  --      0.9747                 1.0201                 0.9618
 IR Inten    --      1.7356                 1.5142                 0.4941

                     46                     47                     48
                      A                      A                      A
 Frequencies --   1002.2103              1025.3149              1029.0367
 Red. masses --      2.4736                 2.0671                 1.7180
 Frc consts  --      1.4638                 1.2804                 1.0719
 IR Inten    --      0.1266                 0.3925                 0.0135

                     49                     50                     51
                      A                      A                      A
 Frequencies --   1046.8621              1053.8354              1061.6821
 Red. masses --      2.6511                 2.7298                 2.3202
 Frc consts  --      1.7118                 1.7862                 1.5408
 IR Inten    --      0.4670                 0.6773                 0.0834

                     52                     53                     54
                      A                      A                      A
 Frequencies --   1069.8104              1073.4836              1083.6142
 Red. masses --      2.2603                 1.4954                 2.2087
 Frc consts  --      1.5242                 1.0153                 1.5281
 IR Inten    --      0.1646                 0.2781                 1.0688

                     55                     56                     57
                      A                      A                      A
 Frequencies --   1091.3438              1097.7705              1108.0240
 Red. masses --      1.8817                 1.8589                 1.9572
 Frc consts  --      1.3204                 1.3199                 1.4158
 IR Inten    --      0.2146                 3.0868                 0.7979

                     58                     59                     60
                      A                      A                      A
 Frequencies --   1126.9357              1154.1321              1176.6165
 Red. masses --      2.0548                 2.1109                 1.8732
 Frc consts  --      1.5375                 1.6566                 1.5279
 IR Inten    --      2.6819                 0.5080                 0.1450

                     61                     62                     63
                      A                      A                      A
 Frequencies --   1183.5710              1198.7291              1228.0023
 Red. masses --      2.0159                 1.6674                 1.5483
 Frc consts  --      1.6638                 1.4117                 1.3756
 IR Inten    --      0.2116                 0.1715                 0.3486

                     64                     65                     66
                      A                      A                      A
 Frequencies --   1231.1084              1251.4823              1273.5998
 Red. masses --      1.5202                 1.3535                 1.2654
 Frc consts  --      1.3575                 1.2490                 1.2094
 IR Inten    --      1.4488                 2.7704                 2.3953

                     67                     68                     69
                      A                      A                      A
 Frequencies --   1280.9656              1286.3478              1297.1964
 Red. masses --      1.2436                 1.2547                 1.2358
 Frc consts  --      1.2023                 1.2232                 1.2252
 IR Inten    --      1.4598                 0.9895                 1.5866

                     70                     71                     72
                      A                      A                      A
 Frequencies --   1303.8899              1315.0451              1323.1428
 Red. masses --      1.2811                 1.2463                 1.1836
 Frc consts  --      1.2833                 1.2699                 1.2209
 IR Inten    --      1.6733                 1.5439                 0.5980

                     73                     74                     75
                      A                      A                      A
 Frequencies --   1330.1925              1330.9981              1338.5490
 Red. masses --      1.0761                 1.2345                 1.1998
 Frc consts  --      1.1219                 1.2885                 1.2666
 IR Inten    --      0.0131                 0.8671                 0.4045

                     76                     77                     78
                      A                      A                      A
 Frequencies --   1343.7801              1345.1619              1363.6554
 Red. masses --      1.2232                 1.1919                 1.2093
 Frc consts  --      1.3013                 1.2707                 1.3249
 IR Inten    --      3.2714                 3.3207                 1.2365

                     79                     80                     81
                      A                      A                      A
 Frequencies --   1373.3017              1378.3908              1381.3836
 Red. masses --      1.4058                 1.3631                 1.3721
 Frc consts  --      1.5621                 1.5259                 1.5426
 IR Inten    --      4.1216                 1.1027                 2.4088

                     82                     83                     84
                      A                      A                      A
 Frequencies --   1389.5464              1394.9130              1399.7289
 Red. masses --      1.3881                 1.4701                 1.5792
 Frc consts  --      1.5791                 1.6853                 1.8230
 IR Inten    --      1.2422                 2.4082                 1.2646

                     85                     86                     87
                      A                      A                      A
 Frequencies --   1401.8816              1403.8988              1408.1451
 Red. masses --      1.4166                 1.3960                 1.2904
 Frc consts  --      1.6402                 1.6211                 1.5075
 IR Inten    --      0.9918                 3.1388                 3.6026

                     88                     89                     90
                      A                      A                      A
 Frequencies --   1412.2747              1413.1622              1419.8760
 Red. masses --      1.2409                 1.2513                 1.3058
 Frc consts  --      1.4582                 1.4723                 1.5511
 IR Inten    --      2.4430                 0.3390                 2.3469

                     91                     92                     93
                      A                      A                      A
 Frequencies --   1479.4533              1482.6289              1483.9007
 Red. masses --      1.0733                 1.0745                 1.0696
 Frc consts  --      1.3842                 1.3916                 1.3877
 IR Inten    --      0.5661                 0.2016                 2.0153

                     94                     95                     96
                      A                      A                      A
 Frequencies --   1485.5044              1486.8140              1488.6048
 Red. masses --      1.0818                 1.0751                 1.0773
 Frc consts  --      1.4065                 1.4002                 1.4065
 IR Inten    --      1.5256                 0.9719                 3.3307

                     97                     98                     99
                      A                      A                      A
 Frequencies --   1490.8406              1497.8868              1499.4816
 Red. masses --      1.0667                 1.0727                 1.0554
 Frc consts  --      1.3969                 1.4180                 1.3981
 IR Inten    --      0.7184                 0.7029                 3.4770

                    100                    101                    102
                      A                      A                      A
 Frequencies --   1499.7683              1500.5044              1502.5510
 Red. masses --      1.0403                 1.0573                 1.0670
 Frc consts  --      1.3787                 1.4025                 1.4193
 IR Inten    --      4.6862                 2.5140                 4.8489

                    103                    104                    105
                      A                      A                      A
 Frequencies --   1504.5943              1510.0081              1511.5218
 Red. masses --      1.0669                 1.0824                 1.0801
 Frc consts  --      1.4230                 1.4541                 1.4539
 IR Inten    --      5.0017                 4.4581                 5.2118

                    106                    107                    108
                      A                      A                      A
 Frequencies --   1517.8053              2968.6961              2989.8213
 Red. masses --      1.0844                 1.0806                 1.0814
 Frc consts  --      1.4719                 5.6113                 5.6954
 IR Inten    --      2.8076                12.7447                 0.9474

                    109                    110                    111
                      A                      A                      A
 Frequencies --   2995.6154              2997.1261              3001.7186
 Red. masses --      1.0814                 1.0577                 1.0583
 Frc consts  --      5.7177                 5.5978                 5.6185
 IR Inten    --     12.4690                 0.5606                10.1606

                    112                    113                    114
                      A                      A                      A
 Frequencies --   3003.0807              3005.7877              3011.9832
 Red. masses --      1.0607                 1.0636                 1.0625
 Frc consts  --      5.6361                 5.6616                 5.6792
 IR Inten    --     25.6419                28.6205                 6.4898

                    115                    116                    117
                      A                      A                      A
 Frequencies --   3013.7227              3014.6537              3016.9056
 Red. masses --      1.0665                 1.0614                 1.0571
 Frc consts  --      5.7071                 5.6832                 5.6690
 IR Inten    --     21.4724                60.9490                 4.3706

                    118                    119                    120
                      A                      A                      A
 Frequencies --   3018.6993              3021.2026              3023.8508
 Red. masses --      1.0978                 1.0433                 1.0672
 Frc consts  --      5.8939                 5.6109                 5.7492
 IR Inten    --      0.2936                39.3744                31.9638

                    121                    122                    123
                      A                      A                      A
 Frequencies --   3026.5792              3027.8051              3032.1993
 Red. masses --      1.0568                 1.0413                 1.0982
 Frc consts  --      5.7036                 5.6246                 5.9492
 IR Inten    --     31.7745                54.0203                 1.2861

                    124                    125                    126
                      A                      A                      A
 Frequencies --   3033.2705              3038.0359              3043.2194
 Red. masses --      1.0470                 1.0919                 1.0986
 Frc consts  --      5.6759                 5.9376                 5.9943
 IR Inten    --     17.9757                38.6005                41.5052

                    127                    128                    129
                      A                      A                      A
 Frequencies --   3048.9962              3050.4854              3054.6563
 Red. masses --      1.0996                 1.0986                 1.0990
 Frc consts  --      6.0226                 6.0233                 6.0421
 IR Inten    --     12.8217                34.8469                58.9317

                    130                    131                    132
                      A                      A                      A
 Frequencies --   3059.0421              3063.0474              3074.8762
 Red. masses --      1.0957                 1.0980                 1.1010
 Frc consts  --      6.0411                 6.0695                 6.1332
 IR Inten    --     15.2272                87.4137               101.2943

                    133                    134                    135
                      A                      A                      A
 Frequencies --   3086.2827              3091.1826              3093.6385
 Red. masses --      1.1004                 1.1007                 1.1020
 Frc consts  --      6.1758                 6.1970                 6.2139
 IR Inten    --     44.2752                39.0436                39.2727

                    136                    137                    138
                      A                      A                      A
 Frequencies --   3093.7540              3098.9866              3126.6991
 Red. masses --      1.1015                 1.1009                 1.0968
 Frc consts  --      6.2117                 6.2295                 6.3176
 IR Inten    --     59.6864                41.3155                35.3465

 - Thermochemistry -
 -------------------
 Temperature   298.150 Kelvin.  Pressure   1.00000 Atm.
 Atom     1 has atomic number  6 and mass  12.00000

 Molecular mass:   224.25040 amu.
 Principal axes and moments of inertia in atomic units:
                           1         2         3
     Eigenvalues --  2294.893039210.35319**********
           X            1.00000  -0.00086   0.00104
           Y            0.00086   1.00000   0.00192
           Z           -0.00104  -0.00192   1.00000
 This molecule is an asymmetric top.
 Rotational symmetry number  1.
 Warning -- assumption of classical behavior for rotation
           may cause significant error
 Rotational temperatures (Kelvin)      0.03774     0.00940     0.00835
 Rotational constants (GHZ):           0.78642     0.19595     0.17400
 Zero-point vibrational energy    1188590.6 (Joules/Mol)
                                  284.07996 (Kcal/Mol)
 Warning -- explicit consideration of  28 degrees of freedom as
           vibrations may cause significant error
 Vibrational temperatures:     45.80    50.69    63.61    77.40   112.92
          (Kelvin)            122.52   149.38   198.93   211.33   235.45
                              250.40   319.50   338.37   347.05   355.67
                              360.62   400.19   423.24   441.75   479.04
                              501.57   541.18   599.61   627.11   643.84
                              651.37   720.67   777.31   920.97  1045.57
                             1051.59  1067.87  1088.23  1134.75  1178.47
                             1200.02  1235.69  1246.89  1287.11  1292.46
                             1338.28  1349.14  1399.36  1410.85  1419.43
                             1441.96  1475.20  1480.55  1506.20  1516.23
                             1527.52  1539.22  1544.50  1559.08  1570.20
                             1579.45  1594.20  1621.41  1660.54  1692.89
                             1702.89  1724.70  1766.82  1771.29  1800.60
                             1832.43  1843.02  1850.77  1866.38  1876.01
                             1892.06  1903.71  1913.85  1915.01  1925.87
                             1933.40  1935.39  1962.00  1975.87  1983.20
                             1987.50  1999.25  2006.97  2013.90  2017.00
                             2019.90  2026.01  2031.95  2033.23  2042.88
                             2128.60  2133.17  2135.00  2137.31  2139.19
                             2141.77  2144.99  2155.12  2157.42  2157.83
                             2158.89  2161.84  2164.78  2172.56  2174.74
                             2183.78  4271.29  4301.69  4310.02  4312.20
                             4318.80  4320.76  4324.66  4333.57  4336.07
                             4337.41  4340.65  4343.24  4346.84  4350.65
                             4354.57  4356.34  4362.66  4364.20  4371.06
                             4378.51  4386.83  4388.97  4394.97  4401.28
                             4407.04  4424.06  4440.47  4447.52  4451.06
                             4451.22  4458.75  4498.62

 Zero-point correction=                           0.452710 (Hartree/Particle)
 Thermal correction to Energy=                    0.472147
 Thermal correction to Enthalpy=                  0.473091
 Thermal correction to Gibbs Free Energy=         0.404221
 Sum of electronic and zero-point Energies=           -628.592301
 Sum of electronic and thermal Energies=              -628.572864
 Sum of electronic and thermal Enthalpies=            -628.571919
 Sum of electronic and thermal Free Energies=         -628.640789

                     E (Thermal)             CV                S
                      KCal/Mol        Cal/Mol-Kelvin    Cal/Mol-Kelvin
 Total                  296.277             73.832            144.949
 Electronic               0.000              0.000              0.000
 Translational            0.889              2.981             42.125
 Rotational               0.889              2.981             33.749
 Vibrational            294.499             67.871             69.075
 Vibration     1          0.594              1.983              5.712
 Vibration     2          0.594              1.982              5.511
 Vibration     3          0.595              1.980              5.061
 Vibration     4          0.596              1.976              4.673
 Vibration     5          0.600              1.964              3.928
 Vibration     6          0.601              1.959              3.768
 Vibration     7          0.605              1.946              3.381
 Vibration     8          0.614              1.915              2.828
 Vibration     9          0.617              1.906              2.712
 Vibration    10          0.623              1.887              2.507
 Vibration    11          0.627              1.874              2.391
 Vibration    12          0.648              1.807              1.942
 Vibration    13          0.655              1.787              1.839
 Vibration    14          0.658              1.777              1.794
 Vibration    15          0.661              1.767              1.750
 Vibration    16          0.663              1.762              1.726
 Vibration    17          0.679              1.714              1.545
 Vibration    18          0.689              1.685              1.450
 Vibration    19          0.697              1.660              1.378
 Vibration    20          0.715              1.610              1.246
 Vibration    21          0.726              1.578              1.172
 Vibration    22          0.747              1.521              1.055
 Vibration    23          0.780              1.434              0.903
 Vibration    24          0.796              1.392              0.840
 Vibration    25          0.807              1.366              0.803
 Vibration    26          0.811              1.355              0.788
 Vibration    27          0.856              1.248              0.656
 Vibration    28          0.895              1.161              0.565

 Optimization completed.
    -- Stationary point found.
 Normal termination of Gaussian 16 at Tue May 23 17:46:40 2023.
