 Gaussian 16, Revision A.03,
 Gaussian 16:  ES64L-G16RevA.03 25-Dec-2016

 -----------------------------
 # opt freq b3lyp/6-31g(2df,p)
 -----------------------------

 -------------------
 Title Card Required
 -------------------
 Symbolic Z-matrix:
 Charge =  0 Multiplicity = 1

 SCF Done:  E(RB3LYP) =  -544.520352675     A.U. after   14 cycles
 SCF Done:  E(RB3LYP) =  -544.536247508     A.U. after   12 cycles
 SCF Done:  E(RB3LYP) =  -544.546346187     A.U. after   11 cycles
 SCF Done:  E(RB3LYP) =  -544.547509863     A.U. after   10 cycles
 SCF Done:  E(RB3LYP) =  -544.547825790     A.U. after   10 cycles
 SCF Done:  E(RB3LYP) =  -544.547862923     A.U. after    9 cycles
 SCF Done:  E(RB3LYP) =  -544.547865306     A.U. after    7 cycles
 Optimization completed.
    -- Stationary point found.
 Normal termination of Gaussian 16 at Mon May 22 07:42:59 2023.

 ----------------------------------------------------------------------
 #N Geom=AllCheck Guess=TCheck SCRF=Check GenChk RB3LYP/6-31G(2df,p) Fr
 eq
 ----------------------------------------------------------------------

 Structure from the checkpoint file:  "CCCdCCCdCqCCCrCqCrdO.chk"
 -------------------
 Title Card Required
 -------------------
 Charge =  0 Multiplicity = 1

                         Standard orientation:
 ---------------------------------------------------------------------
 Center     Atomic      Atomic             Coordinates (Angstroms)
 Number     Number       Type             X           Y           Z
 ---------------------------------------------------------------------
      1          6           0       -5.859826    0.354638   -0.000023
      2          6           0       -4.662000   -0.600596    0.000001
      3          6           0       -3.330001    0.119516    0.000003
      4          6           0       -2.136983   -0.468183    0.000013
      5          6           0       -0.808934    0.261962    0.000015
      6          6           0        0.380579   -0.668226    0.000025
      7          6           0        1.700062   -0.409947    0.000028
      8          6           0        2.412378    0.930763    0.000020
      9          6           0        1.615240    2.238944   -0.000010
     10          6           0        2.549099    3.454160   -0.000014
     11          6           0        2.681228   -1.550468    0.000047
     12          6           0        2.253682   -3.017095   -0.000025
     13          8           0        3.875054   -1.311443   -0.000040
     14          1           0       -6.805802   -0.194646   -0.000023
     15          1           0       -5.848246    1.001635   -0.883844
     16          1           0       -5.848261    1.001660    0.883781
     17          1           0       -4.724907   -1.261253   -0.874426
     18          1           0       -4.724923   -1.261228    0.874446
     19          1           0       -3.378255    1.209631   -0.000005
     20          1           0       -2.087495   -1.557906    0.000020
     21          1           0       -0.759773    0.927793    0.869966
     22          1           0       -0.759766    0.927785   -0.869942
     23          1           0        0.093929   -1.714556    0.000030
     24          1           0        3.094699    0.930482   -0.860109
     25          1           0        3.094674    0.930506    0.860169
     26          1           0        0.963108    2.291494    0.878586
     27          1           0        0.963133    2.291469   -0.878626
     28          1           0        3.197417    3.453755    0.883186
     29          1           0        1.983512    4.390968   -0.000036
     30          1           0        3.197442    3.453729   -0.883197
     31          1           0        1.184144   -3.216546   -0.000027
     32          1           0        2.698906   -3.493056    0.878564
     33          1           0        2.698892   -3.492970   -0.878668
 ---------------------------------------------------------------------

 SCF Done:  E(RB3LYP) =  -544.547865306     A.U. after    1 cycles

 The electronic state is 1-A.
 Alpha  occ. eigenvalues --  -19.11333 -10.26011 -10.20058 -10.19689 -10.19418
 Alpha  occ. eigenvalues --  -10.18770 -10.18343 -10.18169 -10.18151 -10.18060
 Alpha  occ. eigenvalues --  -10.17842 -10.17781 -10.17171  -1.02570  -0.82667
 Alpha  occ. eigenvalues --   -0.80222  -0.77539  -0.75491  -0.72454  -0.70155
 Alpha  occ. eigenvalues --   -0.66170  -0.61832  -0.59174  -0.56808  -0.55676
 Alpha  occ. eigenvalues --   -0.50662  -0.47407  -0.46505  -0.45741  -0.44729
 Alpha  occ. eigenvalues --   -0.43337  -0.42862  -0.42858  -0.42608  -0.40693
 Alpha  occ. eigenvalues --   -0.39387  -0.38663  -0.38543  -0.37200  -0.36546
 Alpha  occ. eigenvalues --   -0.35468  -0.35344  -0.34702  -0.33729  -0.33084
 Alpha  occ. eigenvalues --   -0.32591  -0.32263  -0.26113  -0.23704  -0.23604
 Alpha virt. eigenvalues --   -0.04149   0.01000   0.06613   0.08448   0.08658
 Alpha virt. eigenvalues --    0.10420   0.12099   0.12593   0.12932   0.13629
 Alpha virt. eigenvalues --    0.14176   0.15028   0.15576   0.16584   0.16724

 Mulliken charges:
               1
     1  C   -0.381932
     2  C   -0.215563
     3  C   -0.068918
     4  C   -0.041973
     5  C   -0.310579
     6  C   -0.098675
     7  C    0.084835
     8  C   -0.229109
     9  C   -0.190645
    10  C   -0.389359
    11  C    0.355060
    12  C   -0.486792
    13  O   -0.324047
    14  H    0.112989
    15  H    0.118110
    16  H    0.118110
    17  H    0.111775
    18  H    0.111775
    19  H    0.077892
    20  H    0.078772
    21  H    0.137744
    22  H    0.137744
    23  H    0.088121
    24  H    0.121505
    25  H    0.121501
    26  H    0.097389
    27  H    0.097389
    28  H    0.117656
    29  H    0.108620
    30  H    0.117656
    31  H    0.124533
    32  H    0.149206
    33  H    0.149211
 Sum of Mulliken charges =  -0.00000

 Dipole moment (field-independent basis, Debye):
    X=             -3.2426    Y=              0.0966    Z=              0.0001  Tot=              3.2441
 Quadrupole moment (field-independent basis, Debye-Ang):
   XX=            -93.8338   YY=            -76.7359   ZZ=            -81.0532
   XY=              3.2302   XZ=              0.0003   YZ=             -0.0001

  Exact polarizability: 190.518  -4.411 139.040  -0.000  -0.000  89.037
 Approx polarizability: 256.248  -7.016 181.328  -0.001  -0.000 142.468

 ******    5 imaginary frequencies (negative Signs) ******

                      1                      2                      3
                      A                      A                      A
 Frequencies --   -164.0691              -162.3193               -65.2091
 Red. masses --      1.4235                 1.2211                 2.0094
 Frc consts  --      0.0226                 0.0190                 0.0050
 IR Inten    --      0.1424                 0.2875                 0.4270

                      4                      5                      6
                      A                      A                      A
 Frequencies --    -47.0394               -23.0055                26.4615
 Red. masses --      1.7023                 2.3987                 4.2670
 Frc consts  --      0.0022                 0.0007                 0.0018
 IR Inten    --      0.0387                 0.3626                 4.3385

                      7                      8                      9
                      A                      A                      A
 Frequencies --     57.3471               107.3088               138.7149
 Red. masses --      3.6741                 2.2916                 3.5106
 Frc consts  --      0.0071                 0.0155                 0.0398
 IR Inten    --      0.2604                 0.0103                 0.8467

                     10                     11                     12
                      A                      A                      A
 Frequencies --    168.1119               170.6125               187.0450
 Red. masses --      2.4115                 3.7144                 1.6033
 Frc consts  --      0.0402                 0.0637                 0.0330
 IR Inten    --      0.0023                 1.4551                 2.4473

                     13                     14                     15
                      A                      A                      A
 Frequencies --    243.2545               247.8273               275.4288
 Red. masses --      4.0253                 1.1046                 1.3709
 Frc consts  --      0.1403                 0.0400                 0.0613
 IR Inten    --      0.3653                 0.0004                 1.8593

                     16                     17                     18
                      A                      A                      A
 Frequencies --    302.9453               349.4976               372.7880
 Red. masses --      3.9196                 3.1817                 4.2736
 Frc consts  --      0.2119                 0.2290                 0.3499
 IR Inten    --      3.0717                 3.1503                 2.2996

                     19                     20                     21
                      A                      A                      A
 Frequencies --    419.2545               444.9860               499.6729
 Red. masses --      2.5523                 3.1393                 3.6516
 Frc consts  --      0.2643                 0.3662                 0.5372
 IR Inten    --      0.0409                 0.0104                 2.2927

                     22                     23                     24
                      A                      A                      A
 Frequencies --    544.4630               593.7697               607.8990
 Red. masses --      3.5945                 3.6716                 1.8903
 Frc consts  --      0.6278                 0.7627                 0.4116
 IR Inten    --      2.7041                15.6266                 7.2202

                     25                     26                     27
                      A                      A                      A
 Frequencies --    690.0667               754.2366               781.9622
 Red. masses --      1.3961                 1.1758                 1.3098
 Frc consts  --      0.3917                 0.3941                 0.4719
 IR Inten    --      0.2981                 0.6846                 6.5406

                     28                     29                     30
                      A                      A                      A
 Frequencies --    837.5696               849.5951               866.8495
 Red. masses --      1.4313                 4.3593                 3.0984
 Frc consts  --      0.5916                 1.8539                 1.3717
 IR Inten    --      0.1848                 1.0481                 9.1407

                     31                     32                     33
                      A                      A                      A
 Frequencies --    880.8110               917.4935               964.5493
 Red. masses --      1.2299                 1.9511                 2.0274
 Frc consts  --      0.5622                 0.9677                 1.1113
 IR Inten    --      1.2609                 1.8346                 0.5501

                     34                     35                     36
                      A                      A                      A
 Frequencies --    976.3963               999.1765              1007.7351
 Red. masses --      1.7445                 1.9941                 1.1354
 Frc consts  --      0.9799                 1.1730                 0.6793
 IR Inten    --      0.0182                 5.1934                21.8133

                     37                     38                     39
                      A                      A                      A
 Frequencies --   1035.1012              1035.3370              1052.0227
 Red. masses --      1.7930                 2.9914                 2.6441
 Frc consts  --      1.1318                 1.8892                 1.7241
 IR Inten    --      3.2853                 0.5992                 0.5701

                     40                     41                     42
                      A                      A                      A
 Frequencies --   1087.6444              1101.4557              1111.0663
 Red. masses --      2.8089                 1.5110                 2.4713
 Frc consts  --      1.9578                 1.0801                 1.7975
 IR Inten    --      3.6612                 0.5132                24.8958

                     43                     44                     45
                      A                      A                      A
 Frequencies --   1128.4364              1129.9383              1145.0800
 Red. masses --      2.1701                 1.5605                 2.5589
 Frc consts  --      1.6281                 1.1738                 1.9768
 IR Inten    --      9.3296                 0.2519                10.5998

                     46                     47                     48
                      A                      A                      A
 Frequencies --   1208.8604              1242.2813              1252.4214
 Red. masses --      1.1065                 2.5930                 1.4554
 Frc consts  --      0.9527                 2.3577                 1.3451
 IR Inten    --      0.5761               121.3492               102.3295

                     49                     50                     51
                      A                      A                      A
 Frequencies --   1279.3710              1286.8005              1309.5479
 Red. masses --      1.2581                 1.1724                 1.3250
 Frc consts  --      1.2133                 1.1438                 1.3387
 IR Inten    --      0.0912                 0.0069                 4.9463

                     52                     53                     54
                      A                      A                      A
 Frequencies --   1329.9059              1337.8285              1344.4898
 Red. masses --      1.0745                 1.3942                 1.2661
 Frc consts  --      1.1197                 1.4702                 1.3484
 IR Inten    --      0.3912                13.5608                 0.6655

                     55                     56                     57
                      A                      A                      A
 Frequencies --   1370.4771              1376.2614              1395.7958
 Red. masses --      1.4585                 1.2881                 1.3401
 Frc consts  --      1.6140                 1.4375                 1.5382
 IR Inten    --     32.6428                19.3629                 3.9274

                     58                     59                     60
                      A                      A                      A
 Frequencies --   1412.5755              1413.5038              1422.8774
 Red. masses --      1.2322                 1.2370                 1.4572
 Frc consts  --      1.4487                 1.4561                 1.7382
 IR Inten    --      0.2900                 0.9578                 0.9960

                     61                     62                     63
                      A                      A                      A
 Frequencies --   1442.1543              1459.6580              1471.8460
 Red. masses --      1.0762                 1.0834                 1.0463
 Frc consts  --      1.3188                 1.3600                 1.3355
 IR Inten    --      7.9019                 0.8771                 3.9427

                     64                     65                     66
                      A                      A                      A
 Frequencies --   1479.2126              1489.1037              1493.7131
 Red. masses --      1.0684                 1.1151                 1.0455
 Frc consts  --      1.3774                 1.4569                 1.3744
 IR Inten    --      0.9716                 5.1716                 0.8513

                     67                     68                     69
                      A                      A                      A
 Frequencies --   1498.6526              1499.6287              1505.6390
 Red. masses --      1.0400                 1.0389                 1.0543
 Frc consts  --      1.3762                 1.3766                 1.4081
 IR Inten    --      5.2924                 4.4267                 2.7194

                     70                     71                     72
                      A                      A                      A
 Frequencies --   1510.3350              1695.4850              1733.7097
 Red. masses --      1.0864                 7.5579                 6.9750
 Frc consts  --      1.4601                12.8008                12.3523
 IR Inten    --      3.0981                39.3236                 2.6486

                     73                     74                     75
                      A                      A                      A
 Frequencies --   1746.8932              3015.5559              3021.3480
 Red. masses --     12.0900                 1.0595                 1.0599
 Frc consts  --     21.7374                 5.6767                 5.7007
 IR Inten    --    183.2217                17.9481                 8.0145

                     76                     77                     78
                      A                      A                      A
 Frequencies --   3024.3322              3029.6909              3032.5155
 Red. masses --      1.0602                 1.0366                 1.0355
 Frc consts  --      5.7133                 5.6061                 5.6108
 IR Inten    --     23.8387                29.1083                30.1747

                     79                     80                     81
                      A                      A                      A
 Frequencies --   3039.1382              3039.5750              3040.4915
 Red. masses --      1.0976                 1.1013                 1.0580
 Frc consts  --      5.9733                 5.9948                 5.7626
 IR Inten    --      3.5616                13.2884                28.3385

                     82                     83                     84
                      A                      A                      A
 Frequencies --   3048.3929              3057.5946              3074.3076
 Red. masses --      1.0993                 1.0385                 1.1014
 Frc consts  --      6.0189                 5.7205                 6.1333
 IR Inten    --      0.7434                 3.6648                 7.9275

                     85                     86                     87
                      A                      A                      A
 Frequencies --   3098.5094              3101.5176              3103.4964
 Red. masses --      1.1020                 1.1030                 1.1010
 Frc consts  --      6.2339                 6.2513                 6.2480
 IR Inten    --     36.2836                58.9660                32.8888

                     88                     89                     90
                      A                      A                      A
 Frequencies --   3107.3035              3111.8452              3117.2291
 Red. masses --      1.0990                 1.0922                 1.0857
 Frc consts  --      6.2522                 6.2312                 6.2157
 IR Inten    --     18.9506                 4.6306                46.7659

                     91                     92                     93
                      A                      A                      A
 Frequencies --   3117.4072              3157.5372              3184.8139
 Red. masses --      1.0992                 1.0979                 1.0850
 Frc consts  --      6.2940                 6.4490                 6.4842
 IR Inten    --      5.7372                12.5564                16.8131

 - Thermochemistry -
 -------------------
 Temperature   298.150 Kelvin.  Pressure   1.00000 Atm.
 Atom     1 has atomic number  6 and mass  12.00000

 Molecular mass:   180.15142 amu.
 Principal axes and moments of inertia in atomic units:
                           1         2         3
     Eigenvalues --  1825.553656147.020067895.31936
           X            0.99990   0.01392   0.00000
           Y           -0.01392   0.99990   0.00000
           Z           -0.00000  -0.00000   1.00000
 This molecule is an asymmetric top.
 Rotational symmetry number  1.
 Warning -- assumption of classical behavior for rotation
           may cause significant error
 Rotational temperatures (Kelvin)      0.04745     0.01409     0.01097
 Rotational constants (GHZ):           0.98860     0.29360     0.22858
    5 imaginary frequencies ignored.
 Zero-point vibrational energy     763466.0 (Joules/Mol)
                                  182.47274 (Kcal/Mol)
 Warning -- explicit consideration of  19 degrees of freedom as
           vibrations may cause significant error
 Vibrational temperatures:     38.07    82.51   154.39   199.58   241.88
          (Kelvin)            245.47   269.12   349.99   356.57   396.28
                              435.87   502.85   536.36   603.21   640.24
                              718.92   783.36   854.30   874.63   992.85
                             1085.18  1125.07  1205.08  1222.38  1247.20
                             1267.29  1320.07  1387.77  1404.82  1437.59
                             1449.91  1489.28  1489.62  1513.63  1564.88
                             1584.75  1598.58  1623.57  1625.73  1647.51
                             1739.28  1787.37  1801.96  1840.73  1851.42
                             1884.15  1913.44  1924.84  1934.42  1971.81
                             1980.13  2008.24  2032.38  2033.72  2047.20
                             2074.94  2100.12  2117.66  2128.26  2142.49
                             2149.12  2156.23  2157.63  2166.28  2173.04
                             2439.42  2494.42  2513.39  4338.71  4347.05
                             4351.34  4359.05  4363.11  4372.64  4373.27
                             4374.59  4385.96  4399.20  4423.24  4458.06
                             4462.39  4465.24  4470.72  4477.25  4485.00
                             4485.25  4542.99  4582.24

 Zero-point correction=                           0.290789 (Hartree/Particle)
 Thermal correction to Energy=                    0.303557
 Thermal correction to Enthalpy=                  0.304501
 Thermal correction to Gibbs Free Energy=         0.250412
 Sum of electronic and zero-point Energies=           -544.257076
 Sum of electronic and thermal Energies=              -544.244308
 Sum of electronic and thermal Enthalpies=            -544.243364
 Sum of electronic and thermal Free Energies=         -544.297453

                     E (Thermal)             CV                S
                      KCal/Mol        Cal/Mol-Kelvin    Cal/Mol-Kelvin
 Total                  190.485             48.765            113.841
 Electronic               0.000              0.000              0.000
 Translational            0.889              2.981             41.473
 Rotational               0.889              2.981             32.849
 Vibrational            188.708             42.803             39.519
 Vibration     1          0.593              1.985              6.078
 Vibration     2          0.596              1.975              4.546
 Vibration     3          0.606              1.943              3.317
 Vibration     4          0.614              1.915              2.822
 Vibration     5          0.625              1.882              2.456
 Vibration     6          0.626              1.879              2.429
 Vibration     7          0.632              1.858              2.257
 Vibration     8          0.659              1.774              1.779
 Vibration     9          0.661              1.766              1.746
 Vibration    10          0.677              1.719              1.562
 Vibration    11          0.694              1.668              1.401
 Vibration    12          0.727              1.576              1.168
 Vibration    13          0.744              1.528              1.068
 Vibration    14          0.782              1.428              0.895
 Vibration    15          0.804              1.372              0.811
 Vibration    16          0.855              1.251              0.659
 Vibration    17          0.900              1.152              0.556
 Vibration    18          0.951              1.045              0.460
 Vibration    19          0.967              1.015              0.436

 Optimization completed.
    -- Stationary point found.
 Normal termination of Gaussian 16 at Mon May 22 09:19:46 2023.
