 Gaussian 16, Revision A.03,
 Gaussian 16:  ES64L-G16RevA.03 25-Dec-2016

 -----------------------------
 # opt freq b3lyp/6-31g(2df,p)
 -----------------------------

 -------------------
 Title Card Required
 -------------------
 Symbolic Z-matrix:
 Charge =  0 Multiplicity = 1

 SCF Done:  E(RB3LYP) =  -710.222098722     A.U. after   14 cycles
 SCF Done:  E(RB3LYP) =  -710.223270749     A.U. after   12 cycles
 SCF Done:  E(RB3LYP) =  -710.222369601     A.U. after   13 cycles
 SCF Done:  E(RB3LYP) =  -710.224481943     A.U. after   12 cycles
 SCF Done:  E(RB3LYP) =  -710.224637413     A.U. after   11 cycles
 SCF Done:  E(RB3LYP) =  -710.224685846     A.U. after   10 cycles
 SCF Done:  E(RB3LYP) =  -710.224741936     A.U. after    9 cycles
 SCF Done:  E(RB3LYP) =  -710.224863579     A.U. after   11 cycles
 SCF Done:  E(RB3LYP) =  -710.224648345     A.U. after   14 cycles
 SCF Done:  E(RB3LYP) =  -710.221098873     A.U. after   12 cycles
 SCF Done:  E(RB3LYP) =  -710.227700432     A.U. after   10 cycles
 SCF Done:  E(RB3LYP) =  -710.227804134     A.U. after   11 cycles
 SCF Done:  E(RB3LYP) =  -710.227661967     A.U. after   13 cycles
 SCF Done:  E(RB3LYP) =  -710.227969146     A.U. after   11 cycles
 SCF Done:  E(RB3LYP) =  -710.228053400     A.U. after   11 cycles
 SCF Done:  E(RB3LYP) =  -710.228065655     A.U. after   10 cycles
 SCF Done:  E(RB3LYP) =  -710.228066958     A.U. after    8 cycles
 SCF Done:  E(RB3LYP) =  -710.228067088     A.U. after    7 cycles
 SCF Done:  E(RB3LYP) =  -710.228067106     A.U. after    6 cycles
 Optimization completed.
    -- Stationary point found.
 Normal termination of Gaussian 16 at Sun May 28 17:47:50 2023.

 ----------------------------------------------------------------------
 #N Geom=AllCheck Guess=TCheck SCRF=Check GenChk RB3LYP/6-31G(2df,p) Fr
 eq
 ----------------------------------------------------------------------

 Structure from the checkpoint file:  "CCCdCdCCdCSC.chk"
 -------------------
 Title Card Required
 -------------------
 Charge =  0 Multiplicity = 1

                         Standard orientation:
 ---------------------------------------------------------------------
 Center     Atomic      Atomic             Coordinates (Angstroms)
 Number     Number       Type             X           Y           Z
 ---------------------------------------------------------------------
      1          6           0       -4.615795   -1.245116   -0.123215
      2          6           0       -4.025366    0.047432    0.459270
      3          6           0       -2.998459    0.676395   -0.457843
      4          6           0       -1.747403    0.878752   -0.161092
      5          6           0       -0.486696    1.082246    0.148391
      6          6           0        0.587772    0.129161   -0.086287
      7          6           0        1.866836    0.359726    0.249700
      8         16           0        3.139944   -0.844413    0.109913
      9          6           0        4.574571    0.219917   -0.254224
     10          1           0       -5.382609   -1.657508    0.539967
     11          1           0       -3.838663   -2.003251   -0.259981
     12          1           0       -5.079076   -1.063373   -1.099023
     13          1           0       -3.569684   -0.150389    1.434022
     14          1           0       -4.836443    0.768765    0.628021
     15          1           0       -3.355981    0.961841   -1.449639
     16          1           0       -0.208936    2.030346    0.610456
     17          1           0        0.314041   -0.814220   -0.551063
     18          1           0        2.160136    1.302627    0.707236
     19          1           0        5.450586   -0.431427   -0.267357
     20          1           0        4.705558    0.972147    0.527363
     21          1           0        4.469204    0.703978   -1.226807
 ---------------------------------------------------------------------

 SCF Done:  E(RB3LYP) =  -710.228067106     A.U. after    1 cycles

 The electronic state is 1-A.
 Alpha  occ. eigenvalues --  -88.87665 -10.21238 -10.20661 -10.19328 -10.19037
 Alpha  occ. eigenvalues --  -10.19006 -10.18993 -10.18739 -10.17661  -7.93910
 Alpha  occ. eigenvalues --   -5.90386  -5.90035  -5.89477  -0.82339  -0.80314
 Alpha  occ. eigenvalues --   -0.77460  -0.73311  -0.69072  -0.63656  -0.60403
 Alpha  occ. eigenvalues --   -0.55475  -0.51630  -0.47539  -0.45724  -0.44312
 Alpha  occ. eigenvalues --   -0.43189  -0.42742  -0.41306  -0.38779  -0.37922
 Alpha  occ. eigenvalues --   -0.37394  -0.35888  -0.34266  -0.33017  -0.31206
 Alpha  occ. eigenvalues --   -0.25968  -0.25014  -0.19649
 Alpha virt. eigenvalues --   -0.02092   0.02493   0.04459   0.07485   0.09354
 Alpha virt. eigenvalues --    0.10241   0.11499   0.12871   0.14178   0.14596
 Alpha virt. eigenvalues --    0.15201   0.15627   0.16502   0.17800   0.18290

 Mulliken charges:
               1
     1  C   -0.365459
     2  C   -0.204362
     3  C   -0.273101
     4  C    0.369910
     5  C   -0.328158
     6  C   -0.052403
     7  C   -0.101529
     8  S   -0.099591
     9  C   -0.382530
    10  H    0.114844
    11  H    0.123501
    12  H    0.116321
    13  H    0.106558
    14  H    0.108385
    15  H    0.109440
    16  H    0.107118
    17  H    0.103533
    18  H    0.103367
    19  H    0.150665
    20  H    0.144160
    21  H    0.149331
 Sum of Mulliken charges =   0.00000

 Dipole moment (field-independent basis, Debye):
    X=              0.0772    Y=              1.1895    Z=             -0.1477  Tot=              1.2011
 Quadrupole moment (field-independent basis, Debye-Ang):
   XX=            -49.9207   YY=            -62.8505   ZZ=            -63.7920
   XY=              4.7048   XZ=             -0.5207   YZ=              0.9679

  Exact polarizability: 229.292  -1.181  86.209   9.698   2.497  71.977
 Approx polarizability: 304.158  -5.380 129.851  23.809   3.797 112.381

                      1                      2                      3
                      A                      A                      A
 Frequencies --     35.0539                40.7659                75.6899
 Red. masses --      3.3113                 3.6303                 2.4735
 Frc consts  --      0.0024                 0.0036                 0.0083
 IR Inten    --      4.0083                 0.2077                 0.2966

                      4                      5                      6
                      A                      A                      A
 Frequencies --    113.0476               134.5749               166.3911
 Red. masses --      2.6857                 1.8141                 1.8893
 Frc consts  --      0.0202                 0.0194                 0.0308
 IR Inten    --      2.4433                 1.4960                 0.7030

                      7                      8                      9
                      A                      A                      A
 Frequencies --    176.8966               199.8358               259.0504
 Red. masses --      1.5735                 2.2003                 1.4180
 Frc consts  --      0.0290                 0.0518                 0.0561
 IR Inten    --      3.4941                 0.9284                 0.7293

                     10                     11                     12
                      A                      A                      A
 Frequencies --    300.2524               313.4003               351.1940
 Red. masses --      3.2073                 6.2357                 3.2132
 Frc consts  --      0.1704                 0.3609                 0.2335
 IR Inten    --      0.1070                 0.1797                 1.3664

                     13                     14                     15
                      A                      A                      A
 Frequencies --    436.6373               541.5382               585.4020
 Red. masses --      3.5305                 3.5353                 3.6724
 Frc consts  --      0.3966                 0.6109                 0.7415
 IR Inten    --      5.9382                 4.9834                 9.7454

                     16                     17                     18
                      A                      A                      A
 Frequencies --    707.6303               760.0626               790.1568
 Red. masses --      5.7429                 1.5191                 1.3810
 Frc consts  --      1.6943                 0.5170                 0.5080
 IR Inten    --      0.9048                 4.8266                15.2175

                     19                     20                     21
                      A                      A                      A
 Frequencies --    827.3497               846.9018               880.8698
 Red. masses --      2.7455                 1.9987                 1.9770
 Frc consts  --      1.1073                 0.8446                 0.9038
 IR Inten    --     30.7724                 6.7382                 2.4509

                     22                     23                     24
                      A                      A                      A
 Frequencies --    917.8945               964.0880               985.7375
 Red. masses --      1.2387                 1.1877                 1.4025
 Frc consts  --      0.6149                 0.6504                 0.8029
 IR Inten    --      9.9922                 3.8405                 5.7194

                     25                     26                     27
                      A                      A                      A
 Frequencies --    996.5397              1009.6627              1081.3193
 Red. masses --      1.1502                 2.3318                 2.0324
 Frc consts  --      0.6730                 1.4006                 1.4001
 IR Inten    --     44.3903                 1.6161                 3.2005

                     28                     29                     30
                      A                      A                      A
 Frequencies --   1093.8385              1125.2590              1175.8287
 Red. masses --      1.8929                 2.2245                 1.5395
 Frc consts  --      1.3344                 1.6596                 1.2541
 IR Inten    --      1.3381                 0.9864                 0.5083

                     31                     32                     33
                      A                      A                      A
 Frequencies --   1225.4260              1274.3410              1307.0388
 Red. masses --      1.2029                 1.2550                 1.2142
 Frc consts  --      1.0643                 1.2008                 1.2222
 IR Inten    --     17.6892                 2.2428                18.4390

                     34                     35                     36
                      A                      A                      A
 Frequencies --   1316.7821              1348.3426              1351.3875
 Red. masses --      1.2615                 1.3707                 1.1742
 Frc consts  --      1.2888                 1.4683                 1.2634
 IR Inten    --     32.6278                 6.6226                10.7158

                     37                     38                     39
                      A                      A                      A
 Frequencies --   1407.9957              1455.1232              1466.6582
 Red. masses --      1.2268                 2.7487                 1.0530
 Frc consts  --      1.4330                 3.4291                 1.3345
 IR Inten    --      1.5959                 7.0845                 6.7193

                     40                     41                     42
                      A                      A                      A
 Frequencies --   1480.8712              1481.9602              1496.7184
 Red. masses --      1.0674                 1.0536                 1.0417
 Frc consts  --      1.3792                 1.3633                 1.3749
 IR Inten    --      2.5094                12.6185                 4.7258

                     43                     44                     45
                      A                      A                      A
 Frequencies --   1505.6142              1650.4669              2049.0340
 Red. masses --      1.0678                 5.8313                10.8820
 Frc consts  --      1.4262                 9.3591                26.9189
 IR Inten    --      2.6498                17.1302                32.6807

                     46                     47                     48
                      A                      A                      A
 Frequencies --   3016.4130              3033.5915              3046.6220
 Red. masses --      1.0667                 1.0348                 1.0295
 Frc consts  --      5.7185                 5.6109                 5.6299
 IR Inten    --     40.3250                34.8962                33.2090

                     49                     50                     51
                      A                      A                      A
 Frequencies --   3076.0101              3095.4858              3105.5352
 Red. masses --      1.0930                 1.0891                 1.0994
 Frc consts  --      6.0930                 6.1487                 6.2470
 IR Inten    --      0.7344                10.6475                46.1188

                     52                     53                     54
                      A                      A                      A
 Frequencies --   3111.2847              3111.3925              3132.4699
 Red. masses --      1.1009                 1.0873                 1.1058
 Frc consts  --      6.2786                 6.2019                 6.3930
 IR Inten    --     34.5726                12.6749                12.5484

                     55                     56                     57
                      A                      A                      A
 Frequencies --   3140.0538              3146.3910              3168.5932
 Red. masses --      1.0909                 1.1040                 1.0887
 Frc consts  --      6.3371                 6.4392                 6.4401
 IR Inten    --      7.4486                 7.2863                 7.7712

 - Thermochemistry -
 -------------------
 Temperature   298.150 Kelvin.  Pressure   1.00000 Atm.
 Atom     1 has atomic number  6 and mass  12.00000

 Molecular mass:   140.06597 amu.
 Principal axes and moments of inertia in atomic units:
                           1         2         3
     Eigenvalues --   381.637755076.719875337.18729
           X            0.99985   0.01741  -0.00157
           Y           -0.01736   0.99948   0.02708
           Z            0.00204  -0.02705   0.99963
 This molecule is an asymmetric top.
 Rotational symmetry number  1.
 Rotational temperatures (Kelvin)      0.22695     0.01706     0.01623
 Rotational constants (GHZ):           4.72894     0.35549     0.33814
 Zero-point vibrational energy     459931.1 (Joules/Mol)
                                  109.92617 (Kcal/Mol)
 Warning -- explicit consideration of  15 degrees of freedom as
           vibrations may cause significant error
 Vibrational temperatures:     50.43    58.65   108.90   162.65   193.62
          (Kelvin)            239.40   254.51   287.52   372.72   432.00
                              450.91   505.29   628.22   779.15   842.26
                             1018.12  1093.56  1136.86  1190.37  1218.50
                             1267.38  1320.65  1387.11  1418.26  1433.80
                             1452.68  1555.78  1573.79  1619.00  1691.76
                             1763.11  1833.49  1880.54  1894.56  1939.96
                             1944.35  2025.79  2093.60  2110.19  2130.64
                             2132.21  2153.44  2166.24  2374.65  2948.10
                             4339.95  4364.66  4383.41  4425.69  4453.71
                             4468.17  4476.44  4476.60  4506.93  4517.84
                             4526.95  4558.90

 Zero-point correction=                           0.175178 (Hartree/Particle)
 Thermal correction to Energy=                    0.186849
 Thermal correction to Enthalpy=                  0.187793
 Thermal correction to Gibbs Free Energy=         0.136006
 Sum of electronic and zero-point Energies=           -710.052889
 Sum of electronic and thermal Energies=              -710.041218
 Sum of electronic and thermal Enthalpies=            -710.040274
 Sum of electronic and thermal Free Energies=         -710.092061

                     E (Thermal)             CV                S
                      KCal/Mol        Cal/Mol-Kelvin    Cal/Mol-Kelvin
 Total                  117.249             40.128            108.994
 Electronic               0.000              0.000              0.000
 Translational            0.889              2.981             40.722
 Rotational               0.889              2.981             30.715
 Vibrational            115.472             34.166             37.557
 Vibration     1          0.594              1.982              5.521
 Vibration     2          0.594              1.981              5.222
 Vibration     3          0.599              1.965              4.000
 Vibration     4          0.607              1.939              3.216
 Vibration     5          0.613              1.919              2.880
 Vibration     6          0.624              1.884              2.476
 Vibration     7          0.628              1.871              2.361
 Vibration     8          0.638              1.840              2.135
 Vibration     9          0.668              1.747              1.668
 Vibration    10          0.693              1.673              1.415
 Vibration    11          0.701              1.648              1.344
 Vibration    12          0.728              1.573              1.161
 Vibration    13          0.797              1.390              0.837
 Vibration    14          0.897              1.158              0.562
 Vibration    15          0.942              1.063              0.475

 Optimization completed.
    -- Stationary point found.
 Normal termination of Gaussian 16 at Sun May 28 18:10:00 2023.
