 Gaussian 16, Revision A.03,
 Gaussian 16:  ES64L-G16RevA.03 25-Dec-2016

 -----------------------------
 # opt freq b3lyp/6-31g(2df,p)
 -----------------------------

 -------------------
 Title Card Required
 -------------------
 Symbolic Z-matrix:
 Charge =  0 Multiplicity = 1

 SCF Done:  E(RB3LYP) =  -865.672188110     A.U. after   14 cycles
 SCF Done:  E(RB3LYP) =  -865.686137549     A.U. after   11 cycles
 SCF Done:  E(RB3LYP) =  -865.690478415     A.U. after   11 cycles
 SCF Done:  E(RB3LYP) =  -865.692366727     A.U. after   11 cycles
 SCF Done:  E(RB3LYP) =  -865.693682096     A.U. after   12 cycles
 SCF Done:  E(RB3LYP) =  -865.693934187     A.U. after   12 cycles
 SCF Done:  E(RB3LYP) =  -865.694528365     A.U. after   10 cycles
 SCF Done:  E(RB3LYP) =  -865.695432662     A.U. after   11 cycles
 SCF Done:  E(RB3LYP) =  -865.695466838     A.U. after   12 cycles
 SCF Done:  E(RB3LYP) =  -865.696871201     A.U. after   11 cycles
 SCF Done:  E(RB3LYP) =  -865.706824142     A.U. after   10 cycles
 SCF Done:  E(RB3LYP) =  -865.706902468     A.U. after    9 cycles
 SCF Done:  E(RB3LYP) =  -865.706974177     A.U. after    9 cycles
 SCF Done:  E(RB3LYP) =  -865.707031492     A.U. after    9 cycles
 SCF Done:  E(RB3LYP) =  -865.707092711     A.U. after    9 cycles
 SCF Done:  E(RB3LYP) =  -865.707122809     A.U. after    9 cycles
 SCF Done:  E(RB3LYP) =  -865.707124615     A.U. after    7 cycles
 SCF Done:  E(RB3LYP) =  -865.707125042     A.U. after    7 cycles
 SCF Done:  E(RB3LYP) =  -865.707125096     A.U. after    6 cycles
 Optimization completed.
    -- Stationary point found.
 Normal termination of Gaussian 16 at Sun May 28 04:08:19 2023.

 ----------------------------------------------------------------------
 #N Geom=AllCheck Guess=TCheck SCRF=Check GenChk RB3LYP/6-31G(2df,p) Fr
 eq
 ----------------------------------------------------------------------

 Structure from the checkpoint file:  "CCCN1CC[PH]qdOrCCqCCrC1.chk"
 -------------------
 Title Card Required
 -------------------
 Charge =  0 Multiplicity = 1

                         Standard orientation:
 ---------------------------------------------------------------------
 Center     Atomic      Atomic             Coordinates (Angstroms)
 Number     Number       Type             X           Y           Z
 ---------------------------------------------------------------------
      1          6           0       -4.351716   -1.149578    0.169017
      2          6           0       -2.950771   -0.557212    0.350534
      3          6           0       -1.869648   -1.432760   -0.287651
      4          7           0       -0.503124   -0.939567   -0.082593
      5          6           0        0.491226   -2.004742   -0.250150
      6          6           0        1.776926   -1.792557    0.564721
      7         15           0        2.667329   -0.224042    0.268868
      8          8           0        3.237938   -0.025726   -1.087584
      9          6           0        1.513374    1.058098    0.861616
     10          6           0        0.417124    1.457126   -0.147818
     11          6           0       -0.634012    2.332897    0.562025
     12          6           0       -1.526368    3.145045   -0.381839
     13          6           0       -0.181763    0.244699   -0.904679
     14          1           0       -5.112670   -0.513995    0.631273
     15          1           0       -4.426660   -2.143154    0.624953
     16          1           0       -4.605543   -1.253699   -0.891724
     17          1           0       -2.721237   -0.444668    1.416744
     18          1           0       -2.927147    0.449690   -0.080431
     19          1           0       -2.099161   -1.570416   -1.362507
     20          1           0       -1.934360   -2.427492    0.167242
     21          1           0        0.758999   -2.146871   -1.312014
     22          1           0        0.045815   -2.944905    0.088508
     23          1           0        2.479344   -2.605766    0.348841
     24          1           0        1.549651   -1.826160    1.637575
     25          1           0        3.626415   -0.263395    1.320882
     26          1           0        2.102727    1.940228    1.133907
     27          1           0        1.059399    0.673456    1.782963
     28          1           0        0.898609    2.070715   -0.920314
     29          1           0       -0.111676    3.029049    1.230481
     30          1           0       -1.247595    1.696078    1.211158
     31          1           0       -0.928074    3.820774   -1.003062
     32          1           0       -2.238878    3.755223    0.182119
     33          1           0       -2.107231    2.509091   -1.057868
     34          1           0        0.528366   -0.041041   -1.693632
     35          1           0       -1.086891    0.574574   -1.423933
 ---------------------------------------------------------------------

 SCF Done:  E(RB3LYP) =  -865.707125096     A.U. after    1 cycles

 The electronic state is 1-A.
 Alpha  occ. eigenvalues --  -77.13253 -19.07213 -14.32240 -10.21503 -10.20638
 Alpha  occ. eigenvalues --  -10.20176 -10.19160 -10.19083 -10.18682 -10.18174
 Alpha  occ. eigenvalues --  -10.18055 -10.17770 -10.17581  -6.59356  -4.75657
 Alpha  occ. eigenvalues --   -4.75596  -4.75470  -0.94486  -0.92055  -0.81093
 Alpha  occ. eigenvalues --   -0.78616  -0.75993  -0.73852  -0.69558  -0.66183
 Alpha  occ. eigenvalues --   -0.64843  -0.60640  -0.58872  -0.54934  -0.53547
 Alpha  occ. eigenvalues --   -0.49315  -0.48384  -0.47041  -0.45901  -0.44062
 Alpha  occ. eigenvalues --   -0.43491  -0.42674  -0.42505  -0.40634  -0.39750
 Alpha  occ. eigenvalues --   -0.39353  -0.38518  -0.37984  -0.36685  -0.35716
 Alpha  occ. eigenvalues --   -0.35009  -0.34524  -0.34221  -0.33648  -0.33027
 Alpha  occ. eigenvalues --   -0.32714  -0.31975  -0.31658  -0.25862  -0.25325
 Alpha  occ. eigenvalues --   -0.21552
 Alpha virt. eigenvalues --    0.05207   0.07777   0.08431   0.09078   0.09663
 Alpha virt. eigenvalues --    0.10170   0.11289   0.11981   0.12371   0.12715
 Alpha virt. eigenvalues --    0.13317   0.13898   0.14285   0.14803   0.15693

 Mulliken charges:
               1
     1  C   -0.383854
     2  C   -0.180569
     3  C   -0.126300
     4  N   -0.080209
     5  C   -0.174967
     6  C   -0.257713
     7  P    0.286313
     8  O   -0.335540
     9  C   -0.269526
    10  C    0.032440
    11  C   -0.188741
    12  C   -0.392895
    13  C   -0.206361
    14  H    0.115308
    15  H    0.114684
    16  H    0.116951
    17  H    0.100783
    18  H    0.105473
    19  H    0.079053
    20  H    0.094745
    21  H    0.108043
    22  H    0.101239
    23  H    0.126034
    24  H    0.117943
    25  H   -0.007003
    26  H    0.122168
    27  H    0.121566
    28  H    0.092337
    29  H    0.090081
    30  H    0.106428
    31  H    0.116620
    32  H    0.113658
    33  H    0.118747
    34  H    0.131119
    35  H    0.091943
 Sum of Mulliken charges =  -0.00000

 Dipole moment (field-independent basis, Debye):
    X=             -2.7381    Y=             -0.6314    Z=              2.4986  Tot=              3.7601
 Quadrupole moment (field-independent basis, Debye-Ang):
   XX=            -99.9502   YY=            -84.3718   ZZ=            -91.4843
   XY=             -1.0103   XZ=              9.8385   YZ=             -0.2241

  Exact polarizability: 156.677  -2.639 141.240   2.246   0.409 114.448
 Approx polarizability: 197.889  -0.307 194.503  -2.499  -1.859 192.756

                      1                      2                      3
                      A                      A                      A
 Frequencies --     39.9510                75.0203                81.7497
 Red. masses --      3.6264                 3.4182                 3.1861
 Frc consts  --      0.0034                 0.0113                 0.0125
 IR Inten    --      1.8314                 2.0962                 0.8743

                      4                      5                      6
                      A                      A                      A
 Frequencies --     91.7607               117.3735               134.1874
 Red. masses --      1.6197                 5.2786                 1.9974
 Frc consts  --      0.0080                 0.0428                 0.0212
 IR Inten    --      0.4124                 9.1742                 0.4289

                      7                      8                      9
                      A                      A                      A
 Frequencies --    150.4427               190.0497               223.7056
 Red. masses --      2.2226                 2.1490                 2.2443
 Frc consts  --      0.0296                 0.0457                 0.0662
 IR Inten    --      0.9378                 0.2386                 1.4687

                     10                     11                     12
                      A                      A                      A
 Frequencies --    238.2528               242.3434               255.5284
 Red. masses --      1.2904                 1.5933                 2.6200
 Frc consts  --      0.0432                 0.0551                 0.1008
 IR Inten    --      0.7408                 0.6943                 1.2604

                     13                     14                     15
                      A                      A                      A
 Frequencies --    262.9329               318.5592               342.7891
 Red. masses --      2.5004                 2.3859                 2.5806
 Frc consts  --      0.1018                 0.1427                 0.1787
 IR Inten    --      0.2610                 1.5854                 1.1550

                     16                     17                     18
                      A                      A                      A
 Frequencies --    368.6522               389.4090               410.5274
 Red. masses --      3.4662                 3.0407                 2.8059
 Frc consts  --      0.2776                 0.2717                 0.2786
 IR Inten    --      9.8943                 3.6022                 7.2014

                     19                     20                     21
                      A                      A                      A
 Frequencies --    422.7118               488.3784               565.7498
 Red. masses --      2.9502                 2.3760                 2.6525
 Frc consts  --      0.3106                 0.3339                 0.5002
 IR Inten    --      5.6817                11.3657                 6.8366

                     22                     23                     24
                      A                      A                      A
 Frequencies --    585.3802               661.5723               721.0213
 Red. masses --      2.3852                 3.3599                 2.4358
 Frc consts  --      0.4816                 0.8664                 0.7461
 IR Inten    --      0.6273                 7.5564                 5.7487

                     25                     26                     27
                      A                      A                      A
 Frequencies --    739.3607               758.8829               774.5322
 Red. masses --      1.6698                 1.1092                 2.1250
 Frc consts  --      0.5378                 0.3764                 0.7511
 IR Inten    --      1.6520                 2.2070                 3.8626

                     28                     29                     30
                      A                      A                      A
 Frequencies --    790.8630               865.5677               873.2925
 Red. masses --      1.6230                 2.0779                 1.6671
 Frc consts  --      0.5981                 0.9172                 0.7491
 IR Inten    --      5.4784                16.3430                 3.8431

                     31                     32                     33
                      A                      A                      A
 Frequencies --    886.7518               900.7804               926.7209
 Red. masses --      1.3392                 1.6876                 1.9239
 Frc consts  --      0.6204                 0.8068                 0.9735
 IR Inten    --      5.2132                 1.6749                 1.1492

                     34                     35                     36
                      A                      A                      A
 Frequencies --    947.9297               952.2848               989.1550
 Red. masses --      1.5852                 1.4290                 1.7375
 Frc consts  --      0.8392                 0.7635                 1.0016
 IR Inten    --     16.6132                48.7094                71.7073

                     37                     38                     39
                      A                      A                      A
 Frequencies --    997.4359              1032.2200              1039.5867
 Red. masses --      1.5986                 1.8079                 2.1357
 Frc consts  --      0.9371                 1.1349                 1.3599
 IR Inten    --     12.7885                 0.4622                 2.1307

                     40                     41                     42
                      A                      A                      A
 Frequencies --   1049.5775              1065.9771              1089.4661
 Red. masses --      2.3816                 1.9633                 1.9388
 Frc consts  --      1.5458                 1.3144                 1.3559
 IR Inten    --      1.7712                 4.3217                36.7378

                     43                     44                     45
                      A                      A                      A
 Frequencies --   1107.7825              1131.6584              1138.6035
 Red. masses --      2.3499                 1.7698                 2.0522
 Frc consts  --      1.6991                 1.3354                 1.5676
 IR Inten    --     26.8837                24.1902                 4.7397

                     46                     47                     48
                      A                      A                      A
 Frequencies --   1171.8431              1180.6089              1194.6804
 Red. masses --      1.9252                 1.7431                 1.4810
 Frc consts  --      1.5576                 1.4315                 1.2454
 IR Inten    --      9.9183                 3.4306                13.5637

                     49                     50                     51
                      A                      A                      A
 Frequencies --   1212.0486              1252.0973              1260.0780
 Red. masses --      1.9483                 1.9763                 1.4548
 Frc consts  --      1.6863                 1.8255                 1.3610
 IR Inten    --     11.6496                58.9747                 5.1336

                     52                     53                     54
                      A                      A                      A
 Frequencies --   1263.6320              1284.9777              1289.6035
 Red. masses --      2.0751                 1.3123                 1.3095
 Frc consts  --      1.9522                 1.2767                 1.2831
 IR Inten    --     61.1627                16.8481                 5.8059

                     55                     56                     57
                      A                      A                      A
 Frequencies --   1314.9318              1333.1103              1333.3065
 Red. masses --      1.2511                 1.3094                 1.2220
 Frc consts  --      1.2745                 1.3711                 1.2799
 IR Inten    --     14.7350                 1.3215                 7.3466

                     58                     59                     60
                      A                      A                      A
 Frequencies --   1350.0018              1361.0539              1374.1807
 Red. masses --      1.2001                 1.2918                 1.3755
 Frc consts  --      1.2886                 1.4100                 1.5304
 IR Inten    --     13.4393                 7.1042                 1.0862

                     61                     62                     63
                      A                      A                      A
 Frequencies --   1385.4908              1396.7572              1403.8566
 Red. masses --      1.3636                 1.4136                 1.2636
 Frc consts  --      1.5422                 1.6249                 1.4672
 IR Inten    --      8.3895                21.6972                 4.5448

                     64                     65                     66
                      A                      A                      A
 Frequencies --   1411.9452              1417.0443              1433.3174
 Red. masses --      1.2381                 1.2324                 1.0986
 Frc consts  --      1.4543                 1.4580                 1.3297
 IR Inten    --      3.3489                 4.9039                 2.1234

                     67                     68                     69
                      A                      A                      A
 Frequencies --   1439.9828              1446.4323              1482.1955
 Red. masses --      1.3126                 1.0942                 1.0735
 Frc consts  --      1.6036                 1.3488                 1.3896
 IR Inten    --      1.0848                 8.5911                 2.9231

                     70                     71                     72
                      A                      A                      A
 Frequencies --   1485.6878              1493.4166              1495.7602
 Red. masses --      1.0719                 1.0591                 1.0547
 Frc consts  --      1.3939                 1.3917                 1.3903
 IR Inten    --      1.8630                 1.3390                 1.5329

                     73                     74                     75
                      A                      A                      A
 Frequencies --   1500.0973              1501.6011              1505.5354
 Red. masses --      1.0408                 1.0549                 1.0637
 Frc consts  --      1.3799                 1.4014                 1.4205
 IR Inten    --      4.4037                 3.0963                 3.0186

                     76                     77                     78
                      A                      A                      A
 Frequencies --   1513.1301              1517.0070              2337.7938
 Red. masses --      1.0922                 1.1058                 1.0396
 Frc consts  --      1.4733                 1.4994                 3.3476
 IR Inten    --     12.4123                 7.2792               157.7490

                     79                     80                     81
                      A                      A                      A
 Frequencies --   2909.8853              2948.7133              3000.1665
 Red. masses --      1.0719                 1.0717                 1.0686
 Frc consts  --      5.3478                 5.4903                 5.6671
 IR Inten    --     61.7181                55.9574                15.1386

                     82                     83                     84
                      A                      A                      A
 Frequencies --   3021.2035              3023.9527              3027.7650
 Red. masses --      1.0630                 1.0781                 1.0607
 Frc consts  --      5.7167                 5.8086                 5.7293
 IR Inten    --      9.5945                17.0495                 4.6060

                     85                     86                     87
                      A                      A                      A
 Frequencies --   3030.2112              3032.2127              3035.5193
 Red. masses --      1.0371                 1.0379                 1.0592
 Frc consts  --      5.6107                 5.6222                 5.7504
 IR Inten    --     22.5012                20.5191                25.2208

                     88                     89                     90
                      A                      A                      A
 Frequencies --   3036.1638              3045.9797              3057.9858
 Red. masses --      1.0591                 1.0869                 1.0982
 Frc consts  --      5.7521                 5.9416                 6.0507
 IR Inten    --     39.2167                 7.8831                12.5835

                     91                     92                     93
                      A                      A                      A
 Frequencies --   3067.2181              3073.2117              3075.4151
 Red. masses --      1.0955                 1.0915                 1.0956
 Frc consts  --      6.0721                 6.0739                 6.1051
 IR Inten    --     17.3535                19.4136                35.9122

                     94                     95                     96
                      A                      A                      A
 Frequencies --   3082.7127              3086.5207              3098.3376
 Red. masses --      1.1016                 1.1025                 1.1018
 Frc consts  --      6.1681                 6.1885                 6.2317
 IR Inten    --     11.0772                13.5788                78.4822

                     97                     98                     99
                      A                      A                      A
 Frequencies --   3099.8641              3101.7101              3106.0231
 Red. masses --      1.1018                 1.1005                 1.1005
 Frc consts  --      6.2380                 6.2380                 6.2551
 IR Inten    --     27.1826                41.7065                30.5990

 - Thermochemistry -
 -------------------
 Temperature   298.150 Kelvin.  Pressure   1.00000 Atm.
 Atom     1 has atomic number  6 and mass  12.00000

 Molecular mass:   203.14390 amu.
 Principal axes and moments of inertia in atomic units:
                           1         2         3
     Eigenvalues --  1943.463213861.119675230.35751
           X            0.99996   0.00075   0.00919
           Y           -0.00074   1.00000  -0.00093
           Z           -0.00920   0.00092   0.99996
 This molecule is an asymmetric top.
 Rotational symmetry number  1.
 Warning -- assumption of classical behavior for rotation
           may cause significant error
 Rotational temperatures (Kelvin)      0.04457     0.02243     0.01656
 Rotational constants (GHZ):           0.92862     0.46741     0.34505
 Zero-point vibrational energy     823870.9 (Joules/Mol)
                                  196.90987 (Kcal/Mol)
 Warning -- explicit consideration of  22 degrees of freedom as
           vibrations may cause significant error
 Vibrational temperatures:     57.48   107.94   117.62   132.02   168.87
          (Kelvin)            193.07   216.45   273.44   321.86   342.79
                              348.68   367.65   378.30   458.34   493.20
                              530.41   560.27   590.66   608.19   702.67
                              813.99   842.23   951.85  1037.39  1063.78
                             1091.86  1114.38  1137.88  1245.36  1256.47
                             1275.84  1296.02  1333.34  1363.86  1370.13
                             1423.17  1435.09  1485.13  1495.73  1510.11
                             1533.70  1567.50  1593.85  1628.20  1638.20
                             1686.02  1698.63  1718.88  1743.87  1801.49
                             1812.97  1818.08  1848.80  1855.45  1891.89
                             1918.05  1918.33  1942.35  1958.25  1977.14
                             1993.41  2009.62  2019.84  2031.47  2038.81
                             2062.22  2071.81  2081.09  2132.55  2137.57
                             2148.69  2152.07  2158.31  2160.47  2166.13
                             2177.06  2182.63  3363.56  4186.68  4242.54
                             4316.57  4346.84  4350.79  4356.28  4359.80
                             4362.68  4367.44  4368.36  4382.49  4399.76
                             4413.04  4421.67  4424.84  4435.34  4440.81
                             4457.82  4460.01  4462.67  4468.87

 Zero-point correction=                           0.313796 (Hartree/Particle)
 Thermal correction to Energy=                    0.328990
 Thermal correction to Enthalpy=                  0.329935
 Thermal correction to Gibbs Free Energy=         0.271741
 Sum of electronic and zero-point Energies=           -865.393329
 Sum of electronic and thermal Energies=              -865.378135
 Sum of electronic and thermal Enthalpies=            -865.377190
 Sum of electronic and thermal Free Energies=         -865.435384

                     E (Thermal)             CV                S
                      KCal/Mol        Cal/Mol-Kelvin    Cal/Mol-Kelvin
 Total                  206.445             57.896            122.479
 Electronic               0.000              0.000              0.000
 Translational            0.889              2.981             41.831
 Rotational               0.889              2.981             32.040
 Vibrational            204.667             51.935             48.608
 Vibration     1          0.594              1.981              5.262
 Vibration     2          0.599              1.966              4.017
 Vibration     3          0.600              1.962              3.848
 Vibration     4          0.602              1.955              3.622
 Vibration     5          0.608              1.935              3.143
 Vibration     6          0.613              1.919              2.885
 Vibration     7          0.618              1.902              2.667
 Vibration     8          0.633              1.854              2.227
 Vibration     9          0.649              1.805              1.929
 Vibration    10          0.656              1.782              1.816
 Vibration    11          0.659              1.775              1.786
 Vibration    12          0.666              1.753              1.692
 Vibration    13          0.670              1.741              1.642
 Vibration    14          0.705              1.638              1.317
 Vibration    15          0.722              1.590              1.199
 Vibration    16          0.741              1.537              1.085
 Vibration    17          0.757              1.493              1.002
 Vibration    18          0.775              1.447              0.925
 Vibration    19          0.785              1.421              0.883
 Vibration    20          0.844              1.276              0.688
 Vibration    21          0.922              1.105              0.512
 Vibration    22          0.942              1.063              0.475

 Optimization completed.
    -- Stationary point found.
 Normal termination of Gaussian 16 at Sun May 28 06:28:26 2023.
