 Gaussian 16, Revision A.03,
 Gaussian 16:  ES64L-G16RevA.03 25-Dec-2016

 -----------------------------
 # opt freq b3lyp/6-31g(2df,p)
 -----------------------------

 -------------------
 Title Card Required
 -------------------
 Symbolic Z-matrix:
 Charge =  0 Multiplicity = 1

 SCF Done:  E(RB3LYP) =  -834.759088848     A.U. after   12 cycles
 SCF Done:  E(RB3LYP) =  -834.783700354     A.U. after   11 cycles
 SCF Done:  E(RB3LYP) =  -834.798771851     A.U. after   10 cycles
 SCF Done:  E(RB3LYP) =  -834.803987932     A.U. after   11 cycles
 SCF Done:  E(RB3LYP) =  -834.807377731     A.U. after   10 cycles
 SCF Done:  E(RB3LYP) =  -834.809061433     A.U. after   11 cycles
 SCF Done:  E(RB3LYP) =  -834.811179595     A.U. after   10 cycles
 SCF Done:  E(RB3LYP) =  -834.812890598     A.U. after   10 cycles
 SCF Done:  E(RB3LYP) =  -834.813750151     A.U. after   10 cycles
 SCF Done:  E(RB3LYP) =  -834.814011934     A.U. after   10 cycles
 SCF Done:  E(RB3LYP) =  -834.824726520     A.U. after    8 cycles
 SCF Done:  E(RB3LYP) =  -834.824746310     A.U. after    9 cycles
 SCF Done:  E(RB3LYP) =  -834.824749544     A.U. after    8 cycles
 SCF Done:  E(RB3LYP) =  -834.824758727     A.U. after    8 cycles
 SCF Done:  E(RB3LYP) =  -834.824760767     A.U. after    8 cycles
 SCF Done:  E(RB3LYP) =  -834.824761567     A.U. after    8 cycles
 SCF Done:  E(RB3LYP) =  -834.824761745     A.U. after    6 cycles
 SCF Done:  E(RB3LYP) =  -834.824761804     A.U. after    6 cycles
 SCF Done:  E(RB3LYP) =  -834.824761847     A.U. after    5 cycles
 Optimization completed.
    -- Stationary point found.

 The electronic state is 1-A.
 Alpha  occ. eigenvalues --  -19.13499 -19.12236 -14.30265 -10.22465 -10.21625
 Alpha  occ. eigenvalues --  -10.21008 -10.20105 -10.19753 -10.18525 -10.18324
 Alpha  occ. eigenvalues --  -10.17742 -10.17612 -10.17555 -10.17377 -10.17281
 Alpha  occ. eigenvalues --  -10.17184 -10.16639 -10.16278 -10.15986  -1.01721
 Alpha  occ. eigenvalues --   -1.01586  -0.89720  -0.83675  -0.78920  -0.76659
 Alpha  occ. eigenvalues --   -0.74846  -0.73494  -0.73013  -0.69235  -0.66647
 Alpha  occ. eigenvalues --   -0.64885  -0.64417  -0.59813  -0.58734  -0.58566
 Alpha  occ. eigenvalues --   -0.57088  -0.56610  -0.54551  -0.49504  -0.48416
 Alpha  occ. eigenvalues --   -0.47894  -0.47385  -0.46505  -0.45430  -0.44635
 Alpha  occ. eigenvalues --   -0.44065  -0.43235  -0.42599  -0.42438  -0.41310
 Alpha  occ. eigenvalues --   -0.40492  -0.40260  -0.39076  -0.38862  -0.38132
 Alpha  occ. eigenvalues --   -0.37758  -0.37486  -0.37041  -0.35850  -0.35755
 Alpha  occ. eigenvalues --   -0.34652  -0.34309  -0.33415  -0.33125  -0.32930
 Alpha  occ. eigenvalues --   -0.32548  -0.32031  -0.31485  -0.31329  -0.31129
 Alpha  occ. eigenvalues --   -0.30305  -0.30067  -0.29463  -0.25577  -0.23981
 Alpha  occ. eigenvalues --   -0.21018
 Alpha virt. eigenvalues --    0.06381   0.07969   0.08322   0.08945   0.10040
 Alpha virt. eigenvalues --    0.10366   0.11126   0.11750   0.12329   0.12512
 Alpha virt. eigenvalues --    0.13039   0.13881   0.14281   0.15176   0.15570

 Mulliken charges:
               1
     1  C   -0.379537
     2  C   -0.183734
     3  C   -0.108280
     4  N   -0.288101
     5  C    0.025259
     6  C   -0.217141
     7  C   -0.200694
     8  C   -0.053458
     9  O   -0.243677
    10  C   -0.023909
    11  C   -0.383550
    12  C   -0.276913
    13  C   -0.005234
    14  C    0.005189
    15  C   -0.402666
    16  C   -0.222241
    17  C   -0.237628
    18  C    0.138518
    19  O   -0.435810
    20  H    0.113342
    21  H    0.113063
    22  H    0.115775
    23  H    0.088520
    24  H    0.108562
    25  H    0.101473
    26  H    0.071678
    27  H    0.202932
    28  H    0.074484
    29  H    0.133380
    30  H    0.077061
    31  H    0.116004
    32  H    0.093032
    33  H    0.083163
    34  H    0.076636
    35  H    0.080608
    36  H    0.079463
    37  H    0.124072
    38  H    0.109991
    39  H    0.124330
    40  H    0.091918
    41  H    0.089543
    42  H    0.053490
    43  H    0.064350
    44  H    0.116742
    45  H    0.126885
    46  H    0.110457
    47  H    0.092391
    48  H    0.092690
    49  H    0.104834
    50  H    0.093765
    51  H    0.095970
    52  H    0.273001
 Sum of Mulliken charges =  -0.00000

 Dipole moment (field-independent basis, Debye):
    X=              2.3963    Y=             -0.2341    Z=             -1.3382  Tot=              2.7546
 Quadrupole moment (field-independent basis, Debye-Ang):
   XX=           -116.8931   YY=           -120.8261   ZZ=           -117.5971
   XY=             -0.9898   XZ=              0.6434   YZ=              0.1540

 Normal termination of Gaussian 16 at Thu May 25 18:52:30 2023.

 ----------------------------------------------------------------------
 #N Geom=AllCheck Guess=TCheck SCRF=Check GenChk RB3LYP/6-31G(2df,p) Fr
 eq
 ----------------------------------------------------------------------

 Structure from the checkpoint file:  "CCCNCqCCCOCCrCC1CqCrCCC1O.chk"
 -------------------
 Title Card Required
 -------------------
 Charge =  0 Multiplicity = 1

                         Standard orientation:
 ---------------------------------------------------------------------
 Center     Atomic      Atomic             Coordinates (Angstroms)
 Number     Number       Type             X           Y           Z
 ---------------------------------------------------------------------
      1          6           0        1.560007    5.369798    0.492662
      2          6           0        0.673299    4.367339   -0.249689
      3          6           0        1.057624    2.912656    0.027714
      4          7           0        0.158817    1.995529   -0.657867
      5          6           0        0.403613    0.559214   -0.470233
      6          6           0       -0.864271   -0.197372   -0.910691
      7          6           0       -2.057351    0.027345    0.021813
      8          6           0       -3.337444   -0.609780   -0.499452
      9          8           0       -4.375644   -0.377466    0.429845
     10          6           0       -5.610887   -0.933574    0.038730
     11          6           0       -6.643975   -0.626004    1.110311
     12          6           0        1.661458    0.043890   -1.226459
     13          6           0        2.441423   -1.169695   -0.667894
     14          6           0        3.537356   -0.900174    0.395869
     15          6           0        3.085447   -0.105932    1.629429
     16          6           0        3.980290   -2.336205    0.769088
     17          6           0        2.698823   -3.204517    0.679013
     18          6           0        1.642085   -2.349647   -0.074493
     19          8           0        0.878002   -3.077379   -1.027559
     20          1           0        1.265920    6.400001    0.270578
     21          1           0        2.612984    5.256931    0.211326
     22          1           0        1.491601    5.231737    1.577437
     23          1           0        0.735737    4.554069   -1.330949
     24          1           0       -0.377768    4.508430    0.026271
     25          1           0        0.977118    2.717071    1.105852
     26          1           0        2.125491    2.771907   -0.231132
     27          1           0        0.146632    2.205599   -1.652671
     28          1           0        0.538542    0.414390    0.608408
     29          1           0       -0.646389   -1.265232   -1.007703
     30          1           0       -1.118560    0.148455   -1.924593
     31          1           0       -2.217089    1.101316    0.157102
     32          1           0       -1.842877   -0.392003    1.013296
     33          1           0       -3.196540   -1.694787   -0.650493
     34          1           0       -3.604098   -0.184215   -1.483595
     35          1           0       -5.512922   -2.024476   -0.100838
     36          1           0       -5.928046   -0.516833   -0.933425
     37          1           0       -6.339102   -1.053313    2.069942
     38          1           0       -7.617143   -1.044695    0.836325
     39          1           0       -6.753476    0.454829    1.237671
     40          1           0        2.377085    0.869984   -1.321131
     41          1           0        1.345779   -0.190985   -2.251430
     42          1           0        2.988221   -1.597225   -1.525915
     43          1           0        4.366949   -0.352229   -0.066166
     44          1           0        2.263444   -0.597000    2.161749
     45          1           0        2.759183    0.903949    1.368553
     46          1           0        3.916873   -0.009686    2.335950
     47          1           0        4.451225   -2.379470    1.755438
     48          1           0        4.725837   -2.689388    0.048859
     49          1           0        2.329693   -3.499896    1.664830
     50          1           0        2.873595   -4.132871    0.125985
     51          1           0        0.894034   -1.981193    0.633381
     52          1           0        1.472496   -3.347176   -1.736426
 ---------------------------------------------------------------------

 SCF Done:  E(RB3LYP) =  -834.824761847     A.U. after    1 cycles
