 Gaussian 16, Revision A.03,
 Gaussian 16:  ES64L-G16RevA.03 25-Dec-2016

 -----------------------------
 # opt freq b3lyp/6-31g(2df,p)
 -----------------------------

 -------------------
 Title Card Required
 -------------------
 Symbolic Z-matrix:
 Charge =  0 Multiplicity = 1

 SCF Done:  E(RB3LYP) =  -525.831852759     A.U. after   14 cycles
 SCF Done:  E(RB3LYP) =  -525.858590841     A.U. after   12 cycles
 SCF Done:  E(RB3LYP) =  -525.860151610     A.U. after   12 cycles
 SCF Done:  E(RB3LYP) =  -525.857277212     A.U. after   13 cycles
 SCF Done:  E(RB3LYP) =  -525.861114607     A.U. after   12 cycles
 SCF Done:  E(RB3LYP) =  -525.862428949     A.U. after   11 cycles
 SCF Done:  E(RB3LYP) =  -525.862492538     A.U. after   12 cycles
 SCF Done:  E(RB3LYP) =  -525.863556485     A.U. after   11 cycles
 SCF Done:  E(RB3LYP) =  -525.864916132     A.U. after   13 cycles
 SCF Done:  E(RB3LYP) =  -525.866012456     A.U. after   10 cycles
 SCF Done:  E(RB3LYP) =  -525.867667388     A.U. after    8 cycles
 SCF Done:  E(RB3LYP) =  -525.867667831     A.U. after    8 cycles
 SCF Done:  E(RB3LYP) =  -525.867668562     A.U. after    9 cycles
 SCF Done:  E(RB3LYP) =  -525.867669598     A.U. after    9 cycles
 SCF Done:  E(RB3LYP) =  -525.867670223     A.U. after    9 cycles
 SCF Done:  E(RB3LYP) =  -525.867671347     A.U. after    8 cycles
 SCF Done:  E(RB3LYP) =  -525.867671717     A.U. after    9 cycles
 SCF Done:  E(RB3LYP) =  -525.867671894     A.U. after    7 cycles
 SCF Done:  E(RB3LYP) =  -525.867671896     A.U. after    6 cycles
 Optimization completed.
    -- Stationary point found.
 Normal termination of Gaussian 16 at Wed May 24 05:44:55 2023.

 ----------------------------------------------------------------------
 #N Geom=AllCheck Guess=TCheck SCRF=Check GenChk RB3LYP/6-31G(2df,p) Fr
 eq
 ----------------------------------------------------------------------

 Structure from the checkpoint file:  "CCCNqCtCCqCrCrCCqCrC.chk"
 -------------------
 Title Card Required
 -------------------
 Charge =  0 Multiplicity = 1

                         Standard orientation:
 ---------------------------------------------------------------------
 Center     Atomic      Atomic             Coordinates (Angstroms)
 Number     Number       Type             X           Y           Z
 ---------------------------------------------------------------------
      1          6           0        2.638085   -3.591939    0.004827
      2          6           0        1.702753   -2.444440    0.394504
      3          6           0        1.871790   -1.230368   -0.517970
      4          7           0        0.992906   -0.111684   -0.145576
      5          6           0       -0.330330   -0.379739   -0.138749
      6          6           0       -1.515808   -0.614691   -0.120315
      7          6           0       -2.954178   -0.888488   -0.065147
      8          6           0       -3.548826   -0.564615    1.320506
      9          6           0       -3.711849   -0.142113   -1.182049
     10          6           0        1.370115    1.201484   -0.692285
     11          6           0        0.782553    2.377382    0.100371
     12          6           0        1.300905    2.399181    1.543264
     13          6           0        1.080970    3.695672   -0.624568
     14          1           0        2.500559   -4.452476    0.666062
     15          1           0        3.690127   -3.291206    0.066525
     16          1           0        2.450276   -3.928425   -1.020847
     17          1           0        1.890360   -2.134247    1.429104
     18          1           0        0.661266   -2.780369    0.353896
     19          1           0        1.707478   -1.528165   -1.568156
     20          1           0        2.901087   -0.861703   -0.447166
     21          1           0       -3.089402   -1.965736   -0.239835
     22          1           0       -3.448614    0.503009    1.541153
     23          1           0       -3.032271   -1.120361    2.107447
     24          1           0       -4.613008   -0.822453    1.354026
     25          1           0       -3.613214    0.940962   -1.055688
     26          1           0       -4.777744   -0.392292   -1.156910
     27          1           0       -3.316070   -0.403911   -2.166807
     28          1           0        1.071340    1.282298   -1.750767
     29          1           0        2.464638    1.256821   -0.660041
     30          1           0       -0.305647    2.239273    0.126836
     31          1           0        2.383090    2.579409    1.566259
     32          1           0        1.107473    1.447535    2.044271
     33          1           0        0.820749    3.195990    2.120397
     34          1           0        2.161239    3.873111   -0.695064
     35          1           0        0.643454    4.543472   -0.088087
     36          1           0        0.675410    3.697301   -1.641912
 ---------------------------------------------------------------------

 SCF Done:  E(RB3LYP) =  -525.867671896     A.U. after    1 cycles

 The electronic state is 1-A.
 Alpha  occ. eigenvalues --  -14.34559 -10.21043 -10.20794 -10.20123 -10.18210
 Alpha  occ. eigenvalues --  -10.18005 -10.17716 -10.17416 -10.17072 -10.17039
 Alpha  occ. eigenvalues --  -10.16886 -10.16399 -10.15065  -0.93807  -0.80007
 Alpha  occ. eigenvalues --   -0.79830  -0.77254  -0.71444  -0.68792  -0.67744
 Alpha  occ. eigenvalues --   -0.67716  -0.65219  -0.60340  -0.58658  -0.56056
 Alpha  occ. eigenvalues --   -0.50101  -0.48011  -0.47141  -0.46496  -0.44993
 Alpha  occ. eigenvalues --   -0.43706  -0.42976  -0.41231  -0.40380  -0.39575
 Alpha  occ. eigenvalues --   -0.39126  -0.37955  -0.37784  -0.37258  -0.35985
 Alpha  occ. eigenvalues --   -0.35922  -0.34609  -0.34029  -0.33957  -0.33272
 Alpha  occ. eigenvalues --   -0.32769  -0.32388  -0.31691  -0.29298  -0.24194
 Alpha  occ. eigenvalues --   -0.18885
 Alpha virt. eigenvalues --    0.06099   0.07418   0.09613   0.10231   0.10892
 Alpha virt. eigenvalues --    0.11106   0.12785   0.13740   0.14198   0.15021
 Alpha virt. eigenvalues --    0.15419   0.15739   0.16200   0.16381   0.16757

 Mulliken charges:
               1
     1  C   -0.384942
     2  C   -0.176943
     3  C   -0.145118
     4  N   -0.223061
     5  C   -0.216350
     6  C    0.438169
     7  C   -0.136528
     8  C   -0.368405
     9  C   -0.369390
    10  C   -0.159889
    11  C    0.029693
    12  C   -0.381530
    13  C   -0.394803
    14  H    0.115778
    15  H    0.112955
    16  H    0.116519
    17  H    0.103442
    18  H    0.116388
    19  H    0.091688
    20  H    0.100222
    21  H    0.098388
    22  H    0.117709
    23  H    0.118493
    24  H    0.104813
    25  H    0.117905
    26  H    0.106524
    27  H    0.117877
    28  H    0.089969
    29  H    0.096124
    30  H    0.091267
    31  H    0.103149
    32  H    0.129010
    33  H    0.107216
    34  H    0.109657
    35  H    0.112650
    36  H    0.111350
 Sum of Mulliken charges =  -0.00000

 Dipole moment (field-independent basis, Debye):
    X=              0.6024    Y=             -0.0827    Z=             -0.4468  Tot=              0.7545
 Quadrupole moment (field-independent basis, Debye-Ang):
   XX=            -78.9216   YY=            -81.7354   ZZ=            -84.7364
   XY=              0.3544   XZ=             -0.7511   YZ=             -0.1944

  Exact polarizability: 167.426   2.661 141.627  -2.673  -1.710 117.271
 Approx polarizability: 235.810  10.979 179.376  -3.234  -0.712 168.971

                      1                      2                      3
                      A                      A                      A
 Frequencies --      6.0399                31.5491                47.1305
 Red. masses --      2.6061                 2.7414                 3.1818
 Frc consts  --      0.0001                 0.0016                 0.0042
 IR Inten    --      0.0027                 0.0071                 0.3068

                      4                      5                      6
                      A                      A                      A
 Frequencies --     49.3225                65.0087                78.6206
 Red. masses --      3.1968                 1.6125                 2.9750
 Frc consts  --      0.0046                 0.0040                 0.0108
 IR Inten    --      0.0946                 0.3343                 0.6388

                      7                      8                      9
                      A                      A                      A
 Frequencies --    113.7398               131.0636               180.8683
 Red. masses --      3.3347                 2.4888                 2.5003
 Frc consts  --      0.0254                 0.0252                 0.0482
 IR Inten    --      0.2560                 0.3385                 1.5445

                     10                     11                     12
                      A                      A                      A
 Frequencies --    210.8167               227.8338               230.3309
 Red. masses --      1.2475                 1.5236                 1.5591
 Frc consts  --      0.0327                 0.0466                 0.0487
 IR Inten    --      0.6178                 1.6619                 0.7549

                     13                     14                     15
                      A                      A                      A
 Frequencies --    230.7079               236.3477               253.4610
 Red. masses --      1.1413                 1.0982                 1.5616
 Frc consts  --      0.0358                 0.0361                 0.0591
 IR Inten    --      0.4444                 0.0866                 0.5504

                     16                     17                     18
                      A                      A                      A
 Frequencies --    274.0475               292.6932               330.0516
 Red. masses --      1.3432                 2.6629                 2.8005
 Frc consts  --      0.0594                 0.1344                 0.1797
 IR Inten    --      0.7796                 0.5127                 2.3853

                     19                     20                     21
                      A                      A                      A
 Frequencies --    366.1216               391.5356               424.1263
 Red. masses --      2.4022                 2.5093                 2.3510
 Frc consts  --      0.1897                 0.2266                 0.2492
 IR Inten    --      0.1905                 1.4248                 1.5170

                     22                     23                     24
                      A                      A                      A
 Frequencies --    448.8554               454.1488               516.8423
 Red. masses --      3.1967                 3.9189                 4.3076
 Frc consts  --      0.3795                 0.4762                 0.6780
 IR Inten    --      3.9543                 2.9659                 2.3316

                     25                     26                     27
                      A                      A                      A
 Frequencies --    535.3230               656.6563               672.7833
 Red. masses --      5.1299                 3.5819                 3.5666
 Frc consts  --      0.8661                 0.9100                 0.9512
 IR Inten    --      8.6337                 4.7785                 3.7033

                     28                     29                     30
                      A                      A                      A
 Frequencies --    760.5038               825.6163               854.7903
 Red. masses --      1.1028                 2.6613                 2.9021
 Frc consts  --      0.3758                 1.0688                 1.2493
 IR Inten    --      1.9554                 0.0595                 2.8677

                     31                     32                     33
                      A                      A                      A
 Frequencies --    891.1465               898.4446               927.1054
 Red. masses --      1.2035                 1.6839                 1.1852
 Frc consts  --      0.5631                 0.8008                 0.6002
 IR Inten    --      1.2905                 0.7552                 0.7140

                     34                     35                     36
                      A                      A                      A
 Frequencies --    930.1776               935.3066               949.6765
 Red. masses --      1.3053                 1.3355                 1.8112
 Frc consts  --      0.6654                 0.6883                 0.9624
 IR Inten    --      2.1765                 0.6173                 3.4487

                     37                     38                     39
                      A                      A                      A
 Frequencies --    956.9934               970.9419               979.9758
 Red. masses --      1.5221                 1.6099                 2.5097
 Frc consts  --      0.8213                 0.8942                 1.4200
 IR Inten    --      0.0351                 1.3761                 2.7850

                     40                     41                     42
                      A                      A                      A
 Frequencies --   1049.7435              1096.9017              1107.9764
 Red. masses --      2.6592                 1.8474                 2.0718
 Frc consts  --      1.7265                 1.3096                 1.4985
 IR Inten    --      1.3935                48.9281                53.4329

                     43                     44                     45
                      A                      A                      A
 Frequencies --   1121.7041              1130.2786              1147.2155
 Red. masses --      2.2825                 2.1037                 2.2111
 Frc consts  --      1.6921                 1.5834                 1.7146
 IR Inten    --      4.1535                 4.7111                 4.6847

                     46                     47                     48
                      A                      A                      A
 Frequencies --   1167.5830              1195.1463              1198.6652
 Red. masses --      1.8583                 1.8312                 1.8075
 Frc consts  --      1.4926                 1.5411                 1.5301
 IR Inten    --     11.2917                 5.0278                 6.4556

                     49                     50                     51
                      A                      A                      A
 Frequencies --   1204.4393              1261.9717              1278.8220
 Red. masses --      2.4979                 1.6774                 1.2853
 Frc consts  --      2.1350                 1.5739                 1.2384
 IR Inten    --     10.0201                28.9078                 8.7201

                     52                     53                     54
                      A                      A                      A
 Frequencies --   1303.9729              1321.5619              1324.7926
 Red. masses --      1.3034                 1.3123                 1.2680
 Frc consts  --      1.3057                 1.3504                 1.3112
 IR Inten    --     44.6239                 2.5678                11.3551

                     55                     56                     57
                      A                      A                      A
 Frequencies --   1331.7178              1341.2255              1370.9342
 Red. masses --      1.1076                 1.4126                 2.0531
 Frc consts  --      1.1573                 1.4971                 2.2735
 IR Inten    --      8.1683                26.2210                 6.9615

                     58                     59                     60
                      A                      A                      A
 Frequencies --   1375.3164              1389.1246              1393.2717
 Red. masses --      1.3299                 1.4529                 1.2176
 Frc consts  --      1.4821                 1.6519                 1.3926
 IR Inten    --      3.8652                11.4613                 1.8357

                     61                     62                     63
                      A                      A                      A
 Frequencies --   1398.9869              1412.1271              1415.5194
 Red. masses --      1.2860                 1.2563                 1.2213
 Frc consts  --      1.4829                 1.4760                 1.4418
 IR Inten    --      7.1273                 0.3817                 2.9107

                     64                     65                     66
                      A                      A                      A
 Frequencies --   1417.8699              1443.0543              1484.1705
 Red. masses --      1.2502                 1.4723                 1.0746
 Frc consts  --      1.4809                 1.8064                 1.3946
 IR Inten    --      6.3524                 4.4258                 2.7155

                     67                     68                     69
                      A                      A                      A
 Frequencies --   1484.5941              1488.2515              1489.1629
 Red. masses --      1.0427                 1.0461                 1.0470
 Frc consts  --      1.3540                 1.3651                 1.3680
 IR Inten    --      1.0191                 0.1275                 1.4383

                     70                     71                     72
                      A                      A                      A
 Frequencies --   1491.1357              1496.1971              1497.9860
 Red. masses --      1.0609                 1.0599                 1.0448
 Frc consts  --      1.3898                 1.3979                 1.3814
 IR Inten    --      0.8989                 1.2198                 5.2410

                     73                     74                     75
                      A                      A                      A
 Frequencies --   1500.4451              1503.1973              1505.4158
 Red. masses --      1.0400                 1.0478                 1.0762
 Frc consts  --      1.3795                 1.3950                 1.4370
 IR Inten    --      4.5351                 3.5360                 1.2391

                     76                     77                     78
                      A                      A                      A
 Frequencies --   1509.6177              1511.5687              1518.3708
 Red. masses --      1.0675                 1.0604                 1.1064
 Frc consts  --      1.4333                 1.4275                 1.5028
 IR Inten    --      2.3010                 7.2926                 4.1630

                     79                     80                     81
                      A                      A                      A
 Frequencies --   2350.6391              2950.9537              2961.1213
 Red. masses --     11.8461                 1.0702                 1.0699
 Frc consts  --     38.5653                 5.4910                 5.5275
 IR Inten    --    119.7839                44.9842                88.9321

                     82                     83                     84
                      A                      A                      A
 Frequencies --   2996.9358              3022.0660              3024.3135
 Red. masses --      1.0815                 1.0371                 1.0541
 Frc consts  --      5.7230                 5.5806                 5.6805
 IR Inten    --     16.6602                25.7509                14.5172

                     85                     86                     87
                      A                      A                      A
 Frequencies --   3029.3683              3030.2519              3031.0005
 Red. masses --      1.0369                 1.0350                 1.0665
 Frc consts  --      5.6067                 5.5993                 5.7729
 IR Inten    --     30.2684                22.3511                15.4866

                     88                     89                     90
                      A                      A                      A
 Frequencies --   3034.6043              3040.2938              3051.0704
 Red. masses --      1.0351                 1.0603                 1.0906
 Frc consts  --      5.6160                 5.7742                 5.9817
 IR Inten    --     39.1935                24.5580                 1.3545

                     91                     92                     93
                      A                      A                      A
 Frequencies --   3058.3261              3076.7513              3085.8379
 Red. masses --      1.0892                 1.0998                 1.0989
 Frc consts  --      6.0023                 6.1341                 6.1653
 IR Inten    --     39.3924                 2.6821                10.5068

                     94                     95                     96
                      A                      A                      A
 Frequencies --   3092.6899              3099.0207              3100.6611
 Red. masses --      1.0987                 1.1018                 1.1029
 Frc consts  --      6.1914                 6.2345                 6.2475
 IR Inten    --     54.6855                 0.6677                64.4269

                     97                     98                     99
                      A                      A                      A
 Frequencies --   3101.0319              3104.9484              3105.7746
 Red. masses --      1.1010                 1.1014                 1.1002
 Frc consts  --      6.2383                 6.2561                 6.2528
 IR Inten    --     31.8367                67.5948                33.8771

                    100                    101                    102
                      A                      A                      A
 Frequencies --   3115.5630              3117.5537              3120.8030
 Red. masses --      1.1018                 1.1016                 1.0997
 Frc consts  --      6.3013                 6.3080                 6.3103
 IR Inten    --     20.1934                31.3684                23.0555

 - Thermochemistry -
 -------------------
 Temperature   298.150 Kelvin.  Pressure   1.00000 Atm.
 Atom     1 has atomic number  6 and mass  12.00000

 Molecular mass:   181.18305 amu.
 Principal axes and moments of inertia in atomic units:
                           1         2         3
     Eigenvalues --  3042.299303475.619345639.60609
           X            0.99930  -0.03750  -0.00106
           Y            0.03750   0.99930  -0.00079
           Z            0.00109   0.00075   1.00000
 This molecule is an asymmetric top.
 Rotational symmetry number  1.
 Warning -- assumption of classical behavior for rotation
           may cause significant error
 Rotational temperatures (Kelvin)      0.02847     0.02492     0.01536
 Rotational constants (GHZ):           0.59322     0.51926     0.32001
 Zero-point vibrational energy     859626.5 (Joules/Mol)
                                  205.45565 (Kcal/Mol)
 Warning -- explicit consideration of  25 degrees of freedom as
           vibrations may cause significant error
 Vibrational temperatures:      8.69    45.39    67.81    70.96    93.53
          (Kelvin)            113.12   163.65   188.57   260.23   303.32
                              327.80   331.39   331.94   340.05   364.67
                              394.29   421.12   474.87   526.77   563.33
                              610.22   645.80   653.42   743.62   770.21
                              944.78   967.99  1094.20  1187.88  1229.85
                             1282.16  1292.66  1333.90  1338.32  1345.70
                             1366.37  1376.90  1396.97  1409.97  1510.35
                             1578.20  1594.13  1613.88  1626.22  1650.59
                             1679.89  1719.55  1724.61  1732.92  1815.70
                             1839.94  1876.13  1901.43  1906.08  1916.04
                             1929.72  1972.47  1978.77  1998.64  2004.61
                             2012.83  2031.74  2036.62  2040.00  2076.23
                             2135.39  2136.00  2141.26  2142.57  2145.41
                             2152.69  2155.27  2158.81  2162.77  2165.96
                             2172.00  2174.81  2184.60  3382.05  4245.76
                             4260.39  4311.92  4348.08  4351.31  4358.59
                             4359.86  4360.93  4366.12  4374.30  4389.81
                             4400.25  4426.76  4439.83  4449.69  4458.80
                             4461.16  4461.69  4467.33  4468.52  4482.60
                             4485.46  4490.14

 Zero-point correction=                           0.327414 (Hartree/Particle)
 Thermal correction to Energy=                    0.344843
 Thermal correction to Enthalpy=                  0.345787
 Thermal correction to Gibbs Free Energy=         0.279355
 Sum of electronic and zero-point Energies=           -525.540257
 Sum of electronic and thermal Energies=              -525.522829
 Sum of electronic and thermal Enthalpies=            -525.521885
 Sum of electronic and thermal Free Energies=         -525.588317

                     E (Thermal)             CV                S
                      KCal/Mol        Cal/Mol-Kelvin    Cal/Mol-Kelvin
 Total                  216.392             62.056            139.818
 Electronic               0.000              0.000              0.000
 Translational            0.889              2.981             41.490
 Rotational               0.889              2.981             32.456
 Vibrational            214.615             56.094             65.873
 Vibration     1          0.593              1.987              9.013
 Vibration     2          0.594              1.983              5.730
 Vibration     3          0.595              1.979              4.934
 Vibration     4          0.595              1.978              4.844
 Vibration     5          0.597              1.971              4.299
 Vibration     6          0.600              1.964              3.925
 Vibration     7          0.607              1.938              3.204
 Vibration     8          0.612              1.922              2.930
 Vibration     9          0.630              1.866              2.319
 Vibration    10          0.643              1.824              2.037
 Vibration    11          0.651              1.799              1.896
 Vibration    12          0.652              1.795              1.876
 Vibration    13          0.652              1.794              1.873
 Vibration    14          0.655              1.785              1.830
 Vibration    15          0.665              1.757              1.706
 Vibration    16          0.676              1.721              1.571
 Vibration    17          0.688              1.687              1.458
 Vibration    18          0.713              1.615              1.260
 Vibration    19          0.739              1.542              1.096
 Vibration    20          0.759              1.488              0.994
 Vibration    21          0.786              1.418              0.878
 Vibration    22          0.808              1.363              0.799
 Vibration    23          0.813              1.352              0.783
 Vibration    24          0.872              1.213              0.617
 Vibration    25          0.890              1.172              0.575

 Optimization completed.
    -- Stationary point found.
 Normal termination of Gaussian 16 at Wed May 24 07:38:54 2023.
