 Gaussian 16, Revision A.03,
 Gaussian 16:  ES64L-G16RevA.03 25-Dec-2016

 -----------------------------
 # opt freq b3lyp/6-31g(2df,p)
 -----------------------------

 -------------------
 Title Card Required
 -------------------
 Symbolic Z-matrix:
 Charge =  0 Multiplicity = 1

 SCF Done:  E(RB3LYP) =  -634.294126370     A.U. after   12 cycles
 SCF Done:  E(RB3LYP) =  -634.317128027     A.U. after   11 cycles
 SCF Done:  E(RB3LYP) =  -634.320129574     A.U. after   11 cycles
 SCF Done:  E(RB3LYP) =  -634.327395587     A.U. after   11 cycles
 SCF Done:  E(RB3LYP) =  -634.326905708     A.U. after   11 cycles
 SCF Done:  E(RB3LYP) =  -634.332687630     A.U. after   11 cycles
 SCF Done:  E(RB3LYP) =  -634.336874653     A.U. after   11 cycles
 SCF Done:  E(RB3LYP) =  -634.340721952     A.U. after   11 cycles
 SCF Done:  E(RB3LYP) =  -634.345025894     A.U. after   11 cycles
 SCF Done:  E(RB3LYP) =  -634.350307519     A.U. after   11 cycles
 SCF Done:  E(RB3LYP) =  -634.371176892     A.U. after   10 cycles
 SCF Done:  E(RB3LYP) =  -634.371488589     A.U. after   10 cycles
 SCF Done:  E(RB3LYP) =  -634.371620487     A.U. after    9 cycles
 SCF Done:  E(RB3LYP) =  -634.371652058     A.U. after    9 cycles
 SCF Done:  E(RB3LYP) =  -634.371659036     A.U. after    8 cycles
 SCF Done:  E(RB3LYP) =  -634.371661770     A.U. after    7 cycles
 SCF Done:  E(RB3LYP) =  -634.371663179     A.U. after    7 cycles
 SCF Done:  E(RB3LYP) =  -634.371663430     A.U. after    6 cycles
 SCF Done:  E(RB3LYP) =  -634.371663566     A.U. after    6 cycles
 Optimization completed.
    -- Stationary point found.
 Normal termination of Gaussian 16 at Tue May 23 12:36:27 2023.

 ----------------------------------------------------------------------
 #N Geom=AllCheck Guess=TCheck SCRF=Check GenChk RB3LYP/6-31G(2df,p) Fr
 eq
 ----------------------------------------------------------------------

 Structure from the checkpoint file:  "CCCN1CCqCrOCCqNCrN1C.chk"
 -------------------
 Title Card Required
 -------------------
 Charge =  0 Multiplicity = 1

                         Standard orientation:
 ---------------------------------------------------------------------
 Center     Atomic      Atomic             Coordinates (Angstroms)
 Number     Number       Type             X           Y           Z
 ---------------------------------------------------------------------
      1          6           0       -4.295199   -0.479014    0.447524
      2          6           0       -2.946846   -0.503698   -0.279211
      3          6           0       -1.773148   -0.305351    0.696180
      4          7           0       -0.411513   -0.396415    0.168442
      5          6           0        0.004569   -1.717925   -0.299847
      6          6           0        1.516694   -1.944537   -0.115365
      7          6           0        1.874411   -2.279565    1.336400
      8          8           0        2.285909   -0.873572   -0.665708
      9          6           0        2.325322    0.339469    0.064507
     10          6           0        1.180762    1.332907   -0.263729
     11          7           0        1.047810    2.204042    0.887593
     12          6           0        0.184326    3.361363    0.679326
     13          7           0       -0.077097    0.695373   -0.682548
     14          6           0       -0.186465    0.484461   -2.127857
     15          1           0       -5.128645   -0.602941   -0.250450
     16          1           0       -4.442677    0.470141    0.975102
     17          1           0       -4.361469   -1.281909    1.190599
     18          1           0       -2.925600    0.288240   -1.035455
     19          1           0       -2.833483   -1.456618   -0.811449
     20          1           0       -1.851939   -1.049023    1.500899
     21          1           0       -1.868957    0.679426    1.165888
     22          1           0       -0.262564   -1.895588   -1.351482
     23          1           0       -0.534475   -2.468666    0.288231
     24          1           0        1.799822   -2.800890   -0.739480
     25          1           0        1.419843   -1.580235    2.043091
     26          1           0        2.958808   -2.275513    1.478851
     27          1           0        1.503491   -3.280790    1.577950
     28          1           0        3.280215    0.814872   -0.181225
     29          1           0        2.333864    0.155617    1.143486
     30          1           0        1.480652    1.960798   -1.111182
     31          1           0        0.700473    1.646994    1.663222
     32          1           0       -0.816986    3.106915    0.300328
     33          1           0        0.654253    4.040086   -0.042300
     34          1           0        0.075696    3.906820    1.621446
     35          1           0       -0.122620    1.461513   -2.616845
     36          1           0       -1.162260    0.059590   -2.372730
     37          1           0        0.596338   -0.159924   -2.552802
 ---------------------------------------------------------------------

 SCF Done:  E(RB3LYP) =  -634.371663566     A.U. after    1 cycles

 The electronic state is 1-A.
 Alpha  occ. eigenvalues --  -19.13036 -14.33960 -14.33274 -14.30348 -10.22773
 Alpha  occ. eigenvalues --  -10.22001 -10.21224 -10.20082 -10.20062 -10.19298
 Alpha  occ. eigenvalues --  -10.18913 -10.17693 -10.17474 -10.17211  -1.02311
 Alpha  occ. eigenvalues --   -0.97117  -0.89490  -0.82617  -0.78019  -0.75283
 Alpha  occ. eigenvalues --   -0.71987  -0.69138  -0.67243  -0.65561  -0.63148
 Alpha  occ. eigenvalues --   -0.59588  -0.56596  -0.54987  -0.50517  -0.48646
 Alpha  occ. eigenvalues --   -0.47881  -0.47137  -0.46581  -0.45104  -0.43286
 Alpha  occ. eigenvalues --   -0.42676  -0.41592  -0.41005  -0.40686  -0.39814
 Alpha  occ. eigenvalues --   -0.39479  -0.38894  -0.37563  -0.37054  -0.36576
 Alpha  occ. eigenvalues --   -0.36175  -0.35354  -0.35087  -0.33932  -0.33487
 Alpha  occ. eigenvalues --   -0.32657  -0.28972  -0.25529  -0.22232  -0.21317
 Alpha  occ. eigenvalues --   -0.20590
 Alpha virt. eigenvalues --    0.07598   0.08913   0.09621   0.10089   0.11794
 Alpha virt. eigenvalues --    0.12518   0.12876   0.12949   0.14386   0.14653
 Alpha virt. eigenvalues --    0.14894   0.15661   0.15884   0.16772   0.16961

 Mulliken charges:
               1
     1  C   -0.378681
     2  C   -0.181820
     3  C   -0.123847
     4  N   -0.093682
     5  C   -0.170444
     6  C    0.136061
     7  C   -0.413305
     8  O   -0.267413
     9  C   -0.101088
    10  C    0.056956
    11  N   -0.283739
    12  C   -0.315864
    13  N   -0.058966
    14  C   -0.342558
    15  H    0.113233
    16  H    0.116097
    17  H    0.112767
    18  H    0.109107
    19  H    0.093860
    20  H    0.089995
    21  H    0.100237
    22  H    0.091745
    23  H    0.097169
    24  H    0.076648
    25  H    0.126684
    26  H    0.123354
    27  H    0.112095
    28  H    0.106970
    29  H    0.093651
    30  H    0.071307
    31  H    0.215028
    32  H    0.105672
    33  H    0.114312
    34  H    0.111175
    35  H    0.118948
    36  H    0.118349
    37  H    0.119987
 Sum of Mulliken charges =  -0.00000

 Dipole moment (field-independent basis, Debye):
    X=             -1.5482    Y=             -0.8988    Z=              0.2627  Tot=              1.8093
 Quadrupole moment (field-independent basis, Debye-Ang):
   XX=            -91.9814   YY=            -86.2189   ZZ=            -87.2796
   XY=             -0.1914   XZ=              0.6734   YZ=             -1.9857

  Exact polarizability: 140.595   0.364 140.848  -1.088  -1.365 119.989
 Approx polarizability: 181.117   3.414 193.942  -4.023  -1.031 184.992

                      1                      2                      3
                      A                      A                      A
 Frequencies --     46.2093                53.8108                86.0981
 Red. masses --      3.0527                 3.2064                 2.7339
 Frc consts  --      0.0038                 0.0055                 0.0119
 IR Inten    --      0.2695                 0.0987                 0.0879

                      4                      5                      6
                      A                      A                      A
 Frequencies --     91.7841               112.8553               141.1789
 Red. masses --      1.7812                 2.7549                 2.1216
 Frc consts  --      0.0088                 0.0207                 0.0249
 IR Inten    --      0.2189                 0.6029                 0.5958

                      7                      8                      9
                      A                      A                      A
 Frequencies --    187.2394               197.4107               216.1417
 Red. masses --      1.3856                 3.3658                 3.0322
 Frc consts  --      0.0286                 0.0773                 0.0835
 IR Inten    --      3.0838                 0.1547                 0.9583

                     10                     11                     12
                      A                      A                      A
 Frequencies --    233.3186               241.7357               251.0987
 Red. masses --      1.2297                 1.4137                 1.3024
 Frc consts  --      0.0394                 0.0487                 0.0484
 IR Inten    --      0.1968                 0.3066                 1.3113

                     13                     14                     15
                      A                      A                      A
 Frequencies --    254.9226               272.0896               286.0144
 Red. masses --      1.4174                 2.2662                 2.7492
 Frc consts  --      0.0543                 0.0988                 0.1325
 IR Inten    --      0.2843                 2.8221                 3.7870

                     16                     17                     18
                      A                      A                      A
 Frequencies --    324.2965               339.9948               399.7342
 Red. masses --      2.0212                 2.8219                 2.2583
 Frc consts  --      0.1252                 0.1922                 0.2126
 IR Inten    --      1.8477                 4.3924                 0.4920

                     19                     20                     21
                      A                      A                      A
 Frequencies --    413.5322               432.3567               442.8005
 Red. masses --      2.7866                 3.2931                 2.9775
 Frc consts  --      0.2808                 0.3627                 0.3440
 IR Inten    --      1.9652                 1.7299                 4.6391

                     22                     23                     24
                      A                      A                      A
 Frequencies --    481.2938               536.5908               582.9049
 Red. masses --      2.7785                 3.4454                 3.4989
 Frc consts  --      0.3792                 0.5845                 0.7004
 IR Inten    --      1.5015                14.8119                16.7530

                     25                     26                     27
                      A                      A                      A
 Frequencies --    641.7099               678.1120               723.3162
 Red. masses --      2.7931                 2.8856                 2.4796
 Frc consts  --      0.6777                 0.7818                 0.7643
 IR Inten    --     29.7130                13.5444                 6.7002

                     28                     29                     30
                      A                      A                      A
 Frequencies --    753.5524               773.3056               820.5003
 Red. masses --      1.2917                 2.0136                 2.0819
 Frc consts  --      0.4322                 0.7094                 0.8258
 IR Inten    --      4.7666                45.5784                48.3040

                     31                     32                     33
                      A                      A                      A
 Frequencies --    855.6051               884.7913               893.0608
 Red. masses --      2.0285                 1.3686                 1.9123
 Frc consts  --      0.8749                 0.6313                 0.8986
 IR Inten    --     16.2507                 1.2386                11.7655

                     34                     35                     36
                      A                      A                      A
 Frequencies --    929.6071               937.1120               981.6380
 Red. masses --      2.2116                 1.8398                 2.2471
 Frc consts  --      1.1260                 0.9519                 1.2758
 IR Inten    --      8.6953                 6.2331                 8.5199

                     37                     38                     39
                      A                      A                      A
 Frequencies --    999.3138              1032.0235              1033.7131
 Red. masses --      2.6156                 2.8002                 1.6263
 Frc consts  --      1.5389                 1.7572                 1.0239
 IR Inten    --     33.6215                 0.5240                 9.0988

                     40                     41                     42
                      A                      A                      A
 Frequencies --   1046.3784              1058.0961              1095.3613
 Red. masses --      2.3429                 2.2501                 2.5502
 Frc consts  --      1.5114                 1.4843                 1.8028
 IR Inten    --     14.8768                 1.1710                42.5110

                     43                     44                     45
                      A                      A                      A
 Frequencies --   1103.6442              1114.1923              1123.8716
 Red. masses --      2.0745                 2.0713                 2.3127
 Frc consts  --      1.4888                 1.5150                 1.7211
 IR Inten    --     15.1947                 1.6447                46.9110

                     46                     47                     48
                      A                      A                      A
 Frequencies --   1141.0615              1147.0512              1160.1444
 Red. masses --      1.8304                 2.0327                 1.9509
 Frc consts  --      1.4041                 1.5757                 1.5471
 IR Inten    --      6.9847                24.1810                29.8704

                     49                     50                     51
                      A                      A                      A
 Frequencies --   1170.7515              1201.9654              1214.2713
 Red. masses --      2.5743                 2.5606                 2.3083
 Frc consts  --      2.0789                 2.1796                 2.0052
 IR Inten    --     52.5334                41.5571                15.9275

                     52                     53                     54
                      A                      A                      A
 Frequencies --   1229.1162              1254.7830              1296.5268
 Red. masses --      2.3359                 2.2752                 1.2823
 Frc consts  --      2.0792                 2.1106                 1.2700
 IR Inten    --     18.9645                 6.6987                 0.1331

                     55                     56                     57
                      A                      A                      A
 Frequencies --   1308.8796              1315.2485              1324.0328
 Red. masses --      1.2800                 1.3878                 1.3376
 Frc consts  --      1.2920                 1.4144                 1.3816
 IR Inten    --      1.9620                 3.2113                 4.2853

                     58                     59                     60
                      A                      A                      A
 Frequencies --   1337.5376              1346.7044              1366.2312
 Red. masses --      1.2867                 1.2840                 1.3342
 Frc consts  --      1.3563                 1.3720                 1.4673
 IR Inten    --      6.8504                 0.8990                 5.2704

                     61                     62                     63
                      A                      A                      A
 Frequencies --   1379.3239              1396.4327              1397.3545
 Red. masses --      1.2366                 1.2516                 1.3001
 Frc consts  --      1.3862                 1.4379                 1.4957
 IR Inten    --      1.5171                10.1299                15.0484

                     64                     65                     66
                      A                      A                      A
 Frequencies --   1403.7556              1406.7042              1411.6357
 Red. masses --      1.2633                 1.3259                 1.2616
 Frc consts  --      1.4667                 1.5458                 1.4812
 IR Inten    --      4.6856                16.8470                 4.9617

                     67                     68                     69
                      A                      A                      A
 Frequencies --   1414.2277              1446.1648              1451.0681
 Red. masses --      1.2448                 1.1744                 1.1864
 Frc consts  --      1.4668                 1.4471                 1.4719
 IR Inten    --      3.4854                 2.7799                 1.6309

                     70                     71                     72
                      A                      A                      A
 Frequencies --   1468.1796              1477.5513              1482.5804
 Red. masses --      1.0848                 1.0745                 1.0592
 Frc consts  --      1.3777                 1.3821                 1.3717
 IR Inten    --      1.1233                 3.7035                 6.2067

                     73                     74                     75
                      A                      A                      A
 Frequencies --   1484.9408              1489.3361              1492.0167
 Red. masses --      1.0673                 1.0603                 1.0554
 Frc consts  --      1.3867                 1.3857                 1.3843
 IR Inten    --      3.3397                 2.2666                 0.8735

                     76                     77                     78
                      A                      A                      A
 Frequencies --   1494.6769              1500.3235              1500.8184
 Red. masses --      1.0734                 1.1097                 1.0831
 Frc consts  --      1.4129                 1.4718                 1.4374
 IR Inten    --      3.3340                19.2621                 4.1327

                     79                     80                     81
                      A                      A                      A
 Frequencies --   1508.8974              1513.2696              1524.0580
 Red. masses --      1.0835                 1.0635                 1.0517
 Frc consts  --      1.4534                 1.4349                 1.4393
 IR Inten    --      2.5540                 0.8927                 9.2879

                     82                     83                     84
                      A                      A                      A
 Frequencies --   1526.0954              2986.9662              2989.5426
 Red. masses --      1.0525                 1.0465                 1.0616
 Frc consts  --      1.4442                 5.5010                 5.5902
 IR Inten    --      1.9499                50.3092                13.0316

                     85                     86                     87
                      A                      A                      A
 Frequencies --   3001.3594              3011.6905              3026.2723
 Red. masses --      1.0522                 1.0634                 1.0560
 Frc consts  --      5.5846                 5.6826                 5.6982
 IR Inten    --     60.2564                12.7715                 5.6687

                     88                     89                     90
                      A                      A                      A
 Frequencies --   3028.5623              3032.0020              3035.9107
 Red. masses --      1.0444                 1.0816                 1.0843
 Frc consts  --      5.6439                 5.8585                 5.8880
 IR Inten    --     52.8196                62.1961                21.9776

                     91                     92                     93
                      A                      A                      A
 Frequencies --   3039.0222              3047.0859              3056.1132
 Red. masses --      1.0414                 1.0551                 1.0887
 Frc consts  --      5.6667                 5.7718                 5.9908
 IR Inten    --     11.1783                31.7927                47.7499

                     94                     95                     96
                      A                      A                      A
 Frequencies --   3058.8853              3064.8843              3075.1838
 Red. masses --      1.0926                 1.0928                 1.0954
 Frc consts  --      6.0232                 6.0484                 6.1035
 IR Inten    --     15.1796                21.3353                 4.1199

                     97                     98                     99
                      A                      A                      A
 Frequencies --   3076.6490              3087.5700              3097.6486
 Red. masses --      1.0945                 1.1056                 1.1031
 Frc consts  --      6.1040                 6.2097                 6.2363
 IR Inten    --     27.4222                39.2191                73.1014

                    100                    101                    102
                      A                      A                      A
 Frequencies --   3099.1205              3102.5973              3109.2923
 Red. masses --      1.1001                 1.1006                 1.1002
 Frc consts  --      6.2251                 6.2419                 6.2665
 IR Inten    --     28.8603                33.9854                26.5839

                    103                    104                    105
                      A                      A                      A
 Frequencies --   3121.0844              3122.8596              3507.1131
 Red. masses --      1.0997                 1.1023                 1.0730
 Frc consts  --      6.3114                 6.3336                 7.7758
 IR Inten    --     20.2533                24.9732                 0.3160

 - Thermochemistry -
 -------------------
 Temperature   298.150 Kelvin.  Pressure   1.00000 Atm.
 Atom     1 has atomic number  6 and mass  12.00000

 Molecular mass:   201.18411 amu.
 Principal axes and moments of inertia in atomic units:
                           1         2         3
     Eigenvalues --  2349.012963244.101954421.65413
           X            0.99998   0.00242   0.00605
           Y           -0.00234   0.99990  -0.01365
           Z           -0.00609   0.01363   0.99989
 This molecule is an asymmetric top.
 Rotational symmetry number  1.
 Warning -- assumption of classical behavior for rotation
           may cause significant error
 Rotational temperatures (Kelvin)      0.03687     0.02670     0.01959
 Rotational constants (GHZ):           0.76830     0.55631     0.40816
 Zero-point vibrational energy     884431.8 (Joules/Mol)
                                  211.38427 (Kcal/Mol)
 Warning -- explicit consideration of  24 degrees of freedom as
           vibrations may cause significant error
 Vibrational temperatures:     66.48    77.42   123.88   132.06   162.37
          (Kelvin)            203.12   269.40   284.03   310.98   335.69
                              347.80   361.27   366.78   391.48   411.51
                              466.59   489.18   575.13   594.98   622.06
                              637.09   692.47   772.03   838.67   923.28
                              975.65  1040.69  1084.19  1112.61  1180.52
                             1231.02  1273.02  1284.92  1337.50  1348.30
                             1412.36  1437.79  1484.85  1487.28  1505.51
                             1522.36  1575.98  1587.90  1603.07  1617.00
                             1641.73  1650.35  1669.19  1684.45  1729.36
                             1747.07  1768.42  1805.35  1865.41  1883.19
                             1892.35  1904.99  1924.42  1937.61  1965.70
                             1984.54  2009.16  2010.48  2019.69  2023.93
                             2031.03  2034.76  2080.71  2087.76  2112.38
                             2125.87  2133.10  2136.50  2142.82  2146.68
                             2150.51  2158.63  2159.34  2170.97  2177.26
                             2192.78  2195.71  4297.58  4301.28  4318.29
                             4333.15  4354.13  4357.43  4362.37  4368.00
                             4372.48  4384.08  4397.07  4401.05  4409.68
                             4424.50  4426.61  4442.32  4456.83  4458.94
                             4463.95  4473.58  4490.54  4493.10  5045.95

 Zero-point correction=                           0.336862 (Hartree/Particle)
 Thermal correction to Energy=                    0.352845
 Thermal correction to Enthalpy=                  0.353789
 Thermal correction to Gibbs Free Energy=         0.294391
 Sum of electronic and zero-point Energies=           -634.034801
 Sum of electronic and thermal Energies=              -634.018819
 Sum of electronic and thermal Enthalpies=            -634.017875
 Sum of electronic and thermal Free Energies=         -634.077272

                     E (Thermal)             CV                S
                      KCal/Mol        Cal/Mol-Kelvin    Cal/Mol-Kelvin
 Total                  221.413             61.049            125.013
 Electronic               0.000              0.000              0.000
 Translational            0.889              2.981             41.802
 Rotational               0.889              2.981             31.888
 Vibrational            219.636             55.088             51.323
 Vibration     1          0.595              1.979              4.973
 Vibration     2          0.596              1.976              4.672
 Vibration     3          0.601              1.959              3.747
 Vibration     4          0.602              1.955              3.622
 Vibration     5          0.607              1.939              3.219
 Vibration     6          0.615              1.912              2.788
 Vibration     7          0.632              1.857              2.255
 Vibration     8          0.637              1.843              2.157
 Vibration     9          0.645              1.816              1.991
 Vibration    10          0.654              1.790              1.853
 Vibration    11          0.658              1.776              1.790
 Vibration    12          0.663              1.761              1.723
 Vibration    13          0.665              1.754              1.696
 Vibration    14          0.675              1.725              1.583
 Vibration    15          0.684              1.700              1.497
 Vibration    16          0.709              1.627              1.288
 Vibration    17          0.720              1.596              1.212
 Vibration    18          0.766              1.471              0.964
 Vibration    19          0.777              1.441              0.914
 Vibration    20          0.793              1.400              0.851
 Vibration    21          0.802              1.377              0.818
 Vibration    22          0.838              1.292              0.707
 Vibration    23          0.892              1.169              0.573
 Vibration    24          0.940              1.068              0.480

                           ! Non-Optimized Parameters !
 Normal termination of Gaussian 16 at Tue May 23 15:51:00 2023.
