 Gaussian 16, Revision A.03,
 Gaussian 16:  ES64L-G16RevA.03 25-Dec-2016

 -----------------------------
 # opt freq b3lyp/6-31g(2df,p)
 -----------------------------

 -------------------
 Title Card Required
 -------------------
 Symbolic Z-matrix:
 Charge =  0 Multiplicity = 1

 SCF Done:  E(RB3LYP) =  -897.440385298     A.U. after   13 cycles
 SCF Done:  E(RB3LYP) =  -897.452448347     A.U. after   11 cycles
 SCF Done:  E(RB3LYP) =  -897.454207287     A.U. after   11 cycles
 SCF Done:  E(RB3LYP) =  -897.455595001     A.U. after   11 cycles
 SCF Done:  E(RB3LYP) =  -897.456754956     A.U. after   13 cycles
 SCF Done:  E(RB3LYP) =  -897.457771246     A.U. after   11 cycles
 SCF Done:  E(RB3LYP) =  -897.458192072     A.U. after   11 cycles
 SCF Done:  E(RB3LYP) =  -897.458286195     A.U. after   11 cycles
 SCF Done:  E(RB3LYP) =  -897.458355189     A.U. after    9 cycles
 SCF Done:  E(RB3LYP) =  -897.458363450     A.U. after    9 cycles
 SCF Done:  E(RB3LYP) =  -897.458366391     A.U. after    8 cycles
 SCF Done:  E(RB3LYP) =  -897.458367177     A.U. after    7 cycles
 SCF Done:  E(RB3LYP) =  -897.458367506     A.U. after    7 cycles
 SCF Done:  E(RB3LYP) =  -897.458367532     A.U. after    6 cycles
 Optimization completed.
    -- Stationary point found.
 Normal termination of Gaussian 16 at Wed May 24 00:18:15 2023.

 ----------------------------------------------------------------------
 #N Geom=AllCheck Guess=TCheck SCRF=Check GenChk RB3LYP/6-31G(2df,p) Fr
 eq
 ----------------------------------------------------------------------

 Structure from the checkpoint file:  "CCCNC1NCqdSrOC1CC.chk"
 -------------------
 Title Card Required
 -------------------
 Charge =  0 Multiplicity = 1

                         Standard orientation:
 ---------------------------------------------------------------------
 Center     Atomic      Atomic             Coordinates (Angstroms)
 Number     Number       Type             X           Y           Z
 ---------------------------------------------------------------------
      1          6           0        4.564645   -1.422146   -0.127457
      2          6           0        3.377916   -0.579554   -0.600589
      3          6           0        2.198490   -0.623556    0.370873
      4          7           0        1.098082    0.217846   -0.099353
      5          6           0       -0.032709    0.318452    0.788825
      6          7           0       -0.876414   -0.880250    0.897994
      7          6           0       -1.962251   -0.817430    0.083685
      8         16           0       -2.969147   -2.048755   -0.343129
      9          8           0       -2.101481    0.451207   -0.346982
     10          6           0       -1.130573    1.305234    0.315668
     11          6           0       -0.724371    2.432900   -0.616683
     12          6           0        0.161736    3.473656    0.074637
     13          1           0        5.389688   -1.376649   -0.843893
     14          1           0        4.285206   -2.474694   -0.009112
     15          1           0        4.943024   -1.068670    0.837991
     16          1           0        3.043898   -0.935703   -1.584473
     17          1           0        3.679219    0.465239   -0.736323
     18          1           0        2.513922   -0.241090    1.350753
     19          1           0        1.899805   -1.676450    0.526654
     20          1           0        0.798317   -0.083559   -1.022172
     21          1           0        0.345504    0.599164    1.775978
     22          1           0       -0.530480   -1.784689    1.174610
     23          1           0       -1.629165    1.713844    1.204092
     24          1           0       -1.645714    2.898847   -0.982084
     25          1           0       -0.208429    2.021005   -1.488868
     26          1           0       -0.329969    3.894326    0.958821
     27          1           0        0.382777    4.300779   -0.605363
     28          1           0        1.111614    3.030215    0.385079
 ---------------------------------------------------------------------

 SCF Done:  E(RB3LYP) =  -897.458367532     A.U. after    1 cycles

 The electronic state is 1-A.
 Alpha  occ. eigenvalues --  -88.81499 -19.19027 -14.36971 -14.34013 -10.31092
 Alpha  occ. eigenvalues --  -10.27239 -10.26073 -10.22600 -10.19858 -10.19584
 Alpha  occ. eigenvalues --  -10.18755 -10.18689  -7.88111  -5.84565  -5.84113
 Alpha  occ. eigenvalues --   -5.83739  -1.10754  -0.96066  -0.90917  -0.82133
 Alpha  occ. eigenvalues --   -0.78538  -0.75606  -0.70130  -0.68091  -0.65705
 Alpha  occ. eigenvalues --   -0.62017  -0.60037  -0.59848  -0.53755  -0.52520
 Alpha  occ. eigenvalues --   -0.50773  -0.47809  -0.46880  -0.45688  -0.43768
 Alpha  occ. eigenvalues --   -0.42508  -0.41762  -0.40450  -0.39864  -0.38460
 Alpha  occ. eigenvalues --   -0.38117  -0.36893  -0.36227  -0.35614  -0.35433
 Alpha  occ. eigenvalues --   -0.34667  -0.34261  -0.29432  -0.25957  -0.22071
 Alpha  occ. eigenvalues --   -0.20725
 Alpha virt. eigenvalues --   -0.00679   0.05981   0.07240   0.07789   0.08268
 Alpha virt. eigenvalues --    0.09806   0.11358   0.11956   0.13039   0.13745
 Alpha virt. eigenvalues --    0.14444   0.14759   0.15552   0.16258   0.16741

 Mulliken charges:
               1
     1  C   -0.381759
     2  C   -0.184227
     3  C   -0.122808
     4  N   -0.286392
     5  C    0.006414
     6  N   -0.311782
     7  C    0.401267
     8  S   -0.470901
     9  O   -0.232738
    10  C    0.091978
    11  C   -0.193933
    12  C   -0.391710
    13  H    0.121052
    14  H    0.120057
    15  H    0.118112
    16  H    0.100418
    17  H    0.111009
    18  H    0.107160
    19  H    0.082770
    20  H    0.230159
    21  H    0.105693
    22  H    0.271718
    23  H    0.106362
    24  H    0.119788
    25  H    0.108989
    26  H    0.116892
    27  H    0.123117
    28  H    0.133294
 Sum of Mulliken charges =  -0.00000

 Dipole moment (field-independent basis, Debye):
    X=              5.3834    Y=              2.6238    Z=              1.6562  Tot=              6.2136
 Quadrupole moment (field-independent basis, Debye-Ang):
   XX=            -94.7644   YY=            -82.7264   ZZ=            -79.0749
   XY=            -11.4756   XZ=             -3.2314   YZ=             -1.2784

  Exact polarizability: 144.074  15.680 136.249   8.047   3.708  96.082
 Approx polarizability: 187.625  26.929 193.039  17.850   8.875 157.413

                      1                      2                      3
                      A                      A                      A
 Frequencies --     36.3760                65.2463                77.8161
 Red. masses --      4.6432                 1.6136                 3.9747
 Frc consts  --      0.0036                 0.0040                 0.0142
 IR Inten    --      1.9673                 0.2600                 0.2516

                      4                      5                      6
                      A                      A                      A
 Frequencies --     90.2828               105.6549               113.3622
 Red. masses --      3.8725                 3.1015                 3.0406
 Frc consts  --      0.0186                 0.0204                 0.0230
 IR Inten    --      1.4707                 1.2094                 0.0167

                      7                      8                      9
                      A                      A                      A
 Frequencies --    168.6669               189.7882               234.6981
 Red. masses --      2.7288                 1.6616                 3.4266
 Frc consts  --      0.0457                 0.0353                 0.1112
 IR Inten    --      0.5237                 0.4840                 1.9734

                     10                     11                     12
                      A                      A                      A
 Frequencies --    238.0777               254.3471               284.6034
 Red. masses --      1.1829                 1.4302                 4.0150
 Frc consts  --      0.0395                 0.0545                 0.1916
 IR Inten    --      0.3095                 0.3016                 1.0184

                     13                     14                     15
                      A                      A                      A
 Frequencies --    323.0307               400.1013               421.3115
 Red. masses --      3.9435                 3.7796                 4.0637
 Frc consts  --      0.2424                 0.3565                 0.4250
 IR Inten    --      0.9671                 0.6587                14.4384

                     16                     17                     18
                      A                      A                      A
 Frequencies --    496.5951               537.9988               549.8709
 Red. masses --      2.5164                 1.5591                 3.0148
 Frc consts  --      0.3656                 0.2659                 0.5371
 IR Inten    --      4.3790                97.8325                 5.6666

                     19                     20                     21
                      A                      A                      A
 Frequencies --    578.7742               671.6533               726.7646
 Red. masses --      3.9215                 7.6884                 1.8056
 Frc consts  --      0.7740                 2.0435                 0.5619
 IR Inten    --     14.5250                 1.2574                 3.3201

                     22                     23                     24
                      A                      A                      A
 Frequencies --    760.1202               761.3487               822.6652
 Red. masses --      1.6118                 1.1552                 1.6004
 Frc consts  --      0.5487                 0.3945                 0.6381
 IR Inten    --     40.7660                28.3047                 8.4079

                     25                     26                     27
                      A                      A                      A
 Frequencies --    862.8016               899.3905               916.7747
 Red. masses --      2.4409                 1.2619                 1.9419
 Frc consts  --      1.0706                 0.6014                 0.9616
 IR Inten    --     12.3288                 4.2919                 5.3876

                     28                     29                     30
                      A                      A                      A
 Frequencies --    932.8660               973.9469               985.6774
 Red. masses --      3.9614                 1.8236                 3.1091
 Frc consts  --      2.0311                 1.0192                 1.7797
 IR Inten    --      1.7471                21.6828                44.9066

                     31                     32                     33
                      A                      A                      A
 Frequencies --   1020.4670              1029.5762              1053.1654
 Red. masses --      3.7102                 2.4883                 2.3782
 Frc consts  --      2.2764                 1.5541                 1.5541
 IR Inten    --     86.3042                35.7919                 8.3132

                     34                     35                     36
                      A                      A                      A
 Frequencies --   1075.4229              1115.4244              1140.4378
 Red. masses --      2.2885                 2.0515                 2.5701
 Frc consts  --      1.5594                 1.5039                 1.9694
 IR Inten    --     18.0547                20.2114                26.4831

                     37                     38                     39
                      A                      A                      A
 Frequencies --   1151.2121              1176.4538              1180.4640
 Red. masses --      2.0183                 2.0980                 2.6617
 Frc consts  --      1.5759                 1.7108                 2.1853
 IR Inten    --     83.4447                86.0280               189.3991

                     40                     41                     42
                      A                      A                      A
 Frequencies --   1205.6556              1263.7529              1281.1705
 Red. masses --      2.1760                 1.2811                 1.4264
 Frc consts  --      1.8636                 1.2055                 1.3795
 IR Inten    --      9.8304                 0.6913                26.2365

                     43                     44                     45
                      A                      A                      A
 Frequencies --   1288.7051              1301.8079              1316.1704
 Red. masses --      1.7096                 1.4085                 1.2350
 Frc consts  --      1.6729                 1.4064                 1.2605
 IR Inten    --     64.6788                95.2798                32.0420

                     46                     47                     48
                      A                      A                      A
 Frequencies --   1336.0858              1345.8202              1379.0221
 Red. masses --      1.1514                 1.5394                 1.2837
 Frc consts  --      1.2110                 1.6428                 1.4383
 IR Inten    --     10.1948                39.5337                12.6448

                     49                     50                     51
                      A                      A                      A
 Frequencies --   1387.4299              1408.0722              1411.3610
 Red. masses --      1.5678                 1.5307                 1.3332
 Frc consts  --      1.7781                 1.7881                 1.5646
 IR Inten    --     35.6745                14.4663                 4.9285

                     52                     53                     54
                      A                      A                      A
 Frequencies --   1413.7977              1426.3819              1485.1677
 Red. masses --      1.2782                 1.3746                 1.2596
 Frc consts  --      1.5053                 1.6478                 1.6370
 IR Inten    --      1.3898                 4.3236                99.5194

                     55                     56                     57
                      A                      A                      A
 Frequencies --   1488.8035              1491.4418              1498.9067
 Red. masses --      1.2533                 1.4940                 1.0646
 Frc consts  --      1.6367                 1.9581                 1.4092
 IR Inten    --    157.8108               254.1648                19.4593

                     58                     59                     60
                      A                      A                      A
 Frequencies --   1500.3554              1503.7378              1508.5564
 Red. masses --      1.0520                 1.0744                 1.1996
 Frc consts  --      1.3953                 1.4315                 1.6084
 IR Inten    --     15.9327                 3.1302                20.0800

                     61                     62                     63
                      A                      A                      A
 Frequencies --   1514.2802              1519.1296              2931.0170
 Red. masses --      1.0877                 1.0965                 1.0712
 Frc consts  --      1.4695                 1.4909                 5.4221
 IR Inten    --      9.3836                 2.2207                58.2019

                     64                     65                     66
                      A                      A                      A
 Frequencies --   3017.5951              3023.9163              3031.8934
 Red. masses --      1.0687                 1.0842                 1.0564
 Frc consts  --      5.7338                 5.8410                 5.7216
 IR Inten    --      8.8915                18.5287                11.5386

                     67                     68                     69
                      A                      A                      A
 Frequencies --   3035.1385              3038.3936              3053.2283
 Red. masses --      1.0601                 1.0379                 1.0607
 Frc consts  --      5.7536                 5.6454                 5.8259
 IR Inten    --     45.7130                23.0695                14.8933

                     70                     71                     72
                      A                      A                      A
 Frequencies --   3066.6431              3072.7301              3090.8914
 Red. masses --      1.0986                 1.0860                 1.0996
 Frc consts  --      6.0872                 6.0414                 6.1893
 IR Inten    --     10.6765                31.2745                 7.0566

                     73                     74                     75
                      A                      A                      A
 Frequencies --   3100.0812              3110.1388              3110.2284
 Red. masses --      1.1023                 1.1006                 1.1005
 Frc consts  --      6.2414                 6.2723                 6.2724
 IR Inten    --     46.8804                 2.4452                62.2758

                     76                     77                     78
                      A                      A                      A
 Frequencies --   3123.5896              3512.2265              3657.3903
 Red. masses --      1.1023                 1.0734                 1.0783
 Frc consts  --      6.3363                 7.8013                 8.4986
 IR Inten    --     26.8627                 1.5701                39.4640

 - Thermochemistry -
 -------------------
 Temperature   298.150 Kelvin.  Pressure   1.00000 Atm.
 Atom     1 has atomic number  6 and mass  12.00000

 Molecular mass:   188.09834 amu.
 Principal axes and moments of inertia in atomic units:
                           1         2         3
     Eigenvalues --  1984.632083786.879055378.74283
           X            0.99823  -0.05926  -0.00447
           Y            0.05924   0.99823  -0.00448
           Z            0.00473   0.00421   0.99998
 This molecule is an asymmetric top.
 Rotational symmetry number  1.
 Warning -- assumption of classical behavior for rotation
           may cause significant error
 Rotational temperatures (Kelvin)      0.04364     0.02287     0.01610
 Rotational constants (GHZ):           0.90936     0.47658     0.33553
 Zero-point vibrational energy     638051.9 (Joules/Mol)
                                  152.49807 (Kcal/Mol)
 Warning -- explicit consideration of  19 degrees of freedom as
           vibrations may cause significant error
 Vibrational temperatures:     52.34    93.87   111.96   129.90   152.01
          (Kelvin)            163.10   242.67   273.06   337.68   342.54
                              365.95   409.48   464.77   575.66   606.17
                              714.49   774.06   791.14   832.73   966.36
                             1045.65  1093.64  1095.41  1183.63  1241.38
                             1294.02  1319.03  1342.19  1401.29  1418.17
                             1468.22  1481.33  1515.27  1547.29  1604.85
                             1640.84  1656.34  1692.65  1698.42  1734.67
                             1818.26  1843.32  1854.16  1873.01  1893.68
                             1922.33  1936.34  1984.11  1996.20  2025.90
                             2030.63  2034.14  2052.25  2136.83  2142.06
                             2145.85  2156.59  2158.68  2163.54  2170.48
                             2178.71  2185.69  4217.08  4341.65  4350.74
                             4362.22  4366.89  4371.57  4392.91  4412.22
                             4420.97  4447.10  4460.33  4474.80  4474.92
                             4494.15  5053.31  5262.17

 Zero-point correction=                           0.243021 (Hartree/Particle)
 Thermal correction to Energy=                    0.256564
 Thermal correction to Enthalpy=                  0.257508
 Thermal correction to Gibbs Free Energy=         0.201642
 Sum of electronic and zero-point Energies=           -897.215346
 Sum of electronic and thermal Energies=              -897.201803
 Sum of electronic and thermal Enthalpies=            -897.200859
 Sum of electronic and thermal Free Energies=         -897.256726

                     E (Thermal)             CV                S
                      KCal/Mol        Cal/Mol-Kelvin    Cal/Mol-Kelvin
 Total                  160.996             49.188            117.581
 Electronic               0.000              0.000              0.000
 Translational            0.889              2.981             41.601
 Rotational               0.889              2.981             32.069
 Vibrational            159.219             43.226             43.910
 Vibration     1          0.594              1.982              5.447
 Vibration     2          0.597              1.971              4.292
 Vibration     3          0.599              1.964              3.945
 Vibration     4          0.602              1.956              3.654
 Vibration     5          0.605              1.945              3.347
 Vibration     6          0.607              1.938              3.211
 Vibration     7          0.625              1.881              2.450
 Vibration     8          0.633              1.854              2.230
 Vibration     9          0.655              1.788              1.843
 Vibration    10          0.656              1.782              1.817
 Vibration    11          0.665              1.755              1.700
 Vibration    12          0.683              1.702              1.506
 Vibration    13          0.708              1.629              1.295
 Vibration    14          0.766              1.470              0.962
 Vibration    15          0.784              1.424              0.888
 Vibration    16          0.852              1.258              0.667
 Vibration    17          0.893              1.166              0.570
 Vibration    18          0.905              1.140              0.544
 Vibration    19          0.935              1.077              0.488

                           ! Non-Optimized Parameters !
 Normal termination of Gaussian 16 at Wed May 24 01:30:02 2023.
