 Gaussian 16, Revision A.03,
 Gaussian 16:  ES64L-G16RevA.03 25-Dec-2016

 -----------------------------
 # opt freq b3lyp/6-31g(2df,p)
 -----------------------------

 -------------------
 Title Card Required
 -------------------
 Symbolic Z-matrix:
 Charge =  0 Multiplicity = 1

 SCF Done:  E(RB3LYP) =  -701.583297471     A.U. after   12 cycles
 SCF Done:  E(RB3LYP) =  -701.602657548     A.U. after   10 cycles
 SCF Done:  E(RB3LYP) =  -701.608509745     A.U. after   10 cycles
 SCF Done:  E(RB3LYP) =  -701.612840250     A.U. after   11 cycles
 SCF Done:  E(RB3LYP) =  -701.614741765     A.U. after   10 cycles
 SCF Done:  E(RB3LYP) =  -701.619458869     A.U. after   10 cycles
 SCF Done:  E(RB3LYP) =  -701.622902318     A.U. after   11 cycles
 SCF Done:  E(RB3LYP) =  -701.624958340     A.U. after   10 cycles
 SCF Done:  E(RB3LYP) =  -701.625870042     A.U. after   10 cycles
 SCF Done:  E(RB3LYP) =  -701.626696451     A.U. after   10 cycles
 SCF Done:  E(RB3LYP) =  -701.631682136     A.U. after    8 cycles
 SCF Done:  E(RB3LYP) =  -701.631673643     A.U. after    9 cycles
 SCF Done:  E(RB3LYP) =  -701.631705675     A.U. after    9 cycles
 SCF Done:  E(RB3LYP) =  -701.631712149     A.U. after    8 cycles
 SCF Done:  E(RB3LYP) =  -701.631712780     A.U. after    8 cycles
 SCF Done:  E(RB3LYP) =  -701.631714124     A.U. after    8 cycles
 SCF Done:  E(RB3LYP) =  -701.631713853     A.U. after    8 cycles
 SCF Done:  E(RB3LYP) =  -701.631714293     A.U. after    7 cycles
 SCF Done:  E(RB3LYP) =  -701.631714293     A.U. after    5 cycles
 Optimization completed.
    -- Stationary point found.
 Normal termination of Gaussian 16 at Wed May 24 02:57:27 2023.

 ----------------------------------------------------------------------
 #N Geom=AllCheck Guess=TCheck SCRF=Check GenChk RB3LYP/6-31G(2df,p) Fr
 eq
 ----------------------------------------------------------------------

 Structure from the checkpoint file:  "CCCNqCCrCCqCrCqCrCCCCCN.chk"
 -------------------
 Title Card Required
 -------------------
 Charge =  0 Multiplicity = 1

                         Standard orientation:
 ---------------------------------------------------------------------
 Center     Atomic      Atomic             Coordinates (Angstroms)
 Number     Number       Type             X           Y           Z
 ---------------------------------------------------------------------
      1          6           0       -4.739259   -2.940815   -0.236879
      2          6           0       -4.219808   -1.576790   -0.699007
      3          6           0       -3.879279   -0.649918    0.475569
      4          7           0       -3.385015    0.672507    0.066417
      5          6           0       -4.342249    1.749862    0.308556
      6          6           0       -5.614189    1.638092   -0.532432
      7          6           0       -2.050255    0.975173    0.585223
      8          6           0       -0.922202    0.203770   -0.136970
      9          6           0       -0.855233    0.687807   -1.593584
     10          6           0        0.418330    0.327098    0.643490
     11          6           0        0.380900   -0.506758    1.936903
     12          6           0        1.642895   -0.057353   -0.212783
     13          6           0        3.001739    0.106153    0.482084
     14          6           0        4.185458   -0.129853   -0.463740
     15          6           0        5.548279    0.012933    0.220480
     16          6           0        6.727576   -0.211353   -0.726085
     17          7           0        8.000120   -0.100293   -0.004114
     18          1           0       -4.970310   -3.588621   -1.087870
     19          1           0       -5.653242   -2.838425    0.359513
     20          1           0       -3.999843   -3.459934    0.383860
     21          1           0       -4.962565   -1.090065   -1.340541
     22          1           0       -3.323582   -1.704691   -1.317277
     23          1           0       -3.123931   -1.142815    1.101825
     24          1           0       -4.766148   -0.539581    1.119997
     25          1           0       -3.844595    2.693709    0.060707
     26          1           0       -4.621847    1.816688    1.379549
     27          1           0       -5.368130    1.594116   -1.597687
     28          1           0       -6.255226    2.508380   -0.358238
     29          1           0       -6.197231    0.747150   -0.280713
     30          1           0       -1.999979    0.807982    1.675163
     31          1           0       -1.867306    2.045926    0.432375
     32          1           0       -1.189606   -0.862827   -0.149773
     33          1           0       -0.438758    1.701294   -1.653986
     34          1           0       -1.866553    0.717079   -2.007020
     35          1           0       -0.245409    0.036670   -2.224530
     36          1           0        0.537926    1.386540    0.922384
     37          1           0        0.380192   -1.578342    1.701303
     38          1           0       -0.508363   -0.301423    2.538000
     39          1           0        1.248987   -0.308536    2.570987
     40          1           0        1.654067    0.555172   -1.120436
     41          1           0        1.533113   -1.098753   -0.550474
     42          1           0        3.084476   -0.584485    1.329597
     43          1           0        3.073939    1.118252    0.905858
     44          1           0        4.122335    0.572604   -1.306647
     45          1           0        4.102899   -1.134298   -0.902455
     46          1           0        5.631037   -0.694623    1.054392
     47          1           0        5.629686    1.017067    0.662297
     48          1           0        6.638117    0.481317   -1.582583
     49          1           0        6.669069   -1.225317   -1.142178
     50          1           0        8.121296    0.854945    0.322317
     51          1           0        8.773518   -0.275941   -0.638781
 ---------------------------------------------------------------------

 SCF Done:  E(RB3LYP) =  -701.631714293     A.U. after    1 cycles

 The electronic state is 1-A.
 Alpha  occ. eigenvalues --  -14.30930 -14.30109 -10.20002 -10.19743 -10.19641
 Alpha  occ. eigenvalues --  -10.19414 -10.18003 -10.17681 -10.17299 -10.17163
 Alpha  occ. eigenvalues --  -10.17122 -10.17054 -10.16991 -10.16970 -10.16946
 Alpha  occ. eigenvalues --  -10.16596 -10.15903  -0.91095  -0.87108  -0.81540
 Alpha  occ. eigenvalues --   -0.78466  -0.77111  -0.74992  -0.72736  -0.70958
 Alpha  occ. eigenvalues --   -0.67996  -0.65699  -0.64464  -0.61082  -0.59289
 Alpha  occ. eigenvalues --   -0.58038  -0.57151  -0.55796  -0.54322  -0.48472
 Alpha  occ. eigenvalues --   -0.48148  -0.46738  -0.46352  -0.45556  -0.44730
 Alpha  occ. eigenvalues --   -0.43820  -0.42833  -0.42348  -0.42173  -0.41068
 Alpha  occ. eigenvalues --   -0.40630  -0.39935  -0.38650  -0.38403  -0.37308
 Alpha  occ. eigenvalues --   -0.37211  -0.36505  -0.36409  -0.35813  -0.35219
 Alpha  occ. eigenvalues --   -0.34344  -0.34106  -0.33605  -0.33002  -0.32674
 Alpha  occ. eigenvalues --   -0.32540  -0.32096  -0.31689  -0.31570  -0.30615
 Alpha  occ. eigenvalues --   -0.30083  -0.29039  -0.22972  -0.20144
 Alpha virt. eigenvalues --    0.08071   0.08662   0.08990   0.09780   0.10285
 Alpha virt. eigenvalues --    0.10789   0.11387   0.12301   0.12547   0.12817
 Alpha virt. eigenvalues --    0.13646   0.14230   0.14586   0.14867   0.15870

 Mulliken charges:
               1
     1  C   -0.380569
     2  C   -0.158630
     3  C   -0.146070
     4  N   -0.051811
     5  C   -0.119516
     6  C   -0.387233
     7  C   -0.165545
     8  C    0.025368
     9  C   -0.410379
    10  C    0.022973
    11  C   -0.400622
    12  C   -0.196768
    13  C   -0.193010
    14  C   -0.179154
    15  C   -0.155590
    16  C   -0.147328
    17  N   -0.509471
    18  H    0.112483
    19  H    0.112083
    20  H    0.112379
    21  H    0.098513
    22  H    0.101593
    23  H    0.094072
    24  H    0.083972
    25  H    0.096716
    26  H    0.070988
    27  H    0.120637
    28  H    0.109294
    29  H    0.118266
    30  H    0.076845
    31  H    0.089727
    32  H    0.067307
    33  H    0.102723
    34  H    0.122273
    35  H    0.108716
    36  H    0.061750
    37  H    0.108861
    38  H    0.112153
    39  H    0.116202
    40  H    0.094995
    41  H    0.087123
    42  H    0.097731
    43  H    0.088630
    44  H    0.089982
    45  H    0.092028
    46  H    0.104755
    47  H    0.083925
    48  H    0.074253
    49  H    0.099630
    50  H    0.220015
    51  H    0.222736
 Sum of Mulliken charges =  -0.00000

 Dipole moment (field-independent basis, Debye):
    X=             -0.0525    Y=              0.8817    Z=             -0.4009  Tot=              0.9700
 Quadrupole moment (field-independent basis, Debye-Ang):
   XX=           -109.2487   YY=           -110.5717   ZZ=           -114.4334
   XY=              6.1598   XZ=             -8.8324   YZ=              1.4821

  Exact polarizability: 229.874  -1.581 165.941   0.579   1.035 158.111
 Approx polarizability: 254.929  -0.759 248.605   0.226   1.791 241.825

                      1                      2                      3
                      A                      A                      A
 Frequencies --     18.1463                28.3652                39.1447
 Red. masses --      3.8659                 2.8832                 2.3979
 Frc consts  --      0.0008                 0.0014                 0.0022
 IR Inten    --      0.0366                 0.5101                 0.8339

                      4                      5                      6
                      A                      A                      A
 Frequencies --     44.2592                53.2375                57.1399
 Red. masses --      3.3311                 2.2955                 2.7026
 Frc consts  --      0.0038                 0.0038                 0.0052
 IR Inten    --      0.2673                 1.3363                 0.3606

                      7                      8                      9
                      A                      A                      A
 Frequencies --     71.4437                89.6230               109.0436
 Red. masses --      3.0444                 1.8331                 2.2938
 Frc consts  --      0.0092                 0.0087                 0.0161
 IR Inten    --      0.0341                 0.0252                 0.5267

                     10                     11                     12
                      A                      A                      A
 Frequencies --    124.6020               130.4451               141.4111
 Red. masses --      2.3438                 1.9366                 1.9767
 Frc consts  --      0.0214                 0.0194                 0.0233
 IR Inten    --      0.4928                 1.5799                 0.4153

                     13                     14                     15
                      A                      A                      A
 Frequencies --    159.1080               165.7461               179.6597
 Red. masses --      2.2003                 2.8273                 3.0233
 Frc consts  --      0.0328                 0.0458                 0.0575
 IR Inten    --      0.1643                 0.6756                 0.1693

                     16                     17                     18
                      A                      A                      A
 Frequencies --    212.3581               219.7955               234.2651
 Red. masses --      1.7725                 1.6104                 1.1433
 Frc consts  --      0.0471                 0.0458                 0.0370
 IR Inten    --      0.4989                 0.3376                 0.0224

                     19                     20                     21
                      A                      A                      A
 Frequencies --    255.4155               259.0031               271.1259
 Red. masses --      1.2553                 1.7106                 1.2987
 Frc consts  --      0.0482                 0.0676                 0.0562
 IR Inten    --     28.0900                 3.0547                 3.1962

                     22                     23                     24
                      A                      A                      A
 Frequencies --    283.7856               297.8979               326.5605
 Red. masses --      2.2697                 1.2541                 2.5512
 Frc consts  --      0.1077                 0.0656                 0.1603
 IR Inten    --      4.3088                 0.8955                 4.0985

                     25                     26                     27
                      A                      A                      A
 Frequencies --    345.7706               376.5070               404.1840
 Red. masses --      2.6045                 2.4199                 2.7533
 Frc consts  --      0.1835                 0.2021                 0.2650
 IR Inten    --      0.4543                 0.6902                 1.2793

                     28                     29                     30
                      A                      A                      A
 Frequencies --    418.5753               421.2409               438.1936
 Red. masses --      2.5555                 2.6697                 2.4191
 Frc consts  --      0.2638                 0.2791                 0.2737
 IR Inten    --      3.3243                 1.9594                 0.1288

                     31                     32                     33
                      A                      A                      A
 Frequencies --    480.3080               498.9001               535.0870
 Red. masses --      2.6139                 2.9227                 2.6229
 Frc consts  --      0.3553                 0.4286                 0.4425
 IR Inten    --      1.0676                 4.9735                 0.2126

                     34                     35                     36
                      A                      A                      A
 Frequencies --    568.3325               737.2734               738.5034
 Red. masses --      2.6761                 1.0755                 1.0979
 Frc consts  --      0.5093                 0.3444                 0.3528
 IR Inten    --      0.6409                 2.6675                 5.0448

                     37                     38                     39
                      A                      A                      A
 Frequencies --    763.0439               804.4447               808.9639
 Red. masses --      1.1544                 2.0359                 1.1608
 Frc consts  --      0.3960                 0.7762                 0.4476
 IR Inten    --      1.1804                 1.4607                 1.5102

                     40                     41                     42
                      A                      A                      A
 Frequencies --    828.1441               843.1056               866.9209
 Red. masses --      1.4528                 1.8145                 1.9270
 Frc consts  --      0.5870                 0.7599                 0.8533
 IR Inten    --     27.2211                10.8444                20.7475

                     43                     44                     45
                      A                      A                      A
 Frequencies --    874.1054               880.6907               897.7725
 Red. masses --      1.2912                 1.5667                 1.7453
 Frc consts  --      0.5812                 0.7159                 0.8288
 IR Inten    --     49.3203                31.5875                 0.8725

                     46                     47                     48
                      A                      A                      A
 Frequencies --    919.0194               932.3226               948.0185
 Red. masses --      1.5791                 1.6313                 1.5263
 Frc consts  --      0.7858                 0.8355                 0.8082
 IR Inten    --      1.5097                 3.3563                 8.5049

                     49                     50                     51
                      A                      A                      A
 Frequencies --    968.3157               982.1641               994.6831
 Red. masses --      2.3531                 1.5926                 1.6277
 Frc consts  --      1.3000                 0.9052                 0.9488
 IR Inten    --      2.2172                 2.9278                 5.1939

                     52                     53                     54
                      A                      A                      A
 Frequencies --   1023.8262              1035.0893              1042.1507
 Red. masses --      2.8230                 1.6680                 2.2781
 Frc consts  --      1.7435                 1.0529                 1.4577
 IR Inten    --      7.6114                 8.1249                 0.2007

                     55                     56                     57
                      A                      A                      A
 Frequencies --   1043.6230              1064.7170              1072.3253
 Red. masses --      2.7707                 2.3645                 2.3127
 Frc consts  --      1.7780                 1.5793                 1.5668
 IR Inten    --      1.6693                 3.7621                11.6576

                     58                     59                     60
                      A                      A                      A
 Frequencies --   1082.5598              1090.9089              1091.4036
 Red. masses --      2.2000                 2.3622                 2.5835
 Frc consts  --      1.5191                 1.6563                 1.8131
 IR Inten    --     17.9574                40.4776                25.4868

                     61                     62                     63
                      A                      A                      A
 Frequencies --   1117.1950              1125.7297              1134.9363
 Red. masses --      1.9969                 2.1644                 1.5412
 Frc consts  --      1.4685                 1.6161                 1.1696
 IR Inten    --      3.0579                 4.8059                 3.5835

                     64                     65                     66
                      A                      A                      A
 Frequencies --   1151.1888              1159.4548              1172.3515
 Red. masses --      1.8546                 2.1564                 1.7613
 Frc consts  --      1.4481                 1.7080                 1.4263
 IR Inten    --     11.1977                 4.3317                 6.2121

                     67                     68                     69
                      A                      A                      A
 Frequencies --   1185.2215              1218.7258              1230.8755
 Red. masses --      1.9047                 2.1570                 2.0461
 Frc consts  --      1.5764                 1.8876                 1.8264
 IR Inten    --      0.3127                12.9525                13.2064

                     70                     71                     72
                      A                      A                      A
 Frequencies --   1234.0532              1254.6290              1277.3956
 Red. masses --      1.3489                 1.5903                 1.3028
 Frc consts  --      1.2103                 1.4748                 1.2525
 IR Inten    --      2.1935                 8.7388                 5.3707

                     73                     74                     75
                      A                      A                      A
 Frequencies --   1293.7420              1297.2936              1310.6823
 Red. masses --      1.3085                 1.3079                 1.2387
 Frc consts  --      1.2904                 1.2969                 1.2537
 IR Inten    --      6.5027                 2.0366                 1.8057

                     76                     77                     78
                      A                      A                      A
 Frequencies --   1318.5637              1323.9068              1324.8234
 Red. masses --      1.2900                 1.2460                 1.0417
 Frc consts  --      1.3214                 1.2867                 1.0773
 IR Inten    --      1.7939                14.8226                 1.3854

                     79                     80                     81
                      A                      A                      A
 Frequencies --   1333.5318              1333.9265              1341.9177
 Red. masses --      1.2996                 1.1537                 1.2177
 Frc consts  --      1.3617                 1.2095                 1.2919
 IR Inten    --      3.3503                 1.0581                 1.0619

                     82                     83                     84
                      A                      A                      A
 Frequencies --   1351.8842              1354.2525              1363.1740
 Red. masses --      1.2237                 1.1766                 1.3000
 Frc consts  --      1.3177                 1.2714                 1.4233
 IR Inten    --      5.5743                 0.6042                 2.9860

                     85                     86                     87
                      A                      A                      A
 Frequencies --   1376.6403              1384.3334              1390.5951
 Red. masses --      1.4049                 1.3863                 1.4420
 Frc consts  --      1.5687                 1.5653                 1.6429
 IR Inten    --      3.0895                30.4349                 0.5431

                     88                     89                     90
                      A                      A                      A
 Frequencies --   1397.0587              1401.1133              1402.8002
 Red. masses --      1.3742                 1.4037                 1.3135
 Frc consts  --      1.5802                 1.6236                 1.5229
 IR Inten    --      6.0042                 2.3288                 9.8559

                     91                     92                     93
                      A                      A                      A
 Frequencies --   1405.5801              1413.0970              1413.1580
 Red. masses --      1.3001                 1.2469                 1.2364
 Frc consts  --      1.5133                 1.4670                 1.4547
 IR Inten    --      2.8570                 9.1694                 3.0357

                     94                     95                     96
                      A                      A                      A
 Frequencies --   1431.7263              1437.1895              1479.4602
 Red. masses --      1.4770                 1.3583                 1.0746
 Frc consts  --      1.7838                 1.6530                 1.3859
 IR Inten    --     18.8667                 8.3082                 0.0429

                     97                     98                     99
                      A                      A                      A
 Frequencies --   1481.0111              1484.3109              1484.6212
 Red. masses --      1.0632                 1.0743                 1.0733
 Frc consts  --      1.3740                 1.3945                 1.3938
 IR Inten    --      0.4232                 0.1302                 4.2234

                    100                    101                    102
                      A                      A                      A
 Frequencies --   1490.3764              1492.4103              1495.5322
 Red. masses --      1.0608                 1.0860                 1.0529
 Frc consts  --      1.3883                 1.4252                 1.3875
 IR Inten    --      0.9761                 0.2176                 1.5631

                    103                    104                    105
                      A                      A                      A
 Frequencies --   1497.6891              1499.7379              1500.1400
 Red. masses --      1.0527                 1.0499                 1.0537
 Frc consts  --      1.3912                 1.3913                 1.3971
 IR Inten    --      3.4455                 4.0411                 4.9173

                    106                    107                    108
                      A                      A                      A
 Frequencies --   1503.0059              1507.7445              1510.2316
 Red. masses --      1.0593                 1.0890                 1.0561
 Frc consts  --      1.4099                 1.4586                 1.4191
 IR Inten    --      0.6259                 2.4252                 2.7870

                    109                    110                    111
                      A                      A                      A
 Frequencies --   1513.0153              1516.1652              1518.6448
 Red. masses --      1.0796                 1.0590                 1.0919
 Frc consts  --      1.4561                 1.4344                 1.4837
 IR Inten    --      8.8547                 0.9294                 8.7054

                    112                    113                    114
                      A                      A                      A
 Frequencies --   1520.4914              1658.7660              2894.6114
 Red. masses --      1.0923                 1.0887                 1.0729
 Frc consts  --      1.4879                 1.7650                 5.2964
 IR Inten    --      0.8734                21.6990                83.1619

                    115                    116                    117
                      A                      A                      A
 Frequencies --   2931.7844              2945.4317              2970.8376
 Red. masses --      1.0727                 1.0696                 1.0790
 Frc consts  --      5.4322                 5.4672                 5.6109
 IR Inten    --     70.2580                68.0624                10.5669

                    118                    119                    120
                      A                      A                      A
 Frequencies --   2972.5991              2996.3302              2998.7380
 Red. masses --      1.0666                 1.0712                 1.0649
 Frc consts  --      5.5529                 5.6663                 5.6418
 IR Inten    --     46.1810                 2.0431                 8.2624

                    121                    122                    123
                      A                      A                      A
 Frequencies --   3000.2029              3002.6863              3011.9556
 Red. masses --      1.0708                 1.0676                 1.0684
 Frc consts  --      5.6790                 5.6713                 5.7105
 IR Inten    --      9.7535                 6.8719                78.0839

                    124                    125                    126
                      A                      A                      A
 Frequencies --   3025.6705              3025.9791              3027.6049
 Red. masses --      1.0444                 1.0526                 1.0744
 Frc consts  --      5.6332                 5.6788                 5.8025
 IR Inten    --     32.5380                13.2085                18.5951

                    127                    128                    129
                      A                      A                      A
 Frequencies --   3028.9610              3030.8868              3035.8126
 Red. masses --      1.0785                 1.0576                 1.0829
 Frc consts  --      5.8296                 5.7243                 5.8800
 IR Inten    --     17.0335                11.2390                42.2313

                    130                    131                    132
                      A                      A                      A
 Frequencies --   3036.7010              3038.9153              3040.2701
 Red. masses --      1.0398                 1.0575                 1.0856
 Frc consts  --      5.6496                 5.7542                 5.9123
 IR Inten    --     20.1201                33.0191                22.3765

                    133                    134                    135
                      A                      A                      A
 Frequencies --   3050.4386              3055.3452              3065.2881
 Red. masses --      1.0938                 1.0856                 1.0988
 Frc consts  --      5.9969                 5.9711                 6.0829
 IR Inten    --      0.2553                43.8833                24.1596

                    136                    137                    138
                      A                      A                      A
 Frequencies --   3069.0054              3077.0344              3094.4410
 Red. masses --      1.1011                 1.0988                 1.1028
 Frc consts  --      6.1103                 6.1295                 6.2215
 IR Inten    --      8.0403               114.0616                74.3921

                    139                    140                    141
                      A                      A                      A
 Frequencies --   3098.6788              3099.6692              3102.1348
 Red. masses --      1.0930                 1.0936                 1.1001
 Frc consts  --      6.1832                 6.1905                 6.2375
 IR Inten    --     14.7976                44.0488                32.9190

                    142                    143                    144
                      A                      A                      A
 Frequencies --   3106.4601              3113.8844              3115.6501
 Red. masses --      1.1003                 1.1023                 1.1002
 Frc consts  --      6.2562                 6.2973                 6.2922
 IR Inten    --     37.6641                30.5588                41.4755

                    145                    146                    147
                      A                      A                      A
 Frequencies --   3122.1305              3481.6816              3559.1662
 Red. masses --      1.1015                 1.0496                 1.0916
 Frc consts  --      6.3263                 7.4961                 8.1474
 IR Inten    --     23.2469                 1.6620                 0.3479

 - Thermochemistry -
 -------------------
 Temperature   298.150 Kelvin.  Pressure   1.00000 Atm.
 Atom     1 has atomic number  6 and mass  12.00000

 Molecular mass:   242.27220 amu.
 Principal axes and moments of inertia in atomic units:
                           1         2         3
     Eigenvalues --  1737.62500********************
           X            1.00000   0.00265  -0.00054
           Y           -0.00265   0.99997  -0.00656
           Z            0.00052   0.00656   0.99998
 This molecule is an asymmetric top.
 Rotational symmetry number  1.
 Warning -- assumption of classical behavior for rotation
           may cause significant error
 Rotational temperatures (Kelvin)      0.04985     0.00541     0.00523
 Rotational constants (GHZ):           1.03863     0.11267     0.10901
 Zero-point vibrational energy    1253900.9 (Joules/Mol)
                                  299.68952 (Kcal/Mol)
 Warning -- explicit consideration of  34 degrees of freedom as
           vibrations may cause significant error
 Vibrational temperatures:     26.11    40.81    56.32    63.68    76.60
          (Kelvin)             82.21   102.79   128.95   156.89   179.27
                              187.68   203.46   228.92   238.47   258.49
                              305.54   316.24   337.06   367.49   372.65
                              390.09   408.30   428.61   469.85   497.49
                              541.71   581.53   602.24   606.07   630.46
                              691.06   717.81   769.87   817.70  1060.77
                             1062.54  1097.85  1157.42  1163.92  1191.51
                             1213.04  1247.31  1257.64  1267.12  1291.69
                             1322.26  1341.40  1363.99  1393.19  1413.12
                             1431.13  1473.06  1489.26  1499.42  1501.54
                             1531.89  1542.84  1557.56  1569.57  1570.29
                             1607.39  1619.67  1632.92  1656.30  1668.20
                             1686.75  1705.27  1753.47  1770.96  1775.53
                             1805.13  1837.89  1861.41  1866.52  1885.78
                             1897.12  1904.81  1906.13  1918.65  1919.22
                             1930.72  1945.06  1948.47  1961.30  1980.68
                             1991.75  2000.76  2010.06  2015.89  2018.32
                             2022.32  2033.13  2033.22  2059.93  2067.80
                             2128.61  2130.84  2135.59  2136.04  2144.32
                             2147.25  2151.74  2154.84  2157.79  2158.37
                             2162.49  2169.31  2172.89  2176.89  2181.42
                             2184.99  2187.65  2386.59  4164.70  4218.18
                             4237.82  4274.37  4276.91  4311.05  4314.52
                             4316.62  4320.20  4333.53  4353.26  4353.71
                             4356.05  4358.00  4360.77  4367.86  4369.14
                             4372.32  4374.27  4388.90  4395.96  4410.27
                             4415.61  4427.17  4452.21  4458.31  4459.73
                             4463.28  4469.50  4480.19  4482.73  4492.05
                             5009.36  5120.85

 Zero-point correction=                           0.477586 (Hartree/Particle)
 Thermal correction to Energy=                    0.500461
 Thermal correction to Enthalpy=                  0.501405
 Thermal correction to Gibbs Free Energy=         0.423312
 Sum of electronic and zero-point Energies=           -701.154129
 Sum of electronic and thermal Energies=              -701.131254
 Sum of electronic and thermal Enthalpies=            -701.130309
 Sum of electronic and thermal Free Energies=         -701.208402

                     E (Thermal)             CV                S
                      KCal/Mol        Cal/Mol-Kelvin    Cal/Mol-Kelvin
 Total                  314.044             83.280            164.360
 Electronic               0.000              0.000              0.000
 Translational            0.889              2.981             42.356
 Rotational               0.889              2.981             34.487
 Vibrational            312.266             77.318             87.517
 Vibration     1          0.593              1.986              6.827
 Vibration     2          0.593              1.984              5.941
 Vibration     3          0.594              1.981              5.302
 Vibration     4          0.595              1.980              5.059
 Vibration     5          0.596              1.976              4.693
 Vibration     6          0.596              1.975              4.554
 Vibration     7          0.598              1.968              4.113
 Vibration     8          0.602              1.957              3.668
 Vibration     9          0.606              1.942              3.286
 Vibration    10          0.610              1.928              3.028
 Vibration    11          0.612              1.923              2.939
 Vibration    12          0.615              1.912              2.785
 Vibration    13          0.621              1.892              2.560
 Vibration    14          0.624              1.885              2.483
 Vibration    15          0.629              1.867              2.332
 Vibration    16          0.643              1.822              2.023
 Vibration    17          0.647              1.811              1.961
 Vibration    18          0.654              1.788              1.846
 Vibration    19          0.666              1.754              1.693
 Vibration    20          0.668              1.748              1.668
 Vibration    21          0.675              1.726              1.589
 Vibration    22          0.682              1.704              1.511
 Vibration    23          0.691              1.678              1.429
 Vibration    24          0.710              1.622              1.277
 Vibration    25          0.724              1.584              1.185
 Vibration    26          0.747              1.520              1.053
 Vibration    27          0.769              1.461              0.947
 Vibration    28          0.781              1.430              0.897
 Vibration    29          0.784              1.424              0.888
 Vibration    30          0.798              1.387              0.832
 Vibration    31          0.837              1.294              0.709
 Vibration    32          0.854              1.252              0.661
 Vibration    33          0.890              1.172              0.576
 Vibration    34          0.924              1.100              0.507

 Optimization completed.
    -- Stationary point found.
 Normal termination of Gaussian 16 at Wed May 24 08:37:47 2023.
