 Gaussian 16, Revision A.03,
 Gaussian 16:  ES64L-G16RevA.03 25-Dec-2016

 -----------------------------
 # opt freq b3lyp/6-31g(2df,p)
 -----------------------------

 -------------------
 Title Card Required
 -------------------
 Symbolic Z-matrix:
 Charge =  0 Multiplicity = 1

 SCF Done:  E(RB3LYP) =  -756.174964051     A.U. after   12 cycles
 SCF Done:  E(RB3LYP) =  -756.185748357     A.U. after   11 cycles
 SCF Done:  E(RB3LYP) =  -756.189825758     A.U. after   10 cycles
 SCF Done:  E(RB3LYP) =  -756.192386794     A.U. after   11 cycles
 SCF Done:  E(RB3LYP) =  -756.194564293     A.U. after   10 cycles
 SCF Done:  E(RB3LYP) =  -756.195726252     A.U. after   10 cycles
 SCF Done:  E(RB3LYP) =  -756.195952314     A.U. after    9 cycles
 SCF Done:  E(RB3LYP) =  -756.196009267     A.U. after    9 cycles
 SCF Done:  E(RB3LYP) =  -756.196029075     A.U. after    9 cycles
 SCF Done:  E(RB3LYP) =  -756.196035153     A.U. after    8 cycles
 SCF Done:  E(RB3LYP) =  -756.196036979     A.U. after    8 cycles
 SCF Done:  E(RB3LYP) =  -756.196037708     A.U. after    7 cycles
 SCF Done:  E(RB3LYP) =  -756.196037799     A.U. after    6 cycles
 Optimization completed.
    -- Stationary point found.
 Normal termination of Gaussian 16 at Mon May 22 20:43:57 2023.

 ----------------------------------------------------------------------
 #N Geom=AllCheck Guess=TCheck SCRF=Check GenChk RB3LYP/6-31G(2df,p) Fr
 eq
 ----------------------------------------------------------------------

 Structure from the checkpoint file:  "CCCOCCCNCqCrCC1CCCCO1.chk"
 -------------------
 Title Card Required
 -------------------
 Charge =  0 Multiplicity = 1

                         Standard orientation:
 ---------------------------------------------------------------------
 Center     Atomic      Atomic             Coordinates (Angstroms)
 Number     Number       Type             X           Y           Z
 ---------------------------------------------------------------------
      1          6           0       -8.307219    0.790370    0.129570
      2          6           0       -6.913678    0.861595   -0.499157
      3          6           0       -5.854743    0.173390    0.351501
      4          8           0       -4.606186    0.283918   -0.296123
      5          6           0       -3.550191   -0.324728    0.413465
      6          6           0       -2.264439   -0.148081   -0.382757
      7          6           0       -1.047133   -0.748520    0.320055
      8          7           0        0.151068   -0.587546   -0.497129
      9          6           0        1.405668   -1.009892    0.138741
     10          6           0        1.508411   -2.540483    0.122357
     11          6           0        2.565213   -0.335503   -0.616091
     12          6           0        3.984367   -0.633869   -0.097160
     13          6           0        4.301178   -0.067885    1.299355
     14          6           0        4.517738    1.452336    1.270477
     15          6           0        5.564752    1.804950    0.206121
     16          6           0        5.169812    1.188457   -1.136590
     17          8           0        4.972735   -0.214496   -1.044058
     18          1           0       -9.048732    1.290822   -0.499750
     19          1           0       -8.327322    1.272925    1.113106
     20          1           0       -8.632615   -0.247241    0.263882
     21          1           0       -6.615576    1.905907   -0.647205
     22          1           0       -6.919052    0.395373   -1.491063
     23          1           0       -6.116236   -0.889215    0.502681
     24          1           0       -5.809565    0.634929    1.354271
     25          1           0       -3.760739   -1.397573    0.569916
     26          1           0       -3.450173    0.129129    1.415491
     27          1           0       -2.107649    0.925250   -0.552232
     28          1           0       -2.381341   -0.610561   -1.368236
     29          1           0       -1.219948   -1.818935    0.486090
     30          1           0       -0.936417   -0.295266    1.325544
     31          1           0        0.230515    0.391044   -0.756879
     32          1           0        1.432318   -0.678211    1.195104
     33          1           0        1.566411   -2.905843   -0.907885
     34          1           0        0.635650   -3.000193    0.594107
     35          1           0        2.388875   -2.889654    0.669312
     36          1           0        2.386799    0.747455   -0.607991
     37          1           0        2.525657   -0.650851   -1.665302
     38          1           0        4.112336   -1.720288   -0.067830
     39          1           0        5.220817   -0.548610    1.654528
     40          1           0        3.508820   -0.338718    2.005209
     41          1           0        4.831286    1.807093    2.258054
     42          1           0        3.575074    1.967073    1.042736
     43          1           0        6.542463    1.407039    0.505640
     44          1           0        5.672488    2.890354    0.097410
     45          1           0        5.960000    1.322789   -1.881694
     46          1           0        4.267581    1.688586   -1.524976
 ---------------------------------------------------------------------

 SCF Done:  E(RB3LYP) =  -756.196037799     A.U. after    1 cycles

 The electronic state is 1-A.
 Alpha  occ. eigenvalues --  -19.13294 -19.12737 -14.30653 -10.22492 -10.22352
 Alpha  occ. eigenvalues --  -10.22157 -10.21939 -10.20901 -10.20218 -10.18153
 Alpha  occ. eigenvalues --  -10.17754 -10.17747 -10.17729 -10.17668 -10.17515
 Alpha  occ. eigenvalues --  -10.17456 -10.16831  -1.02797  -1.01972  -0.90183
 Alpha  occ. eigenvalues --   -0.79950  -0.79097  -0.78093  -0.76003  -0.73240
 Alpha  occ. eigenvalues --   -0.69007  -0.67882  -0.63745  -0.63345  -0.61539
 Alpha  occ. eigenvalues --   -0.59201  -0.58118  -0.57294  -0.53113  -0.49659
 Alpha  occ. eigenvalues --   -0.49421  -0.48753  -0.48326  -0.46554  -0.45899
 Alpha  occ. eigenvalues --   -0.44892  -0.44470  -0.43794  -0.42893  -0.41866
 Alpha  occ. eigenvalues --   -0.41560  -0.40484  -0.39707  -0.38515  -0.38395
 Alpha  occ. eigenvalues --   -0.37619  -0.37020  -0.36596  -0.35934  -0.35178
 Alpha  occ. eigenvalues --   -0.34438  -0.34190  -0.33391  -0.33067  -0.32659
 Alpha  occ. eigenvalues --   -0.32539  -0.32106  -0.31484  -0.30926  -0.27927
 Alpha  occ. eigenvalues --   -0.25045  -0.24136  -0.21875
 Alpha virt. eigenvalues --    0.07334   0.09006   0.09191   0.09802   0.10007
 Alpha virt. eigenvalues --    0.11191   0.11325   0.11632   0.13431   0.13506
 Alpha virt. eigenvalues --    0.13697   0.14125   0.14895   0.15408   0.15674

 Mulliken charges:
               1
     1  C   -0.382096
     2  C   -0.181826
     3  C   -0.029832
     4  O   -0.247299
     5  C   -0.050706
     6  C   -0.215803
     7  C   -0.131467
     8  N   -0.307042
     9  C    0.060186
    10  C   -0.377437
    11  C   -0.229152
    12  C    0.103584
    13  C   -0.211829
    14  C   -0.202480
    15  C   -0.192106
    16  C   -0.067991
    17  O   -0.267833
    18  H    0.116793
    19  H    0.115358
    20  H    0.115816
    21  H    0.105449
    22  H    0.106575
    23  H    0.080462
    24  H    0.079489
    25  H    0.083248
    26  H    0.081252
    27  H    0.099076
    28  H    0.117796
    29  H    0.104376
    30  H    0.071868
    31  H    0.207634
    32  H    0.052657
    33  H    0.122282
    34  H    0.112250
    35  H    0.114225
    36  H    0.083997
    37  H    0.114055
    38  H    0.081879
    39  H    0.099149
    40  H    0.097341
    41  H    0.094159
    42  H    0.095385
    43  H    0.100977
    44  H    0.090117
    45  H    0.103091
    46  H    0.084372
 Sum of Mulliken charges =  -0.00000

 Dipole moment (field-independent basis, Debye):
    X=             -0.6535    Y=              0.9347    Z=              2.0050  Tot=              2.3067
 Quadrupole moment (field-independent basis, Debye-Ang):
   XX=           -107.4180   YY=           -106.0899   ZZ=           -110.3333
   XY=              5.9615   XZ=              1.0551   YZ=             -2.1417

  Exact polarizability: 213.060   3.919 152.946  -0.986  -2.812 145.014
 Approx polarizability: 235.369   0.377 226.604  -1.437  -3.983 222.995

                      1                      2                      3
                      A                      A                      A
 Frequencies --     15.4960                21.6699                30.6225
 Red. masses --      3.3388                 2.3669                 2.7006
 Frc consts  --      0.0005                 0.0007                 0.0015
 IR Inten    --      0.2190                 0.4174                 0.3716

                      4                      5                      6
                      A                      A                      A
 Frequencies --     42.7249                46.7338                79.5616
 Red. masses --      3.4742                 2.9253                 2.6833
 Frc consts  --      0.0037                 0.0038                 0.0100
 IR Inten    --      0.0256                 0.2103                 0.0791

                      7                      8                      9
                      A                      A                      A
 Frequencies --     82.7926                93.9249               126.0333
 Red. masses --      1.9986                 3.0244                 2.7599
 Frc consts  --      0.0081                 0.0157                 0.0258
 IR Inten    --      0.7872                 0.1004                 0.1873

                     10                     11                     12
                      A                      A                      A
 Frequencies --    139.6421               145.6324               162.2823
 Red. masses --      1.9472                 2.7412                 2.6740
 Frc consts  --      0.0224                 0.0343                 0.0415
 IR Inten    --      1.0557                 0.5611                 3.6766

                     13                     14                     15
                      A                      A                      A
 Frequencies --    167.0737               176.8969               227.6867
 Red. masses --      2.8965                 3.9522                 2.6282
 Frc consts  --      0.0476                 0.0729                 0.0803
 IR Inten    --      0.5568                 0.2108                 1.5633

                     16                     17                     18
                      A                      A                      A
 Frequencies --    234.8360               245.1905               261.8918
 Red. masses --      1.1262                 1.3085                 2.5762
 Frc consts  --      0.0366                 0.0463                 0.1041
 IR Inten    --      0.1017                 0.6539                 0.3558

                     19                     20                     21
                      A                      A                      A
 Frequencies --    304.5878               356.8685               359.5276
 Red. masses --      2.5006                 2.5285                 2.3286
 Frc consts  --      0.1367                 0.1897                 0.1773
 IR Inten    --      0.9819                 1.0312                 0.8724

                     22                     23                     24
                      A                      A                      A
 Frequencies --    373.5538               427.6033               442.0404
 Red. masses --      2.9617                 2.4721                 3.2864
 Frc consts  --      0.2435                 0.2663                 0.3783
 IR Inten    --      5.8477                 1.1473                 1.9375

                     25                     26                     27
                      A                      A                      A
 Frequencies --    450.1237               487.2936               512.1540
 Red. masses --      2.7971                 3.1872                 3.0068
 Frc consts  --      0.3339                 0.4459                 0.4647
 IR Inten    --      7.5517                 4.6931                 3.8590

                     28                     29                     30
                      A                      A                      A
 Frequencies --    534.3844               558.6361               637.8366
 Red. masses --      2.6963                 2.5782                 2.0340
 Frc consts  --      0.4537                 0.4741                 0.4876
 IR Inten    --      4.2073                 3.0284                 3.2915

                     31                     32                     33
                      A                      A                      A
 Frequencies --    762.4707               765.1280               775.7720
 Red. masses --      1.3422                 1.0784                 1.1460
 Frc consts  --      0.4597                 0.3720                 0.4064
 IR Inten    --     47.2577                 1.5563                 2.2239

                     34                     35                     36
                      A                      A                      A
 Frequencies --    791.8778               824.7566               844.0992
 Red. masses --      2.4483                 1.5608                 2.5492
 Frc consts  --      0.9045                 0.6255                 1.0701
 IR Inten    --      2.8313                 1.4177                 0.7025

                     37                     38                     39
                      A                      A                      A
 Frequencies --    861.1230               881.7412               890.3681
 Red. masses --      2.4843                 2.4895                 1.2093
 Frc consts  --      1.0854                 1.1404                 0.5649
 IR Inten    --      4.8278                14.8830                 2.1133

                     40                     41                     42
                      A                      A                      A
 Frequencies --    898.0737               904.1619               909.7972
 Red. masses --      1.6252                 1.1484                 1.6764
 Frc consts  --      0.7723                 0.5532                 0.8175
 IR Inten    --      1.1963                 1.1545                 3.2409

                     43                     44                     45
                      A                      A                      A
 Frequencies --    929.8545               965.5775               982.4964
 Red. masses --      1.4557                 1.8951                 2.0636
 Frc consts  --      0.7416                 1.0410                 1.1737
 IR Inten    --      4.6308                 0.3331                 3.9971

                     46                     47                     48
                      A                      A                      A
 Frequencies --   1005.2138              1036.0570              1044.4466
 Red. masses --      5.1574                 1.7509                 2.2789
 Frc consts  --      3.0704                 1.1074                 1.4647
 IR Inten    --     18.6714                17.7570                13.8358

                     49                     50                     51
                      A                      A                      A
 Frequencies --   1050.2746              1057.2388              1063.2766
 Red. masses --      2.6433                 1.7663                 2.4155
 Frc consts  --      1.7179                 1.1632                 1.6090
 IR Inten    --      1.3515                 6.0467                 3.5591

                     52                     53                     54
                      A                      A                      A
 Frequencies --   1074.4393              1079.6934              1100.8630
 Red. masses --      2.9928                 1.7887                 2.2220
 Frc consts  --      2.0356                 1.2285                 1.5866
 IR Inten    --      4.4940                54.4908                 8.3324

                     55                     56                     57
                      A                      A                      A
 Frequencies --   1115.4058              1138.4292              1154.1645
 Red. masses --      2.8269                 2.1532                 2.7061
 Frc consts  --      2.0722                 1.6442                 2.1239
 IR Inten    --     50.7935                28.0782                55.5558

                     58                     59                     60
                      A                      A                      A
 Frequencies --   1159.6826              1165.7696              1176.6315
 Red. masses --      2.9608                 4.0877                 2.6834
 Frc consts  --      2.3460                 3.2730                 2.1888
 IR Inten    --    129.9259               152.3687                 6.5803

                     61                     62                     63
                      A                      A                      A
 Frequencies --   1184.5196              1198.5678              1206.4948
 Red. masses --      1.7990                 1.8416                 1.4506
 Frc consts  --      1.4872                 1.5587                 1.2441
 IR Inten    --      3.7424                12.5100                 5.5677

                     64                     65                     66
                      A                      A                      A
 Frequencies --   1224.7470              1231.3426              1247.6759
 Red. masses --      1.7262                 1.2941                 1.3492
 Frc consts  --      1.5256                 1.1560                 1.2375
 IR Inten    --     32.2702                 6.6023                 1.1330

                     67                     68                     69
                      A                      A                      A
 Frequencies --   1269.4729              1284.9298              1290.6480
 Red. masses --      1.2215                 1.2827                 1.2518
 Frc consts  --      1.1599                 1.2478                 1.2286
 IR Inten    --      2.0896                 0.8575                12.3576

                     70                     71                     72
                      A                      A                      A
 Frequencies --   1302.7725              1306.6152              1308.8000
 Red. masses --      1.1554                 1.1730                 1.0927
 Frc consts  --      1.1554                 1.1799                 1.1028
 IR Inten    --      7.9301                 4.7641                 8.3295

                     73                     74                     75
                      A                      A                      A
 Frequencies --   1313.6625              1314.4978              1333.6892
 Red. masses --      1.2475                 1.0868                 1.3732
 Frc consts  --      1.2684                 1.1064                 1.4391
 IR Inten    --      1.2678                 0.2492                11.3754

                     76                     77                     78
                      A                      A                      A
 Frequencies --   1353.8627              1361.9378              1369.2545
 Red. masses --      1.3221                 1.3001                 1.4288
 Frc consts  --      1.4278                 1.4208                 1.5783
 IR Inten    --      4.8343                 7.2896                 5.0259

                     79                     80                     81
                      A                      A                      A
 Frequencies --   1378.4952              1379.5873              1391.9305
 Red. masses --      1.4813                 1.3320                 1.3654
 Frc consts  --      1.6585                 1.4936                 1.5587
 IR Inten    --      1.0489                11.5394                 1.3030

                     82                     83                     84
                      A                      A                      A
 Frequencies --   1399.6336              1402.4808              1409.4362
 Red. masses --      1.3174                 1.3122                 1.3106
 Frc consts  --      1.5205                 1.5207                 1.5340
 IR Inten    --     22.0131                61.6881                 7.5428

                     85                     86                     87
                      A                      A                      A
 Frequencies --   1412.7604              1416.6463              1420.6608
 Red. masses --      1.2589                 1.3913                 1.3811
 Frc consts  --      1.4803                 1.6451                 1.6423
 IR Inten    --      2.5792                22.2521                 2.4627

                     88                     89                     90
                      A                      A                      A
 Frequencies --   1456.6011              1474.2914              1479.6806
 Red. masses --      1.5146                 1.0943                 1.0840
 Frc consts  --      1.8933                 1.4014                 1.3983
 IR Inten    --      2.9224                 0.5583                 1.5565

                     91                     92                     93
                      A                      A                      A
 Frequencies --   1486.3163              1489.4802              1491.8454
 Red. masses --      1.0846                 1.0836                 1.0560
 Frc consts  --      1.4116                 1.4163                 1.3847
 IR Inten    --      5.0108                 7.0082                 1.1455

                     94                     95                     96
                      A                      A                      A
 Frequencies --   1496.0050              1499.7667              1500.7481
 Red. masses --      1.0799                 1.0809                 1.0396
 Frc consts  --      1.4240                 1.4324                 1.3795
 IR Inten    --      1.8958                 3.4987                 5.1447

                     97                     98                     99
                      A                      A                      A
 Frequencies --   1505.3096              1506.7178              1508.6116
 Red. masses --      1.0671                 1.0831                 1.1249
 Frc consts  --      1.4247                 1.4487                 1.5084
 IR Inten    --      3.3077                 0.3104                 6.7369

                    100                    101                    102
                      A                      A                      A
 Frequencies --   1510.2331              1516.3475              1525.5324
 Red. masses --      1.1798                 1.0882                 1.0888
 Frc consts  --      1.5854                 1.4742                 1.4929
 IR Inten    --     13.4086                19.1632                 0.2559

                    103                    104                    105
                      A                      A                      A
 Frequencies --   1538.9687              2896.2867              2901.5265
 Red. masses --      1.0966                 1.0767                 1.0765
 Frc consts  --      1.5302                 5.3213                 5.3395
 IR Inten    --      0.8853                18.3466               105.7744

                    106                    107                    108
                      A                      A                      A
 Frequencies --   2932.8076              2946.2902              2961.3662
 Red. masses --      1.0536                 1.0544                 1.1036
 Frc consts  --      5.3395                 5.3930                 5.7024
 IR Inten    --     16.2449                88.6340                89.8561

                    109                    110                    111
                      A                      A                      A
 Frequencies --   2963.7158              2971.4106              3016.0265
 Red. masses --      1.1054                 1.0706                 1.0641
 Frc consts  --      5.7205                 5.5694                 5.7029
 IR Inten    --     14.5365                40.2771                17.0703

                    112                    113                    114
                      A                      A                      A
 Frequencies --   3024.2976              3025.2948              3025.4003
 Red. masses --      1.0633                 1.0663                 1.0615
 Frc consts  --      5.7302                 5.7498                 5.7242
 IR Inten    --     24.4359                14.7607                19.7605

                    115                    116                    117
                      A                      A                      A
 Frequencies --   3029.1891              3030.8544              3038.1939
 Red. masses --      1.0633                 1.0374                 1.0580
 Frc consts  --      5.7485                 5.6146                 5.7540
 IR Inten    --      8.8325                23.1695                18.3433

                    118                    119                    120
                      A                      A                      A
 Frequencies --   3038.5821              3044.0680              3056.4959
 Red. masses --      1.0569                 1.0580                 1.0845
 Frc consts  --      5.7492                 5.7764                 5.9693
 IR Inten    --     23.9287                30.7520                36.1619

                    121                    122                    123
                      A                      A                      A
 Frequencies --   3064.8103              3070.5820              3071.0188
 Red. masses --      1.0947                 1.1023                 1.0976
 Frc consts  --      6.0584                 6.1236                 6.0992
 IR Inten    --     48.5593                 4.3290                62.6317

                    124                    125                    126
                      A                      A                      A
 Frequencies --   3071.6684              3075.6312              3079.8104
 Red. masses --      1.0975                 1.0961                 1.1025
 Frc consts  --      6.1010                 6.1091                 6.1615
 IR Inten    --     36.5081                 3.7522                90.8499

                    127                    128                    129
                      A                      A                      A
 Frequencies --   3086.5038              3098.8258              3107.1945
 Red. masses --      1.0996                 1.1029                 1.1003
 Frc consts  --      6.1718                 6.2401                 6.2588
 IR Inten    --     34.3992                58.1268                32.6667

                    130                    131                    132
                      A                      A                      A
 Frequencies --   3111.9612              3115.2052              3503.3092
 Red. masses --      1.0998                 1.1017                 1.0734
 Frc consts  --      6.2753                 6.2990                 7.7620
 IR Inten    --     41.3054                23.7979                 0.7837

 - Thermochemistry -
 -------------------
 Temperature   298.150 Kelvin.  Pressure   1.00000 Atm.
 Atom     1 has atomic number  6 and mass  12.00000

 Molecular mass:   243.21983 amu.
 Principal axes and moments of inertia in atomic units:
                           1         2         3
     Eigenvalues --  1460.53156********************
           X            1.00000   0.00093   0.00092
           Y           -0.00091   0.99976  -0.02184
           Z           -0.00094   0.02184   0.99976
 This molecule is an asymmetric top.
 Rotational symmetry number  1.
 Warning -- assumption of classical behavior for rotation
           may cause significant error
 Rotational temperatures (Kelvin)      0.05930     0.00479     0.00466
 Rotational constants (GHZ):           1.23567     0.09985     0.09705
 Zero-point vibrational energy    1107826.3 (Joules/Mol)
                                  264.77683 (Kcal/Mol)
 Warning -- explicit consideration of  29 degrees of freedom as
           vibrations may cause significant error
 Vibrational temperatures:     22.30    31.18    44.06    61.47    67.24
          (Kelvin)            114.47   119.12   135.14   181.33   200.91
                              209.53   233.49   240.38   254.52   327.59
                              337.88   352.77   376.80   438.23   513.45
                              517.28   537.46   615.23   636.00   647.63
                              701.11   736.88   768.86   803.75   917.70
                             1097.03  1100.85  1116.16  1139.34  1186.64
                             1214.47  1238.96  1268.63  1281.04  1292.13
                             1300.89  1309.00  1337.85  1389.25  1413.59
                             1446.28  1490.66  1502.73  1511.11  1521.13
                             1529.82  1545.88  1553.44  1583.90  1604.82
                             1637.95  1660.59  1668.52  1677.28  1692.91
                             1704.26  1724.47  1735.88  1762.14  1771.63
                             1795.13  1826.49  1848.73  1856.95  1874.40
                             1879.93  1883.07  1890.07  1891.27  1918.88
                             1947.91  1959.52  1970.05  1983.35  1984.92
                             2002.68  2013.76  2017.86  2027.86  2032.65
                             2038.24  2044.01  2095.72  2121.18  2128.93
                             2138.48  2143.03  2146.43  2152.42  2157.83
                             2159.24  2165.80  2167.83  2170.56  2172.89
                             2181.69  2194.90  2214.23  4167.11  4174.65
                             4219.66  4239.05  4260.75  4264.13  4275.20
                             4339.39  4351.29  4352.72  4352.88  4358.33
                             4360.72  4371.28  4371.84  4379.73  4397.62
                             4409.58  4417.88  4418.51  4419.45  4425.15
                             4431.16  4440.79  4458.52  4470.56  4477.42
                             4482.09  5040.48

 Zero-point correction=                           0.421949 (Hartree/Particle)
 Thermal correction to Energy=                    0.442218
 Thermal correction to Enthalpy=                  0.443162
 Thermal correction to Gibbs Free Energy=         0.369462
 Sum of electronic and zero-point Energies=           -755.774089
 Sum of electronic and thermal Energies=              -755.753820
 Sum of electronic and thermal Enthalpies=            -755.752876
 Sum of electronic and thermal Free Energies=         -755.826576

                     E (Thermal)             CV                S
                      KCal/Mol        Cal/Mol-Kelvin    Cal/Mol-Kelvin
 Total                  277.496             74.101            155.114
 Electronic               0.000              0.000              0.000
 Translational            0.889              2.981             42.367
 Rotational               0.889              2.981             34.550
 Vibrational            275.718             68.139             78.197
 Vibration     1          0.593              1.986              7.141
 Vibration     2          0.593              1.985              6.475
 Vibration     3          0.594              1.984              5.789
 Vibration     4          0.595              1.980              5.129
 Vibration     5          0.595              1.979              4.951
 Vibration     6          0.600              1.963              3.902
 Vibration     7          0.600              1.961              3.824
 Vibration     8          0.603              1.954              3.577
 Vibration     9          0.611              1.927              3.006
 Vibration    10          0.615              1.914              2.809
 Vibration    11          0.617              1.907              2.729
 Vibration    12          0.622              1.889              2.523
 Vibration    13          0.624              1.883              2.468
 Vibration    14          0.628              1.871              2.361
 Vibration    15          0.651              1.799              1.897
 Vibration    16          0.655              1.788              1.842
 Vibration    17          0.660              1.771              1.765
 Vibration    18          0.669              1.743              1.649
 Vibration    19          0.696              1.665              1.392
 Vibration    20          0.732              1.561              1.136
 Vibration    21          0.734              1.556              1.124
 Vibration    22          0.745              1.526              1.065
 Vibration    23          0.789              1.410              0.867
 Vibration    24          0.802              1.378              0.820
 Vibration    25          0.809              1.361              0.795
 Vibration    26          0.843              1.278              0.691
 Vibration    27          0.867              1.223              0.628
 Vibration    28          0.889              1.174              0.577
 Vibration    29          0.914              1.121              0.527

                           ! Non-Optimized Parameters !
 Normal termination of Gaussian 16 at Tue May 23 01:05:47 2023.
