 Gaussian 16, Revision A.03,
 Gaussian 16:  ES64L-G16RevA.03 25-Dec-2016

 -----------------------------
 # opt freq b3lyp/6-31g(2df,p)
 -----------------------------

 -------------------
 Title Card Required
 -------------------
 Symbolic Z-matrix:
 Charge =  0 Multiplicity = 1

 SCF Done:  E(RB3LYP) =  -700.844862816     A.U. after   12 cycles
 SCF Done:  E(RB3LYP) =  -700.850452872     A.U. after   11 cycles
 SCF Done:  E(RB3LYP) =  -700.851407790     A.U. after   10 cycles
 SCF Done:  E(RB3LYP) =  -700.851539047     A.U. after    9 cycles
 SCF Done:  E(RB3LYP) =  -700.851614909     A.U. after    9 cycles
 SCF Done:  E(RB3LYP) =  -700.851632865     A.U. after    8 cycles
 SCF Done:  E(RB3LYP) =  -700.851645374     A.U. after    8 cycles
 SCF Done:  E(RB3LYP) =  -700.851654457     A.U. after    8 cycles
 SCF Done:  E(RB3LYP) =  -700.851664946     A.U. after    8 cycles
 SCF Done:  E(RB3LYP) =  -700.851682689     A.U. after    9 cycles
 SCF Done:  E(RB3LYP) =  -700.851686853     A.U. after    8 cycles
 SCF Done:  E(RB3LYP) =  -700.851690703     A.U. after    8 cycles
 SCF Done:  E(RB3LYP) =  -700.851691549     A.U. after    8 cycles
 SCF Done:  E(RB3LYP) =  -700.851691657     A.U. after    7 cycles
 SCF Done:  E(RB3LYP) =  -700.851691699     A.U. after    6 cycles
 SCF Done:  E(RB3LYP) =  -700.851691716     A.U. after    6 cycles
 SCF Done:  E(RB3LYP) =  -700.851691723     A.U. after    5 cycles
 Optimization completed.
    -- Stationary point found.
 Normal termination of Gaussian 16 at Mon May 22 11:02:17 2023.

 ----------------------------------------------------------------------
 #N Geom=AllCheck Guess=TCheck SCRF=Check GenChk RB3LYP/6-31G(2df,p) Fr
 eq
 ----------------------------------------------------------------------

 Structure from the checkpoint file:  "CCCOCCCCCCqCrC1CCCO1.chk"
 -------------------
 Title Card Required
 -------------------
 Charge =  0 Multiplicity = 1

                         Standard orientation:
 ---------------------------------------------------------------------
 Center     Atomic      Atomic             Coordinates (Angstroms)
 Number     Number       Type             X           Y           Z
 ---------------------------------------------------------------------
      1          6           0        8.123268   -0.599365   -0.100004
      2          6           0        6.842444    0.177526    0.213408
      3          6           0        5.585655   -0.586031   -0.182081
      4          8           0        4.456415    0.195357    0.138988
      5          6           0        3.232097   -0.424768   -0.189164
      6          6           0        2.089988    0.505058    0.197710
      7          6           0        0.710990   -0.082329   -0.117946
      8          6           0       -0.444935    0.847887    0.268640
      9          6           0       -1.822033    0.253810   -0.053485
     10          6           0       -3.014985    1.124883    0.385005
     11          6           0       -3.098251    2.431282   -0.421007
     12          6           0       -4.357289    0.376119    0.292511
     13          6           0       -4.568804   -0.813621    1.240030
     14          6           0       -5.578112   -1.666847    0.458825
     15          6           0       -5.120594   -1.444992   -0.988904
     16          8           0       -4.533166   -0.146024   -1.033203
     17          1           0        9.010402   -0.030438    0.192825
     18          1           0        8.207260   -0.816437   -1.170721
     19          1           0        8.151594   -1.555684    0.434111
     20          1           0        6.843149    1.140245   -0.310550
     21          1           0        6.787720    0.405576    1.284104
     22          1           0        5.545161   -1.555783    0.345873
     23          1           0        5.600873   -0.814191   -1.263012
     24          1           0        3.137437   -1.389860    0.339961
     25          1           0        3.194014   -0.650242   -1.269834
     26          1           0        2.223366    1.458349   -0.328293
     27          1           0        2.169276    0.727319    1.269019
     28          1           0        0.593318   -1.042828    0.403319
     29          1           0        0.646045   -0.311478   -1.190752
     30          1           0       -0.314271    1.806767   -0.247705
     31          1           0       -0.384460    1.071106    1.343318
     32          1           0       -1.886946   -0.729267    0.429605
     33          1           0       -1.903743    0.065050   -1.130223
     34          1           0       -2.883660    1.384389    1.446573
     35          1           0       -3.267209    2.213547   -1.480419
     36          1           0       -2.184095    3.024530   -0.334430
     37          1           0       -3.928827    3.053813   -0.071358
     38          1           0       -5.159364    1.110876    0.478688
     39          1           0       -4.934529   -0.496849    2.219973
     40          1           0       -3.637327   -1.368242    1.392351
     41          1           0       -6.593364   -1.281358    0.601360
     42          1           0       -5.575903   -2.721329    0.745615
     43          1           0       -5.945538   -1.488903   -1.709340
     44          1           0       -4.372999   -2.195013   -1.287562
 ---------------------------------------------------------------------

 SCF Done:  E(RB3LYP) =  -700.851691723     A.U. after    1 cycles

 The electronic state is 1-A.
 Alpha  occ. eigenvalues --  -19.12952 -19.12519 -10.22158 -10.22098 -10.21905
 Alpha  occ. eigenvalues --  -10.21872 -10.18397 -10.18100 -10.18019 -10.17556
 Alpha  occ. eigenvalues --  -10.17556 -10.17361 -10.17279 -10.17234 -10.16887
 Alpha  occ. eigenvalues --  -10.16342  -1.02447  -1.02115  -0.81038  -0.79089
 Alpha  occ. eigenvalues --   -0.77819  -0.77181  -0.73472  -0.70677  -0.67908
 Alpha  occ. eigenvalues --   -0.64600  -0.61246  -0.59240  -0.58854  -0.58379
 Alpha  occ. eigenvalues --   -0.57158  -0.53683  -0.49628  -0.48783  -0.48382
 Alpha  occ. eigenvalues --   -0.47949  -0.46787  -0.44756  -0.43797  -0.43327
 Alpha  occ. eigenvalues --   -0.42042  -0.41881  -0.40745  -0.39632  -0.39535
 Alpha  occ. eigenvalues --   -0.38918  -0.37531  -0.37084  -0.36018  -0.35298
 Alpha  occ. eigenvalues --   -0.35004  -0.34370  -0.33938  -0.33124  -0.32996
 Alpha  occ. eigenvalues --   -0.32741  -0.32245  -0.31777  -0.31005  -0.30719
 Alpha  occ. eigenvalues --   -0.30054  -0.29605  -0.24676  -0.23694
 Alpha virt. eigenvalues --    0.08238   0.09144   0.09738   0.10120   0.10411
 Alpha virt. eigenvalues --    0.11065   0.11614   0.13014   0.13650   0.13730
 Alpha virt. eigenvalues --    0.14310   0.14768   0.15396   0.15540   0.16114

 Mulliken charges:
               1
     1  C   -0.381883
     2  C   -0.181449
     3  C   -0.028587
     4  O   -0.247884
     5  C   -0.052250
     6  C   -0.198780
     7  C   -0.183373
     8  C   -0.191010
     9  C   -0.181985
    10  C   -0.001259
    11  C   -0.402515
    12  C    0.152761
    13  C   -0.255096
    14  C   -0.230274
    15  C   -0.057113
    16  O   -0.280139
    17  H    0.116077
    18  H    0.115382
    19  H    0.115145
    20  H    0.105538
    21  H    0.105221
    22  H    0.078785
    23  H    0.079256
    24  H    0.079394
    25  H    0.080445
    26  H    0.103164
    27  H    0.102040
    28  H    0.090728
    29  H    0.094423
    30  H    0.098417
    31  H    0.089309
    32  H    0.084308
    33  H    0.107805
    34  H    0.064509
    35  H    0.131264
    36  H    0.111040
    37  H    0.105888
    38  H    0.057990
    39  H    0.100757
    40  H    0.105436
    41  H    0.106286
    42  H    0.101256
    43  H    0.099597
    44  H    0.091379
 Sum of Mulliken charges =  -0.00000

 Dipole moment (field-independent basis, Debye):
    X=             -0.5118    Y=             -1.4692    Z=              0.8120  Tot=              1.7549
 Quadrupole moment (field-independent basis, Debye-Ang):
   XX=            -96.6690   YY=           -101.0872   ZZ=           -102.8097
   XY=              0.6543   XZ=             -6.6597   YZ=              0.3582

  Exact polarizability: 202.093   2.839 148.892  -0.297   2.065 136.416
 Approx polarizability: 219.414   1.031 216.799   0.135   2.546 213.154

                      1                      2                      3
                      A                      A                      A
 Frequencies --     17.9110                25.2971                26.5373
 Red. masses --      2.5169                 2.3201                 2.9247
 Frc consts  --      0.0005                 0.0009                 0.0012
 IR Inten    --      0.2105                 0.4323                 0.2325

                      4                      5                      6
                      A                      A                      A
 Frequencies --     42.6318                52.4946                66.3204
 Red. masses --      3.3153                 3.1971                 1.6915
 Frc consts  --      0.0036                 0.0052                 0.0044
 IR Inten    --      0.7019                 0.3114                 0.1723

                      7                      8                      9
                      A                      A                      A
 Frequencies --     86.7121               100.1908               110.4078
 Red. masses --      3.7996                 3.4783                 2.5088
 Frc consts  --      0.0168                 0.0206                 0.0180
 IR Inten    --      1.7847                 0.3825                 0.4283

                     10                     11                     12
                      A                      A                      A
 Frequencies --    124.7539               147.8477               153.3473
 Red. masses --      2.0066                 2.6758                 2.9744
 Frc consts  --      0.0184                 0.0345                 0.0412
 IR Inten    --      0.8869                 0.0651                 0.5807

                     13                     14                     15
                      A                      A                      A
 Frequencies --    167.5648               182.2887               191.7888
 Red. masses --      2.5594                 1.9620                 2.7018
 Frc consts  --      0.0423                 0.0384                 0.0586
 IR Inten    --      2.8906                 0.7486                 0.5891

                     16                     17                     18
                      A                      A                      A
 Frequencies --    218.6008               234.3542               256.6834
 Red. masses --      1.6183                 1.1297                 1.9780
 Frc consts  --      0.0456                 0.0366                 0.0768
 IR Inten    --      0.9331                 0.1144                 2.1546

                     19                     20                     21
                      A                      A                      A
 Frequencies --    286.0091               337.5273               365.4280
 Red. masses --      2.6626                 2.7276                 3.4347
 Frc consts  --      0.1283                 0.1831                 0.2702
 IR Inten    --      0.5387                 0.3903                 0.2590

                     22                     23                     24
                      A                      A                      A
 Frequencies --    396.9790               456.0409               486.9135
 Red. masses --      3.2921                 2.6555                 3.0470
 Frc consts  --      0.3057                 0.3254                 0.4256
 IR Inten    --      0.9729                 0.6930                 0.4188

                     25                     26                     27
                      A                      A                      A
 Frequencies --    524.0553               576.4237               628.1548
 Red. masses --      3.5542                 1.9048                 2.9944
 Frc consts  --      0.5751                 0.3729                 0.6961
 IR Inten    --      4.9972                 0.6713                 0.2461

                     28                     29                     30
                      A                      A                      A
 Frequencies --    660.0169               734.4183               763.1984
 Red. masses --      3.0141                 1.0822                 1.1388
 Frc consts  --      0.7736                 0.3439                 0.3908
 IR Inten    --      1.5340                 3.2583                 0.2526

                     31                     32                     33
                      A                      A                      A
 Frequencies --    765.2028               808.8687               837.0479
 Red. masses --      1.0880                 2.8899                 1.2975
 Frc consts  --      0.3753                 1.1140                 0.5356
 IR Inten    --      1.3011                 4.1356                 1.1047

                     34                     35                     36
                      A                      A                      A
 Frequencies --    876.1991               884.0411               900.8834
 Red. masses --      1.9207                 1.8103                 1.1381
 Frc consts  --      0.8688                 0.8336                 0.5442
 IR Inten    --      6.0420                 5.4493                 1.0819

                     37                     38                     39
                      A                      A                      A
 Frequencies --    905.8517               909.3902               934.2025
 Red. masses --      1.7369                 1.6908                 2.4597
 Frc consts  --      0.8397                 0.8239                 1.2648
 IR Inten    --      4.9057                 2.1520                 4.1691

                     40                     41                     42
                      A                      A                      A
 Frequencies --    942.5154               943.3039               994.2754
 Red. masses --      1.9725                 1.3099                 3.4763
 Frc consts  --      1.0324                 0.6868                 2.0248
 IR Inten    --      8.2085                 3.9624                 4.0571

                     43                     44                     45
                      A                      A                      A
 Frequencies --   1005.4425              1019.0450              1024.3889
 Red. masses --      2.2771                 3.6496                 1.3192
 Frc consts  --      1.3563                 2.2330                 0.8156
 IR Inten    --     17.0687                 0.1891                 5.4017

                     46                     47                     48
                      A                      A                      A
 Frequencies --   1034.6302              1047.5022              1057.5388
 Red. masses --      2.1622                 1.9930                 2.6019
 Frc consts  --      1.3637                 1.2885                 1.7145
 IR Inten    --      3.7500                 1.1786                48.2031

                     49                     50                     51
                      A                      A                      A
 Frequencies --   1062.5564              1069.4991              1078.0549
 Red. masses --      2.6205                 2.2120                 2.6866
 Frc consts  --      1.7432                 1.4907                 1.8397
 IR Inten    --     17.9203                 0.3678                33.8516

                     52                     53                     54
                      A                      A                      A
 Frequencies --   1105.0041              1134.7405              1156.4047
 Red. masses --      3.1033                 2.6625                 2.7152
 Frc consts  --      2.2326                 2.0199                 2.1393
 IR Inten    --      4.6753                49.9292                34.3401

                     55                     56                     57
                      A                      A                      A
 Frequencies --   1162.8287              1168.2002              1183.6208
 Red. masses --      6.5366                 2.2364                 1.5733
 Frc consts  --      5.2075                 1.7982                 1.2987
 IR Inten    --    260.6545                 2.1254                 0.3579

                     58                     59                     60
                      A                      A                      A
 Frequencies --   1193.0329              1204.0005              1210.7071
 Red. masses --      1.4584                 1.7955                 1.4246
 Frc consts  --      1.2230                 1.5335                 1.2304
 IR Inten    --      3.4416                 7.3575                 4.9508

                     61                     62                     63
                      A                      A                      A
 Frequencies --   1221.4470              1241.5614              1256.8185
 Red. masses --      1.5587                 1.3066                 1.2178
 Frc consts  --      1.3702                 1.1866                 1.1333
 IR Inten    --      2.7329                 1.7260                 1.2672

                     64                     65                     66
                      A                      A                      A
 Frequencies --   1267.2390              1273.1045              1295.8922
 Red. masses --      1.2492                 1.2877                 1.3101
 Frc consts  --      1.1819                 1.2297                 1.2962
 IR Inten    --      0.4629                 2.3946                 4.0077

                     67                     68                     69
                      A                      A                      A
 Frequencies --   1304.3962              1311.6714              1314.1808
 Red. masses --      1.2558                 1.1504                 1.0869
 Frc consts  --      1.2589                 1.1661                 1.1060
 IR Inten    --      0.0233                 0.5894                 0.3690

                     70                     71                     72
                      A                      A                      A
 Frequencies --   1323.0584              1331.4762              1332.1969
 Red. masses --      1.1882                 1.3240                 1.1376
 Frc consts  --      1.2255                 1.3830                 1.1896
 IR Inten    --      1.0176                12.3267                 0.2592

                     73                     74                     75
                      A                      A                      A
 Frequencies --   1335.4046              1341.6540              1345.3157
 Red. masses --      1.2349                 1.3065                 1.3263
 Frc consts  --      1.2975                 1.3856                 1.4143
 IR Inten    --      2.2281                 2.4269                 6.8862

                     76                     77                     78
                      A                      A                      A
 Frequencies --   1366.1351              1384.9069              1398.6167
 Red. masses --      1.2834                 1.4203                 1.4958
 Frc consts  --      1.4113                 1.6050                 1.7240
 IR Inten    --      3.0403                 2.2774                 7.5051

                     79                     80                     81
                      A                      A                      A
 Frequencies --   1403.1868              1404.7722              1406.0369
 Red. masses --      1.3825                 1.4471                 1.4699
 Frc consts  --      1.6038                 1.6825                 1.7121
 IR Inten    --     22.2765                17.3891                14.9715

                     82                     83                     84
                      A                      A                      A
 Frequencies --   1413.1674              1414.3107              1455.6873
 Red. masses --      1.2418                 1.2924                 1.5072
 Frc consts  --      1.4611                 1.5231                 1.8817
 IR Inten    --      4.9421                12.6268                 1.8659

                     85                     86                     87
                      A                      A                      A
 Frequencies --   1482.0412              1485.8457              1487.2189
 Red. masses --      1.0742                 1.0793                 1.0876
 Frc consts  --      1.3901                 1.4039                 1.4173
 IR Inten    --      0.4042                 0.1557                 1.2449

                     88                     89                     90
                      A                      A                      A
 Frequencies --   1491.8384              1495.0733              1499.0181
 Red. masses --      1.0566                 1.0829                 1.0988
 Frc consts  --      1.3855                 1.4262                 1.4548
 IR Inten    --      1.4819                 0.6014                 5.3212

                     91                     92                     93
                      A                      A                      A
 Frequencies --   1500.5965              1501.0914              1504.0925
 Red. masses --      1.0396                 1.0577                 1.0671
 Frc consts  --      1.3793                 1.4041                 1.4223
 IR Inten    --      5.1044                 3.0629                 0.8793

                     94                     95                     96
                      A                      A                      A
 Frequencies --   1506.7464              1511.1883              1519.5028
 Red. masses --      1.0790                 1.0912                 1.0903
 Frc consts  --      1.4433                 1.4682                 1.4832
 IR Inten    --      0.3423                 5.6941                 7.6080

                     97                     98                     99
                      A                      A                      A
 Frequencies --   1532.2853              1538.0101              2931.1319
 Red. masses --      1.0938                 1.0973                 1.0534
 Frc consts  --      1.5131                 1.5294                 5.3325
 IR Inten    --      0.8678                 0.8036                17.3151

                    100                    101                    102
                      A                      A                      A
 Frequencies --   2942.8751              2944.7299              2959.6461
 Red. masses --      1.0832                 1.0543                 1.1037
 Frc consts  --      5.5269                 5.3863                 5.6964
 IR Inten    --     67.6762                77.5775                84.6696

                    103                    104                    105
                      A                      A                      A
 Frequencies --   2962.2072              2988.2960              2991.1035
 Red. masses --      1.1054                 1.0692                 1.0814
 Frc consts  --      5.7148                 5.6253                 5.7003
 IR Inten    --     17.6172                68.7429                12.4334

                    106                    107                    108
                      A                      A                      A
 Frequencies --   3001.5149              3008.0162              3023.1985
 Red. masses --      1.0585                 1.0637                 1.0672
 Frc consts  --      5.6183                 5.6708                 5.7469
 IR Inten    --      4.8789                23.3215                30.7465

                    109                    110                    111
                      A                      A                      A
 Frequencies --   3027.8584              3030.6172              3030.9596
 Red. masses --      1.0768                 1.0375                 1.0728
 Frc consts  --      5.8163                 5.6145                 5.8065
 IR Inten    --      5.9181                25.0222                45.2369

                    112                    113                    114
                      A                      A                      A
 Frequencies --   3035.8603              3037.9142              3041.5667
 Red. masses --      1.0385                 1.0579                 1.0785
 Frc consts  --      5.6392                 5.7522                 5.8787
 IR Inten    --     18.9491                33.6558                16.3534

                    115                    116                    117
                      A                      A                      A
 Frequencies --   3049.6676              3054.3925              3056.4594
 Red. masses --      1.0933                 1.0631                 1.0800
 Frc consts  --      5.9909                 5.8433                 5.9446
 IR Inten    --     14.5117                10.7743                69.8984

                    118                    119                    120
                      A                      A                      A
 Frequencies --   3070.1752              3070.4817              3078.0291
 Red. masses --      1.1024                 1.1026                 1.1032
 Frc consts  --      6.1222                 6.1244                 6.1582
 IR Inten    --      3.8928                 0.6881               114.7727

                    121                    122                    123
                      A                      A                      A
 Frequencies --   3098.5390              3099.7215              3100.4736
 Red. masses --      1.1029                 1.0993                 1.0996
 Frc consts  --      6.2388                 6.2232                 6.2280
 IR Inten    --     58.0732                 6.8115                46.3254

                    124                    125                    126
                      A                      A                      A
 Frequencies --   3106.6321              3110.3315              3115.7743
 Red. masses --      1.1003                 1.1052                 1.1013
 Frc consts  --      6.2567                 6.2995                 6.2991
 IR Inten    --     33.0974                49.5150                29.9475

 - Thermochemistry -
 -------------------
 Temperature   298.150 Kelvin.  Pressure   1.00000 Atm.
 Atom     1 has atomic number  6 and mass  12.00000

 Molecular mass:   228.20893 amu.
 Principal axes and moments of inertia in atomic units:
                           1         2         3
     Eigenvalues --  1182.95042********************
           X            0.99999  -0.00238  -0.00274
           Y            0.00238   1.00000  -0.00064
           Z            0.00274   0.00064   1.00000
 This molecule is an asymmetric top.
 Rotational symmetry number  1.
 Warning -- assumption of classical behavior for rotation
           may cause significant error
 Rotational temperatures (Kelvin)      0.07322     0.00513     0.00497
 Rotational constants (GHZ):           1.52563     0.10696     0.10359
 Zero-point vibrational energy    1059920.3 (Joules/Mol)
                                  253.32703 (Kcal/Mol)
 Warning -- explicit consideration of  26 degrees of freedom as
           vibrations may cause significant error
 Vibrational temperatures:     25.77    36.40    38.18    61.34    75.53
          (Kelvin)             95.42   124.76   144.15   158.85   179.49
                              212.72   220.63   241.09   262.27   275.94
                              314.52   337.18   369.31   411.50   485.63
                              525.77   571.16   656.14   700.56   754.00
                              829.35   903.77   949.62  1056.66  1098.07
                             1100.96  1163.78  1204.33  1260.66  1271.94
                             1296.17  1303.32  1308.41  1344.11  1356.07
                             1357.20  1430.54  1446.61  1466.18  1473.87
                             1488.60  1507.12  1521.56  1528.78  1538.77
                             1551.08  1589.85  1632.64  1663.81  1673.05
                             1680.78  1702.97  1716.51  1732.29  1741.94
                             1757.39  1786.33  1808.28  1823.27  1831.71
                             1864.50  1876.74  1887.20  1890.81  1903.59
                             1915.70  1916.73  1921.35  1930.34  1935.61
                             1965.56  1992.57  2012.30  2018.87  2021.15
                             2022.97  2033.23  2034.88  2094.41  2132.33
                             2137.80  2139.78  2146.42  2151.08  2156.75
                             2159.02  2159.74  2164.05  2167.87  2174.26
                             2186.23  2204.62  2212.85  4217.24  4234.14
                             4236.81  4258.27  4261.96  4299.49  4303.53
                             4318.51  4327.86  4349.71  4356.41  4360.38
                             4360.87  4367.93  4370.88  4376.14  4387.79
                             4394.59  4397.56  4417.30  4417.74  4428.60
                             4458.11  4459.81  4460.89  4469.75  4475.07
                             4482.90

 Zero-point correction=                           0.403702 (Hartree/Particle)
 Thermal correction to Energy=                    0.423418
 Thermal correction to Enthalpy=                  0.424363
 Thermal correction to Gibbs Free Energy=         0.351597
 Sum of electronic and zero-point Energies=           -700.447989
 Sum of electronic and thermal Energies=              -700.428273
 Sum of electronic and thermal Enthalpies=            -700.427329
 Sum of electronic and thermal Free Energies=         -700.500095

                     E (Thermal)             CV                S
                      KCal/Mol        Cal/Mol-Kelvin    Cal/Mol-Kelvin
 Total                  265.699             70.406            153.148
 Electronic               0.000              0.000              0.000
 Translational            0.889              2.981             42.177
 Rotational               0.889              2.981             34.208
 Vibrational            263.922             64.445             76.763
 Vibration     1          0.593              1.986              6.853
 Vibration     2          0.593              1.985              6.168
 Vibration     3          0.593              1.984              6.073
 Vibration     4          0.595              1.980              5.133
 Vibration     5          0.596              1.977              4.721
 Vibration     6          0.598              1.970              4.260
 Vibration     7          0.601              1.958              3.733
 Vibration     8          0.604              1.949              3.451
 Vibration     9          0.606              1.941              3.262
 Vibration    10          0.610              1.928              3.025
 Vibration    11          0.617              1.905              2.700
 Vibration    12          0.619              1.899              2.630
 Vibration    13          0.624              1.882              2.463
 Vibration    14          0.630              1.864              2.305
 Vibration    15          0.634              1.851              2.210
 Vibration    16          0.646              1.813              1.971
 Vibration    17          0.654              1.788              1.845
 Vibration    18          0.666              1.751              1.684
 Vibration    19          0.684              1.700              1.497
 Vibration    20          0.718              1.601              1.224
 Vibration    21          0.739              1.543              1.099
 Vibration    22          0.763              1.477              0.974
 Vibration    23          0.814              1.348              0.778
 Vibration    24          0.843              1.279              0.692
 Vibration    25          0.879              1.197              0.601
 Vibration    26          0.933              1.082              0.492

 Optimization completed.
    -- Stationary point found.
 Normal termination of Gaussian 16 at Mon May 22 14:47:45 2023.
