 Gaussian 16, Revision A.03,
 Gaussian 16:  ES64L-G16RevA.03 25-Dec-2016

 -----------------------------
 # opt freq b3lyp/6-31g(2df,p)
 -----------------------------

 -------------------
 Title Card Required
 -------------------
 Symbolic Z-matrix:
 Charge =  0 Multiplicity = 1

 SCF Done:  E(RB3LYP) =  -891.726296533     A.U. after   13 cycles
 SCF Done:  E(RB3LYP) =  -891.730772556     A.U. after   10 cycles
 SCF Done:  E(RB3LYP) =  -891.731383580     A.U. after    9 cycles
 SCF Done:  E(RB3LYP) =  -891.731427640     A.U. after    8 cycles
 SCF Done:  E(RB3LYP) =  -891.731429751     A.U. after    7 cycles
 SCF Done:  E(RB3LYP) =  -891.731430020     A.U. after    6 cycles
 Optimization completed.
    -- Stationary point found.
 Normal termination of Gaussian 16 at Sun May 21 15:49:46 2023.

 ----------------------------------------------------------------------
 #N Geom=AllCheck Guess=TCheck SCRF=Check GenChk RB3LYP/6-31G(2df,p) Fr
 eq
 ----------------------------------------------------------------------

 Structure from the checkpoint file:  "CCCOCCCCOCCCCCCOOCC.chk"
 -------------------
 Title Card Required
 -------------------
 Charge =  0 Multiplicity = 1

                         Standard orientation:
 ---------------------------------------------------------------------
 Center     Atomic      Atomic             Coordinates (Angstroms)
 Number     Number       Type             X           Y           Z
 ---------------------------------------------------------------------
      1          6           0      -11.030161   -0.451075    0.000002
      2          6           0       -9.716587    0.334293    0.000002
      3          6           0       -8.494409   -0.573949    0.000001
      4          8           0       -7.331666    0.225102    0.000001
      5          6           0       -6.136122   -0.523075    0.000000
      6          6           0       -4.956794    0.440429    0.000001
      7          6           0       -3.607626   -0.283027   -0.000001
      8          6           0       -2.428534    0.680655   -0.000000
      9          8           0       -1.232507   -0.067460   -0.000002
     10          6           0       -0.070036    0.732143   -0.000001
     11          6           0        1.150933   -0.177933   -0.000002
     12          6           0        2.470995    0.598762   -0.000002
     13          6           0        3.703795   -0.311799   -0.000002
     14          6           0        5.023575    0.467645   -0.000002
     15          6           0        6.237547   -0.454943   -0.000003
     16          8           0        7.382898    0.374439   -0.000002
     17          8           0        8.518863   -0.538345   -0.000004
     18          6           0        9.663683    0.293027    0.000007
     19          6           0       10.872547   -0.630672    0.000005
     20          1           0      -11.891493    0.223067    0.000002
     21          1           0      -11.111933   -1.093396    0.883909
     22          1           0      -11.111934   -1.093395   -0.883906
     23          1           0       -9.663585    0.987789    0.878358
     24          1           0       -9.663585    0.987791   -0.878353
     25          1           0       -8.507418   -1.233359   -0.886250
     26          1           0       -8.507418   -1.233360    0.886251
     27          1           0       -6.093640   -1.180630   -0.886317
     28          1           0       -6.093639   -1.180632    0.886316
     29          1           0       -5.040520    1.091143    0.879050
     30          1           0       -5.040521    1.091144   -0.879048
     31          1           0       -3.523863   -0.933720   -0.879062
     32          1           0       -3.523862   -0.933722    0.879058
     33          1           0       -2.470823    1.338094    0.886340
     34          1           0       -2.470824    1.338097   -0.886338
     35          1           0       -0.057579    1.391223    0.886266
     36          1           0       -0.057579    1.391225   -0.886267
     37          1           0        1.097989   -0.832161   -0.878842
     38          1           0        1.097990   -0.832162    0.878837
     39          1           0        2.509551    1.258891    0.877484
     40          1           0        2.509551    1.258892   -0.877486
     41          1           0        3.667248   -0.971246   -0.877596
     42          1           0        3.667248   -0.971247    0.877591
     43          1           0        5.073962    1.120453    0.879784
     44          1           0        5.073961    1.120455   -0.879787
     45          1           0        6.243143   -1.101262   -0.889575
     46          1           0        6.243143   -1.101263    0.889568
     47          1           0        9.655372    0.938585    0.889292
     48          1           0        9.655379    0.938598   -0.889268
     49          1           0       10.873640   -1.270038    0.887113
     50          1           0       11.790869   -0.036611    0.000013
     51          1           0       10.873647   -1.270025   -0.887112
 ---------------------------------------------------------------------

 SCF Done:  E(RB3LYP) =  -891.731430020     A.U. after    1 cycles

 The electronic state is 1-A.
 Alpha  occ. eigenvalues --  -19.17859 -19.17852 -19.13315 -19.13218 -10.22553
 Alpha  occ. eigenvalues --  -10.22282 -10.22268 -10.22249 -10.22233 -10.22100
 Alpha  occ. eigenvalues --  -10.18339 -10.18273 -10.18204 -10.18017 -10.17887
 Alpha  occ. eigenvalues --  -10.17858 -10.17712 -10.17710 -10.17480  -1.10383
 Alpha  occ. eigenvalues --   -1.02813  -1.02721  -0.92271  -0.80895  -0.79801
 Alpha  occ. eigenvalues --   -0.77726  -0.76259  -0.73820  -0.71843  -0.68693
 Alpha  occ. eigenvalues --   -0.65880  -0.62343  -0.60864  -0.60193  -0.59067
 Alpha  occ. eigenvalues --   -0.58472  -0.58084  -0.57458  -0.50831  -0.49641
 Alpha  occ. eigenvalues --   -0.49063  -0.48758  -0.48298  -0.48115  -0.47106
 Alpha  occ. eigenvalues --   -0.46043  -0.45409  -0.44434  -0.43991  -0.42742
 Alpha  occ. eigenvalues --   -0.42447  -0.40674  -0.40103  -0.39740  -0.38500
 Alpha  occ. eigenvalues --   -0.38439  -0.38028  -0.36982  -0.36676  -0.36137
 Alpha  occ. eigenvalues --   -0.35862  -0.35225  -0.35021  -0.33867  -0.33449
 Alpha  occ. eigenvalues --   -0.33375  -0.33121  -0.32556  -0.32546  -0.32310
 Alpha  occ. eigenvalues --   -0.31414  -0.30815  -0.30784  -0.30627  -0.25077
 Alpha  occ. eigenvalues --   -0.24884  -0.22462
 Alpha virt. eigenvalues --    0.03756   0.08545   0.09015   0.09421   0.09882
 Alpha virt. eigenvalues --    0.10479   0.11025   0.11418   0.11550   0.12505
 Alpha virt. eigenvalues --    0.12711   0.13397   0.14159   0.14244   0.15247

 Mulliken charges:
               1
     1  C   -0.382044
     2  C   -0.181730
     3  C   -0.029566
     4  O   -0.248474
     5  C   -0.052397
     6  C   -0.200627
     7  C   -0.200906
     8  C   -0.051844
     9  O   -0.249052
    10  C   -0.052073
    11  C   -0.200073
    12  C   -0.182896
    13  C   -0.182416
    14  C   -0.213627
    15  C   -0.012922
    16  O   -0.198980
    17  O   -0.188992
    18  C    0.005112
    19  C   -0.396173
    20  H    0.116533
    21  H    0.115688
    22  H    0.115688
    23  H    0.105583
    24  H    0.105583
    25  H    0.080178
    26  H    0.080178
    27  H    0.082578
    28  H    0.082578
    29  H    0.105399
    30  H    0.105399
    31  H    0.105410
    32  H    0.105409
    33  H    0.082907
    34  H    0.082907
    35  H    0.081560
    36  H    0.081560
    37  H    0.104184
    38  H    0.104184
    39  H    0.096097
    40  H    0.096097
    41  H    0.098819
    42  H    0.098819
    43  H    0.107785
    44  H    0.107785
    45  H    0.095933
    46  H    0.095933
    47  H    0.097499
    48  H    0.097499
    49  H    0.130549
    50  H    0.122813
    51  H    0.130549
 Sum of Mulliken charges =  -0.00000

 Dipole moment (field-independent basis, Debye):
    X=             -0.1349    Y=              0.0440    Z=              0.0000  Tot=              0.1419
 Quadrupole moment (field-independent basis, Debye-Ang):
   XX=           -109.0045   YY=           -121.3758   ZZ=           -118.5320
   XY=              6.1488   XZ=              0.0001   YZ=             -0.0000

  Exact polarizability: 273.884  -0.652 158.194   0.000   0.000 151.220
 Approx polarizability: 266.132  -2.948 243.402   0.000   0.000 235.447

 ******    1 imaginary frequencies (negative Signs) ******

                      1                      2                      3
                      A                      A                      A
 Frequencies --    -22.1289                 9.7814                15.7253
 Red. masses --      2.4678                 4.0486                 4.4139
 Frc consts  --      0.0007                 0.0002                 0.0006
 IR Inten    --      3.3451                 0.0059                 0.0173

                      4                      5                      6
                      A                      A                      A
 Frequencies --     25.0139                30.6877                42.7789
 Red. masses --      2.8623                 2.1393                 4.0856
 Frc consts  --      0.0011                 0.0012                 0.0044
 IR Inten    --      0.2337                 0.0485                 0.0631

                      7                      8                      9
                      A                      A                      A
 Frequencies --     42.8241                61.1477                69.0401
 Red. masses --      2.6064                 3.0479                 1.7989
 Frc consts  --      0.0028                 0.0067                 0.0051
 IR Inten    --      0.1702                 1.7175                 0.9793

                     10                     11                     12
                      A                      A                      A
 Frequencies --     80.3543                90.0654                95.1443
 Red. masses --      4.3181                 2.9712                 1.7940
 Frc consts  --      0.0164                 0.0142                 0.0096
 IR Inten    --      0.3349                 1.1494                 0.6545

                     13                     14                     15
                      A                      A                      A
 Frequencies --    119.3476               123.2079               128.7662
 Red. masses --      2.9619                 4.9578                 2.0924
 Frc consts  --      0.0249                 0.0443                 0.0204
 IR Inten    --      0.0002                 0.2232                 1.8053

                     16                     17                     18
                      A                      A                      A
 Frequencies --    131.3815               144.4009               147.3958
 Red. masses --      4.3053                 3.0322                 1.9771
 Frc consts  --      0.0438                 0.0373                 0.0253
 IR Inten    --      0.4382                 0.5226                 0.0850

                     19                     20                     21
                      A                      A                      A
 Frequencies --    157.9963               167.0271               176.6194
 Red. masses --      3.3714                 2.5511                 2.6143
 Frc consts  --      0.0496                 0.0419                 0.0480
 IR Inten    --      2.4020                 2.8971                 0.5742

                     22                     23                     24
                      A                      A                      A
 Frequencies --    185.9820               232.0659               234.5738
 Red. masses --      3.7496                 1.1222                 1.1296
 Frc consts  --      0.0764                 0.0356                 0.0366
 IR Inten    --      1.2564                 0.3459                 0.0997

                     25                     26                     27
                      A                      A                      A
 Frequencies --    239.3660               252.8819               309.8077
 Red. masses --      4.1789                 3.9204                 3.3111
 Frc consts  --      0.1411                 0.1477                 0.1872
 IR Inten    --      0.3889                 0.1184                 0.1709

                     28                     29                     30
                      A                      A                      A
 Frequencies --    365.7428               373.0671               447.9871
 Red. masses --      3.8443                 3.4927                 3.4318
 Frc consts  --      0.3030                 0.2864                 0.4058
 IR Inten    --      0.5463                 0.2156                 4.9657

                     31                     32                     33
                      A                      A                      A
 Frequencies --    454.6829               497.9191               511.9798
 Red. masses --      4.4922                 3.2725                 4.2583
 Frc consts  --      0.5472                 0.4780                 0.6576
 IR Inten    --      0.0155                 5.3432                 0.6393

                     34                     35                     36
                      A                      A                      A
 Frequencies --    543.8616               557.0669               737.7028
 Red. masses --      3.3508                 3.5644                 1.0658
 Frc consts  --      0.5839                 0.6517                 0.3417
 IR Inten    --      3.9705                13.4909                 3.3743

                     37                     38                     39
                      A                      A                      A
 Frequencies --    754.6629               761.3081               765.2042
 Red. masses --      1.0718                 1.0961                 1.0785
 Frc consts  --      0.3596                 0.3743                 0.3721
 IR Inten    --      1.3364                 0.0017                 1.5382

                     40                     41                     42
                      A                      A                      A
 Frequencies --    812.6309               818.3337               825.1339
 Red. masses --      1.1411                 1.1427                 1.0745
 Frc consts  --      0.4440                 0.4509                 0.4310
 IR Inten    --      0.0044                 0.0006                 0.5026

                     43                     44                     45
                      A                      A                      A
 Frequencies --    895.1158               899.7055               901.1516
 Red. masses --      2.0336                 1.1793                 1.1331
 Frc consts  --      0.9600                 0.5625                 0.5422
 IR Inten    --      5.9489                 0.1115                 1.0481

                     46                     47                     48
                      A                      A                      A
 Frequencies --    909.3690               946.9998               957.7463
 Red. masses --      1.6862                 1.1600                 6.7297
 Frc consts  --      0.8216                 0.6129                 3.6370
 IR Inten    --      2.2524                 1.1266                 5.0462

                     49                     50                     51
                      A                      A                      A
 Frequencies --    991.9687              1005.0449              1005.2704
 Red. masses --      6.1231                 5.2431                 1.1398
 Frc consts  --      3.5499                 3.1204                 0.6787
 IR Inten    --      0.9878                23.7238                 0.6417

                     52                     53                     54
                      A                      A                      A
 Frequencies --   1014.6045              1035.1986              1043.1567
 Red. masses --      4.8209                 3.8148                 3.3196
 Frc consts  --      2.9239                 2.4087                 2.1283
 IR Inten    --      0.1655                 9.7416                 6.9600

                     55                     56                     57
                      A                      A                      A
 Frequencies --   1055.7651              1058.5183              1064.6611
 Red. masses --      3.0366                 2.9234                 2.3559
 Frc consts  --      1.9942                 1.9299                 1.5734
 IR Inten    --      4.2770                 6.6145                 3.3292

                     58                     59                     60
                      A                      A                      A
 Frequencies --   1066.3464              1070.5430              1076.5300
 Red. masses --      2.4726                 2.4383                 3.9512
 Frc consts  --      1.6566                 1.6465                 2.6979
 IR Inten    --     25.3453                15.5739                58.5733

                     61                     62                     63
                      A                      A                      A
 Frequencies --   1109.2212              1133.9651              1158.3507
 Red. masses --      3.5069                 3.4468                 5.9131
 Frc consts  --      2.5422                 2.6114                 4.6746
 IR Inten    --     32.6112                29.1670               469.6498

                     64                     65                     66
                      A                      A                      A
 Frequencies --   1162.6396              1165.7391              1177.0289
 Red. masses --      3.3302                 8.5929                 1.6089
 Frc consts  --      2.6522                 6.8801                 1.3133
 IR Inten    --    117.7715                 3.2835                 0.0728

                     67                     68                     69
                      A                      A                      A
 Frequencies --   1186.7238              1189.7425              1193.3625
 Red. masses --      2.9882                 1.5911                 1.5104
 Frc consts  --      2.4795                 1.3270                 1.2674
 IR Inten    --     17.4586                 0.0238                 5.0609

                     70                     71                     72
                      A                      A                      A
 Frequencies --   1200.1870              1213.8354              1230.7233
 Red. masses --      1.6949                 1.3739                 1.3334
 Frc consts  --      1.4384                 1.1927                 1.1900
 IR Inten    --      0.1923                 0.4865                11.9924

                     73                     74                     75
                      A                      A                      A
 Frequencies --   1249.8640              1254.4585              1269.2306
 Red. masses --      1.3647                 1.2772                 1.2186
 Frc consts  --      1.2560                 1.1842                 1.1566
 IR Inten    --      1.6038                 1.0986                 2.7170

                     76                     77                     78
                      A                      A                      A
 Frequencies --   1269.4922              1269.8902              1286.3422
 Red. masses --      1.1182                 1.3391                 1.1888
 Frc consts  --      1.0618                 1.2723                 1.1590
 IR Inten    --      0.0894                 6.8001                 0.0603

                     79                     80                     81
                      A                      A                      A
 Frequencies --   1290.5793              1307.0534              1308.6770
 Red. masses --      1.1866                 1.3456                 1.0877
 Frc consts  --      1.1645                 1.3544                 1.0976
 IR Inten    --      0.0804                 0.1680                 0.2348

                     82                     83                     84
                      A                      A                      A
 Frequencies --   1311.9326              1314.4205              1317.7577
 Red. masses --      1.0516                 1.0830                 1.1213
 Frc consts  --      1.0664                 1.1024                 1.1472
 IR Inten    --      0.0268                 0.2382                 0.1680

                     85                     86                     87
                      A                      A                      A
 Frequencies --   1323.5595              1332.6644              1333.5389
 Red. masses --      1.1067                 1.3596                 1.0880
 Frc consts  --      1.1423                 1.4226                 1.1400
 IR Inten    --      0.4411                12.7715                 0.0092

                     88                     89                     90
                      A                      A                      A
 Frequencies --   1362.2745              1369.9841              1389.0093
 Red. masses --      1.3445                 1.4224                 1.2767
 Frc consts  --      1.4700                 1.5729                 1.4513
 IR Inten    --     10.8044                 8.2485                14.6951

                     91                     92                     93
                      A                      A                      A
 Frequencies --   1400.9108              1404.9534              1407.8065
 Red. masses --      1.4231                 1.4741                 1.4361
 Frc consts  --      1.6456                 1.7144                 1.6770
 IR Inten    --     33.5160                65.1352                24.6609

                     94                     95                     96
                      A                      A                      A
 Frequencies --   1409.6255              1413.7463              1417.1033
 Red. masses --      1.4869                 1.2522                 1.4702
 Frc consts  --      1.7408                 1.4746                 1.7396
 IR Inten    --     23.0067                 4.3604                 1.4991

                     97                     98                     99
                      A                      A                      A
 Frequencies --   1454.8176              1457.2734              1482.7595
 Red. masses --      1.5341                 1.4960                 1.0397
 Frc consts  --      1.9130                 1.8718                 1.3468
 IR Inten    --      0.2200                 4.1208                 4.3482

                    100                    101                    102
                      A                      A                      A
 Frequencies --   1485.8339              1488.4409              1491.0429
 Red. masses --      1.0716                 1.0813                 1.0744
 Frc consts  --      1.3938                 1.4114                 1.4073
 IR Inten    --      0.0761                 0.1648                 0.2051

                    103                    104                    105
                      A                      A                      A
 Frequencies --   1492.2089              1497.9373              1500.5958
 Red. masses --      1.0589                 1.0891                 1.0882
 Frc consts  --      1.3893                 1.4398                 1.4438
 IR Inten    --      1.0471                 0.0307                 1.9107

                    106                    107                    108
                      A                      A                      A
 Frequencies --   1500.6840              1502.3341              1507.0401
 Red. masses --      1.0396                 1.0445                 1.0811
 Frc consts  --      1.3794                 1.3889                 1.4467
 IR Inten    --      5.1404                 3.3081                 1.7436

                    109                    110                    111
                      A                      A                      A
 Frequencies --   1509.9163              1517.1801              1520.9305
 Red. masses --      1.0940                 1.0886                 1.0909
 Frc consts  --      1.4695                 1.4763                 1.4868
 IR Inten    --      4.7327                 0.5339                12.6438

                    112                    113                    114
                      A                      A                      A
 Frequencies --   1531.3769              1537.1335              1537.4036
 Red. masses --      1.0869                 1.0904                 1.0953
 Frc consts  --      1.5018                 1.5180                 1.5253
 IR Inten    --     21.9407                 0.4993                 0.0723

                    115                    116                    117
                      A                      A                      A
 Frequencies --   1539.0461              2933.3080              2934.4464
 Red. masses --      1.0983                 1.0535                 1.0535
 Frc consts  --      1.5327                 5.3407                 5.3448
 IR Inten    --      1.4422                16.3834                18.2744

                    118                    119                    120
                      A                      A                      A
 Frequencies --   2946.8889              2947.7661              2961.7698
 Red. masses --      1.0542                 1.0544                 1.1040
 Frc consts  --      5.3939                 5.3979                 5.7061
 IR Inten    --    100.9493                53.7288                73.9258

                    121                    122                    123
                      A                      A                      A
 Frequencies --   2963.2243              2965.0692              2966.5458
 Red. masses --      1.1039                 1.1051                 1.1057
 Frc consts  --      5.7112                 5.7242                 5.7333
 IR Inten    --     85.5606                34.0626                 2.8495

                    124                    125                    126
                      A                      A                      A
 Frequencies --   2990.6575              2999.4994              3004.7705
 Red. masses --      1.0538                 1.0547                 1.0577
 Frc consts  --      5.5530                 5.5911                 5.6266
 IR Inten    --     46.1139                35.4439                 3.5074

                    127                    128                    129
                      A                      A                      A
 Frequencies --   3012.0359              3024.3802              3025.0587
 Red. masses --      1.0585                 1.1063                 1.0581
 Frc consts  --      5.6579                 5.9621                 5.7049
 IR Inten    --     22.8559                26.9471                 0.0260

                    130                    131                    132
                      A                      A                      A
 Frequencies --   3028.6915              3029.7513              3030.9399
 Red. masses --      1.0994                 1.0587                 1.0374
 Frc consts  --      5.9417                 5.7257                 5.6152
 IR Inten    --      0.0057                 4.7290                22.8135

                    133                    134                    135
                      A                      A                      A
 Frequencies --   3033.0297              3033.1215              3033.7052
 Red. masses --      1.0583                 1.1075                 1.0585
 Frc consts  --      5.7363                 6.0030                 5.7399
 IR Inten    --     52.2414                38.7771                79.6610

                    136                    137                    138
                      A                      A                      A
 Frequencies --   3037.9350              3047.0232              3047.4919
 Red. masses --      1.0577                 1.0344                 1.1037
 Frc consts  --      5.7516                 5.6584                 6.0392
 IR Inten    --     35.8797                18.8123                 3.5015

                    139                    140                    141
                      A                      A                      A
 Frequencies --   3057.0648              3070.3523              3073.4875
 Red. masses --      1.1024                 1.1024                 1.1054
 Frc consts  --      6.0702                 6.1229                 6.1522
 IR Inten    --      0.0006                 4.7980                 6.4023

                    142                    143                    144
                      A                      A                      A
 Frequencies --   3081.2237              3081.6227              3098.8634
 Red. masses --      1.1054                 1.1053                 1.1029
 Frc consts  --      6.1833                 6.1845                 6.2400
 IR Inten    --     54.1215               127.8894                58.3874

                    145                    146                    147
                      A                      A                      A
 Frequencies --   3107.0386              3122.4560              3123.9960
 Red. masses --      1.1003                 1.1014                 1.1029
 Frc consts  --      6.2584                 6.3268                 6.3419
 IR Inten    --     32.8395                21.8202                27.0727

 - Thermochemistry -
 -------------------
 Temperature   298.150 Kelvin.  Pressure   1.00000 Atm.
 Atom     1 has atomic number  6 and mass  12.00000

 Molecular mass:   276.23006 amu.
 Principal axes and moments of inertia in atomic units:
                           1         2         3
     Eigenvalues --   402.98656********************
           X            1.00000   0.00094   0.00000
           Y           -0.00094   1.00000  -0.00000
           Z           -0.00000   0.00000   1.00000
 This molecule is an asymmetric top.
 Rotational symmetry number  1.
 Rotational temperatures (Kelvin)      0.21493     0.00193     0.00192
 Rotational constants (GHZ):           4.47842     0.04023     0.04002
    1 imaginary frequencies ignored.
 Zero-point vibrational energy    1208479.1 (Joules/Mol)
                                  288.83344 (Kcal/Mol)
 Warning -- explicit consideration of  34 degrees of freedom as
           vibrations may cause significant error
 Vibrational temperatures:     14.07    22.63    35.99    44.15    61.55
          (Kelvin)             61.61    87.98    99.33   115.61   129.58
                              136.89   171.71   177.27   185.27   189.03
                              207.76   212.07   227.32   240.31   254.12
                              267.59   333.89   337.50   344.39   363.84
                              445.74   526.22   536.76   644.55   654.19
                              716.39   736.62   782.50   801.50  1061.39
                             1085.79  1095.35  1100.96  1169.19  1177.40
                             1187.18  1287.87  1294.48  1296.56  1308.38
                             1362.52  1377.98  1427.22  1446.04  1446.36
                             1459.79  1489.42  1500.87  1519.01  1522.97
                             1531.81  1534.23  1540.27  1548.89  1595.92
                             1631.52  1666.61  1672.78  1677.24  1693.48
                             1707.43  1711.77  1716.98  1726.80  1746.44
                             1770.74  1798.28  1804.89  1826.14  1826.52
                             1827.09  1850.76  1856.86  1880.56  1882.89
                             1887.58  1891.16  1895.96  1904.31  1917.41
                             1918.67  1960.01  1971.10  1998.47  2015.60
                             2021.41  2025.52  2028.14  2034.07  2038.90
                             2093.16  2096.69  2133.36  2137.78  2141.53
                             2145.28  2146.96  2155.20  2159.02  2159.15
                             2161.52  2168.29  2172.43  2182.88  2188.28
                             2203.31  2211.59  2211.98  2214.34  4220.38
                             4222.01  4239.92  4241.18  4261.33  4263.42
                             4266.07  4268.20  4302.89  4315.61  4323.19
                             4333.65  4351.41  4352.38  4357.61  4359.14
                             4360.85  4363.85  4363.99  4364.83  4370.91
                             4383.99  4384.66  4398.43  4417.55  4422.06
                             4433.19  4433.77  4458.57  4470.34  4492.52
                             4494.73

 Zero-point correction=                           0.460285 (Hartree/Particle)
 Thermal correction to Energy=                    0.485031
 Thermal correction to Enthalpy=                  0.485975
 Thermal correction to Gibbs Free Energy=         0.399767
 Sum of electronic and zero-point Energies=           -891.271145
 Sum of electronic and thermal Energies=              -891.246399
 Sum of electronic and thermal Enthalpies=            -891.245455
 Sum of electronic and thermal Free Energies=         -891.331663

                     E (Thermal)             CV                S
                      KCal/Mol        Cal/Mol-Kelvin    Cal/Mol-Kelvin
 Total                  304.361             84.983            181.440
 Electronic               0.000              0.000              0.000
 Translational            0.889              2.981             42.747
 Rotational               0.889              2.981             35.054
 Vibrational            302.584             79.022            103.640
 Vibration     1          0.593              1.987              8.055
 Vibration     2          0.593              1.986              7.112
 Vibration     3          0.593              1.985              6.190
 Vibration     4          0.594              1.984              5.784
 Vibration     5          0.595              1.980              5.126
 Vibration     6          0.595              1.980              5.124
 Vibration     7          0.597              1.973              4.420
 Vibration     8          0.598              1.969              4.181
 Vibration     9          0.600              1.962              3.882
 Vibration    10          0.602              1.956              3.659
 Vibration    11          0.603              1.953              3.551
 Vibration    12          0.609              1.933              3.111
 Vibration    13          0.610              1.930              3.049
 Vibration    14          0.611              1.924              2.964
 Vibration    15          0.612              1.922              2.926
 Vibration    16          0.616              1.909              2.745
 Vibration    17          0.617              1.906              2.706
 Vibration    18          0.621              1.894              2.574
 Vibration    19          0.624              1.883              2.469
 Vibration    20          0.628              1.871              2.364
 Vibration    21          0.632              1.859              2.268
 Vibration    22          0.653              1.792              1.863
 Vibration    23          0.654              1.788              1.844
 Vibration    24          0.657              1.780              1.808
 Vibration    25          0.664              1.758              1.710
 Vibration    26          0.699              1.655              1.363
 Vibration    27          0.739              1.543              1.098
 Vibration    28          0.744              1.527              1.067
 Vibration    29          0.807              1.365              0.802
 Vibration    30          0.813              1.351              0.782
 Vibration    31          0.853              1.255              0.663
 Vibration    32          0.867              1.223              0.629
 Vibration    33          0.899              1.153              0.557
 Vibration    34          0.913              1.124              0.530

 Optimization completed.
    -- Stationary point found.
 Normal termination of Gaussian 16 at Sun May 21 19:44:05 2023.
