 Gaussian 16, Revision A.03,
 Gaussian 16:  ES64L-G16RevA.03 25-Dec-2016

 -----------------------------
 # opt freq b3lyp/6-31g(2df,p)
 -----------------------------

 -------------------
 Title Card Required
 -------------------
 Symbolic Z-matrix:
 Charge =  0 Multiplicity = 1

 SCF Done:  E(RB3LYP) =  -841.536416782     A.U. after   14 cycles
 SCF Done:  E(RB3LYP) =  -841.563397202     A.U. after   13 cycles
 SCF Done:  E(RB3LYP) =  -841.572916631     A.U. after   14 cycles
 SCF Done:  E(RB3LYP) =  -841.577299819     A.U. after   12 cycles
 SCF Done:  E(RB3LYP) =  -841.578406500     A.U. after   11 cycles
 SCF Done:  E(RB3LYP) =  -841.578564071     A.U. after   11 cycles
 SCF Done:  E(RB3LYP) =  -841.578798276     A.U. after   11 cycles
 SCF Done:  E(RB3LYP) =  -841.578945732     A.U. after   11 cycles
 SCF Done:  E(RB3LYP) =  -841.578977246     A.U. after   10 cycles
 SCF Done:  E(RB3LYP) =  -841.578988669     A.U. after    9 cycles
 SCF Done:  E(RB3LYP) =  -841.578991298     A.U. after    8 cycles
 SCF Done:  E(RB3LYP) =  -841.578992958     A.U. after    9 cycles
 SCF Done:  E(RB3LYP) =  -841.578993376     A.U. after    7 cycles
 SCF Done:  E(RB3LYP) =  -841.578993507     A.U. after    7 cycles
 SCF Done:  E(RB3LYP) =  -841.578993564     A.U. after    6 cycles
 Optimization completed.
    -- Stationary point found.
 Normal termination of Gaussian 16 at Sat May 27 18:51:04 2023.

 ----------------------------------------------------------------------
 #N Geom=AllCheck Guess=TCheck SCRF=Check GenChk RB3LYP/6-31G(2df,p) Fr
 eq
 ----------------------------------------------------------------------

 Structure from the checkpoint file:  "CCCOCCCqdNrOC1dCqOrCqOCrC1N.chk"
 -------------------
 Title Card Required
 -------------------
 Charge =  0 Multiplicity = 1

                         Standard orientation:
 ---------------------------------------------------------------------
 Center     Atomic      Atomic             Coordinates (Angstroms)
 Number     Number       Type             X           Y           Z
 ---------------------------------------------------------------------
      1          6           0       -7.690082   -0.153207    0.031359
      2          6           0       -6.343110    0.178451   -0.615326
      3          6           0       -5.165393   -0.182069    0.279114
      4          8           0       -3.965701    0.153706   -0.389627
      5          6           0       -2.808885   -0.141882    0.354454
      6          6           0       -1.604489    0.256180   -0.487136
      7          6           0       -0.268508    0.022572    0.172921
      8          7           0        0.008108   -0.492885    1.295631
      9          8           0        0.717330    0.482115   -0.653791
     10          6           0        2.029919    0.275414   -0.289930
     11          6           0        2.954529    1.091803    0.226789
     12          8           0        3.046763    2.377658    0.604195
     13          6           0        4.020659    0.035948    0.273882
     14          8           0        5.172023    0.360173   -0.460540
     15          6           0        6.161822   -0.642362   -0.414165
     16          6           0        2.934040   -0.928430   -0.416364
     17          7           0        2.468920   -2.144851    0.214261
     18          1           0       -8.518898    0.114771   -0.629863
     19          1           0       -7.827048    0.391345    0.972155
     20          1           0       -7.774924   -1.222888    0.252558
     21          1           0       -6.286408    1.247333   -0.850793
     22          1           0       -6.234420   -0.356969   -1.565376
     23          1           0       -5.179491   -1.259839    0.518048
     24          1           0       -5.231168    0.359661    1.238970
     25          1           0       -2.769649   -1.217494    0.599053
     26          1           0       -2.810598    0.409172    1.311044
     27          1           0       -1.680284    1.315363   -0.756824
     28          1           0       -1.620779   -0.293741   -1.434699
     29          1           0       -0.832994   -0.784218    1.786876
     30          1           0        2.207051    2.816310    0.420467
     31          1           0        4.282864   -0.312761    1.285759
     32          1           0        7.027021   -0.271636   -0.968990
     33          1           0        5.822816   -1.581234   -0.878032
     34          1           0        6.470413   -0.860817    0.620477
     35          1           0        3.251265   -1.148886   -1.443831
     36          1           0        2.054391   -1.934039    1.116709
     37          1           0        3.225304   -2.809011    0.341564
 ---------------------------------------------------------------------

 SCF Done:  E(RB3LYP) =  -841.578993564     A.U. after    1 cycles

 The electronic state is 1-A.
 Alpha  occ. eigenvalues --  -19.18445 -19.17455 -19.14674 -19.13617 -14.30785
 Alpha  occ. eigenvalues --  -14.29603 -10.28386 -10.24107 -10.23132 -10.23000
 Alpha  occ. eigenvalues --  -10.22825 -10.22114 -10.21896 -10.20837 -10.20101
 Alpha  occ. eigenvalues --  -10.18470 -10.18074  -1.08640  -1.06147  -1.04200
 Alpha  occ. eigenvalues --   -1.02954  -0.89871  -0.88242  -0.81714  -0.79806
 Alpha  occ. eigenvalues --   -0.76726  -0.70621  -0.68655  -0.65719  -0.63208
 Alpha  occ. eigenvalues --   -0.61571  -0.59476  -0.57946  -0.56632  -0.52879
 Alpha  occ. eigenvalues --   -0.50920  -0.50498  -0.49969  -0.48555  -0.46824
 Alpha  occ. eigenvalues --   -0.46364  -0.45437  -0.44710  -0.44331  -0.43508
 Alpha  occ. eigenvalues --   -0.42275  -0.41288  -0.40263  -0.40112  -0.39113
 Alpha  occ. eigenvalues --   -0.37764  -0.37149  -0.36457  -0.36398  -0.35024
 Alpha  occ. eigenvalues --   -0.33982  -0.33843  -0.33322  -0.32244  -0.31684
 Alpha  occ. eigenvalues --   -0.27869  -0.27392  -0.26458  -0.26227  -0.21545
 Alpha  occ. eigenvalues --   -0.21096
 Alpha virt. eigenvalues --    0.01930   0.04060   0.06691   0.08102   0.09116
 Alpha virt. eigenvalues --    0.09189   0.10047   0.12319   0.12443   0.12762
 Alpha virt. eigenvalues --    0.14057   0.14807   0.14843   0.14916   0.15861

 Mulliken charges:
               1
     1  C   -0.382998
     2  C   -0.183698
     3  C   -0.035518
     4  O   -0.247967
     5  C   -0.078663
     6  C   -0.295477
     7  C    0.377715
     8  N   -0.518601
     9  O   -0.294120
    10  C    0.238218
    11  C    0.245266
    12  O   -0.435659
    13  C    0.023573
    14  O   -0.242290
    15  C   -0.234216
    16  C   -0.113295
    17  N   -0.523223
    18  H    0.119554
    19  H    0.117035
    20  H    0.117510
    21  H    0.107830
    22  H    0.108836
    23  H    0.085611
    24  H    0.084485
    25  H    0.095404
    26  H    0.092538
    27  H    0.136318
    28  H    0.146216
    29  H    0.230528
    30  H    0.304293
    31  H    0.069911
    32  H    0.128568
    33  H    0.104217
    34  H    0.104278
    35  H    0.087163
    36  H    0.241162
    37  H    0.219494
 Sum of Mulliken charges =  -0.00000

 Dipole moment (field-independent basis, Debye):
    X=             -2.4739    Y=             -0.6170    Z=              1.1540  Tot=              2.7987
 Quadrupole moment (field-independent basis, Debye-Ang):
   XX=            -90.6205   YY=            -99.2038   ZZ=           -102.8650
   XY=             -8.2195   XZ=             -2.0805   YZ=             -1.2198

  Exact polarizability: 203.660  -0.403 131.279  -0.583  -1.652 119.180
 Approx polarizability: 222.611   6.536 204.662   5.826  -4.087 198.769

                      1                      2                      3
                      A                      A                      A
 Frequencies --     16.9365                33.5145                34.4302
 Red. masses --      4.3312                 3.3555                 2.1117
 Frc consts  --      0.0007                 0.0022                 0.0015
 IR Inten    --      0.0482                 0.1029                 0.0703

                      4                      5                      6
                      A                      A                      A
 Frequencies --     51.1948                63.6001                69.6979
 Red. masses --      4.4902                 4.3326                 4.0841
 Frc consts  --      0.0069                 0.0103                 0.0117
 IR Inten    --      0.2144                 0.4474                 0.3105

                      7                      8                      9
                      A                      A                      A
 Frequencies --     84.0654                96.7988               128.1462
 Red. masses --      2.1052                 2.8934                 3.2295
 Frc consts  --      0.0088                 0.0160                 0.0312
 IR Inten    --      2.1366                 2.0620                 0.7600

                     10                     11                     12
                      A                      A                      A
 Frequencies --    133.6571               158.6733               165.4781
 Red. masses --      2.7957                 3.0103                 2.0023
 Frc consts  --      0.0294                 0.0447                 0.0323
 IR Inten    --      2.1803                 7.8530                 1.6186

                     13                     14                     15
                      A                      A                      A
 Frequencies --    175.7719               187.0765               218.1507
 Red. masses --      4.5427                 1.9231                 3.2242
 Frc consts  --      0.0827                 0.0397                 0.0904
 IR Inten    --      1.0892                 3.5071                 5.6162

                     16                     17                     18
                      A                      A                      A
 Frequencies --    234.9812               254.9295               257.2705
 Red. masses --      1.1283                 4.6907                 4.6768
 Frc consts  --      0.0367                 0.1796                 0.1824
 IR Inten    --      0.1242                 0.3127                17.8157

                     19                     20                     21
                      A                      A                      A
 Frequencies --    288.2963               323.2789               334.1919
 Red. masses --      3.8060                 3.6313                 1.1598
 Frc consts  --      0.1864                 0.2236                 0.0763
 IR Inten    --      1.6251                 0.9164                48.1880

                     22                     23                     24
                      A                      A                      A
 Frequencies --    383.2842               390.1165               455.7395
 Red. masses --      3.4944                 1.1742                 4.4196
 Frc consts  --      0.3025                 0.1053                 0.5408
 IR Inten    --      8.8706                94.6415                 8.2158

                     25                     26                     27
                      A                      A                      A
 Frequencies --    462.8829               479.8527               494.2826
 Red. masses --      3.5701                 4.0273                 4.1539
 Frc consts  --      0.4507                 0.5464                 0.5979
 IR Inten    --      3.3418                 6.3335                 8.5208

                     28                     29                     30
                      A                      A                      A
 Frequencies --    551.2551               582.9597               633.8292
 Red. masses --      2.6686                 4.8700                 7.1100
 Frc consts  --      0.4778                 0.9751                 1.6829
 IR Inten    --      5.8684                10.1657                 6.6393

                     31                     32                     33
                      A                      A                      A
 Frequencies --    697.0177               736.6295               765.6889
 Red. masses --      4.2372                 3.8515                 1.0785
 Frc consts  --      1.2129                 1.2313                 0.3725
 IR Inten    --      6.6002                 6.7100                 1.4273

                     34                     35                     36
                      A                      A                      A
 Frequencies --    802.1554               805.8105               835.2172
 Red. masses --      1.9992                 1.3934                 1.5042
 Frc consts  --      0.7579                 0.5331                 0.6183
 IR Inten    --     61.6553                20.6804                31.7351

                     37                     38                     39
                      A                      A                      A
 Frequencies --    845.1094               902.0010               910.0756
 Red. masses --      1.6332                 1.1273                 1.7293
 Frc consts  --      0.6872                 0.5404                 0.8439
 IR Inten    --     74.9886                 0.9152                 3.1905

                     40                     41                     42
                      A                      A                      A
 Frequencies --    929.0101               943.2853               980.8587
 Red. masses --      4.3625                 5.7748                 4.0638
 Frc consts  --      2.2183                 3.0274                 2.3036
 IR Inten    --     14.5868                10.6592                30.3943

                     43                     44                     45
                      A                      A                      A
 Frequencies --   1017.9982              1039.7834              1058.0176
 Red. masses --      4.0234                 3.2905                 2.5978
 Frc consts  --      2.4566                 2.0961                 1.7133
 IR Inten    --     19.2500                 4.7997                 5.9863

                     46                     47                     48
                      A                      A                      A
 Frequencies --   1060.7120              1085.6356              1098.1437
 Red. masses --      2.3612                 2.3696                 2.1929
 Frc consts  --      1.5652                 1.6455                 1.5581
 IR Inten    --    203.4065                56.8893                86.3240

                     49                     50                     51
                      A                      A                      A
 Frequencies --   1099.9180              1133.7800              1143.6499
 Red. masses --      1.6911                 1.8102                 1.9284
 Frc consts  --      1.2054                 1.3710                 1.4861
 IR Inten    --      6.2073               139.7190               130.6398

                     52                     53                     54
                      A                      A                      A
 Frequencies --   1156.5444              1163.5722              1182.4247
 Red. masses --      2.5748                 7.1609                 1.2921
 Frc consts  --      2.0292                 5.7122                 1.0644
 IR Inten    --      8.9852               349.1211                 4.6968

                     55                     56                     57
                      A                      A                      A
 Frequencies --   1190.8163              1201.0705              1214.3805
 Red. masses --      1.5463                 1.7477                 1.6022
 Frc consts  --      1.2919                 1.4854                 1.3921
 IR Inten    --      1.9667                53.6225               167.4995

                     58                     59                     60
                      A                      A                      A
 Frequencies --   1230.3133              1236.1022              1242.8519
 Red. masses --      2.8174                 1.2804                 1.6965
 Frc consts  --      2.5126                 1.1527                 1.5440
 IR Inten    --     62.4453                 5.7641                39.6821

                     61                     62                     63
                      A                      A                      A
 Frequencies --   1270.2944              1275.3404              1290.1275
 Red. masses --      1.2217                 1.4775                 2.1687
 Frc consts  --      1.1615                 1.4159                 2.1267
 IR Inten    --      2.4414                31.7462               215.4251

                     64                     65                     66
                      A                      A                      A
 Frequencies --   1301.6450              1315.7755              1333.6461
 Red. masses --      1.0797                 1.0837                 1.3763
 Frc consts  --      1.0778                 1.1054                 1.4422
 IR Inten    --      1.2327                 0.4845                 1.7429

                     67                     68                     69
                      A                      A                      A
 Frequencies --   1359.5448              1377.0677              1411.0732
 Red. masses --      1.2768                 1.8571                 1.4606
 Frc consts  --      1.3905                 2.0749                 1.7135
 IR Inten    --     23.2300                67.2470                61.9573

                     70                     71                     72
                      A                      A                      A
 Frequencies --   1412.5688              1416.6673              1442.7080
 Red. masses --      1.5537                 1.3699                 2.5246
 Frc consts  --      1.8265                 1.6198                 3.0960
 IR Inten    --     43.8708                95.3899                24.7502

                     73                     74                     75
                      A                      A                      A
 Frequencies --   1458.4472              1470.1262              1480.8035
 Red. masses --      1.5354                 1.1130                 1.1554
 Frc consts  --      1.9242                 1.4173                 1.4928
 IR Inten    --      8.2144                10.9571                 3.4370

                     76                     77                     78
                      A                      A                      A
 Frequencies --   1488.2635              1492.1448              1500.9932
 Red. masses --      1.0797                 1.0538                 1.0394
 Frc consts  --      1.4090                 1.3824                 1.3797
 IR Inten    --      3.3186                 1.1050                 5.3879

                     79                     80                     81
                      A                      A                      A
 Frequencies --   1506.7099              1507.8797              1519.8546
 Red. masses --      1.0802                 1.0629                 1.0864
 Frc consts  --      1.4449                 1.4239                 1.4785
 IR Inten    --      1.7067                 5.0719                 7.4738

                     82                     83                     84
                      A                      A                      A
 Frequencies --   1542.0076              1639.9256              1728.2555
 Red. masses --      1.0949                 1.1068                 8.7572
 Frc consts  --      1.5339                 1.7537                15.4110
 IR Inten    --      0.5392                64.4695               114.2671

                     85                     86                     87
                      A                      A                      A
 Frequencies --   1795.8088              2939.8466              2952.2021
 Red. masses --     10.8101                 1.0536                 1.0543
 Frc consts  --     20.5400                 5.3649                 5.4140
 IR Inten    --    101.5766                20.2608                68.3759

                     88                     89                     90
                      A                      A                      A
 Frequencies --   2967.7616              2970.7703              2973.1802
 Red. masses --      1.0551                 1.1038                 1.1061
 Frc consts  --      5.4753                 5.7397                 5.7610
 IR Inten    --     23.0187                88.6632                 5.2677

                     91                     92                     93
                      A                      A                      A
 Frequencies --   2977.2215              3016.5464              3022.7754
 Red. masses --      1.0639                 1.0983                 1.0880
 Frc consts  --      5.5563                 5.8886                 5.8574
 IR Inten    --     80.3508                24.0460                73.7604

                     94                     95                     96
                      A                      A                      A
 Frequencies --   3032.0945              3039.4973              3051.1143
 Red. masses --      1.0377                 1.0576                 1.0599
 Frc consts  --      5.6207                 5.7569                 5.8135
 IR Inten    --     21.2965                29.8017                 8.5875

                     97                     98                     99
                      A                      A                      A
 Frequencies --   3072.2880              3087.5088              3100.3424
 Red. masses --      1.1025                 1.1011                 1.1030
 Frc consts  --      6.1312                 6.1845                 6.2465
 IR Inten    --      4.5340                 8.2292                55.2234

                    100                    101                    102
                      A                      A                      A
 Frequencies --   3109.4677              3114.1001              3493.1618
 Red. masses --      1.1003                 1.0959                 1.0477
 Frc consts  --      6.2680                 6.2617                 7.5323
 IR Inten    --     30.5397                33.1089                 8.2163

                    103                    104                    105
                      A                      A                      A
 Frequencies --   3528.6779              3588.6136              3792.1767
 Red. masses --      1.0752                 1.0948                 1.0654
 Frc consts  --      7.8877                 8.3073                 9.0267
 IR Inten    --      2.0448                 6.4709                37.9353

 - Thermochemistry -
 -------------------
 Temperature   298.150 Kelvin.  Pressure   1.00000 Atm.
 Atom     1 has atomic number  6 and mass  12.00000

 Molecular mass:   244.14231 amu.
 Principal axes and moments of inertia in atomic units:
                           1         2         3
     Eigenvalues --  1113.14292********************
           X            0.99998  -0.00588  -0.00104
           Y            0.00586   0.99985  -0.01639
           Z            0.00113   0.01639   0.99987
 This molecule is an asymmetric top.
 Rotational symmetry number  1.
 Warning -- assumption of classical behavior for rotation
           may cause significant error
 Rotational temperatures (Kelvin)      0.07781     0.00595     0.00574
 Rotational constants (GHZ):           1.62130     0.12407     0.11969
 Zero-point vibrational energy     823150.1 (Joules/Mol)
                                  196.73758 (Kcal/Mol)
 Warning -- explicit consideration of  29 degrees of freedom as
           vibrations may cause significant error
 Vibrational temperatures:     24.37    48.22    49.54    73.66    91.51
          (Kelvin)            100.28   120.95   139.27   184.37   192.30
                              228.30   238.09   252.90   269.16   313.87
                              338.09   366.79   370.15   414.79   465.13
                              480.83   551.46   561.29   655.71   665.99
                              690.40   711.16   793.13   838.75   911.94
                             1002.85  1059.85  1101.66  1154.12  1159.38
                             1201.69  1215.92  1297.78  1309.40  1336.64
                             1357.18  1411.24  1464.67  1496.02  1522.25
                             1526.13  1561.99  1579.98  1582.54  1631.26
                             1645.46  1664.01  1674.12  1701.25  1713.32
                             1728.07  1747.22  1770.15  1778.48  1788.19
                             1827.67  1834.93  1856.21  1872.78  1893.11
                             1918.82  1956.08  1981.29  2030.22  2032.37
                             2038.27  2075.74  2098.38  2115.18  2130.55
                             2141.28  2146.86  2159.59  2167.82  2169.50
                             2186.73  2218.60  2359.49  2486.57  2583.77
                             4229.78  4247.56  4269.95  4274.28  4277.74
                             4283.56  4340.14  4349.10  4362.51  4373.16
                             4389.87  4420.34  4442.24  4460.70  4473.83
                             4480.50  5025.88  5076.98  5163.21  5456.10

 Zero-point correction=                           0.313521 (Hartree/Particle)
 Thermal correction to Energy=                    0.333440
 Thermal correction to Enthalpy=                  0.334384
 Thermal correction to Gibbs Free Energy=         0.262330
 Sum of electronic and zero-point Energies=           -841.265472
 Sum of electronic and thermal Energies=              -841.245554
 Sum of electronic and thermal Enthalpies=            -841.244610
 Sum of electronic and thermal Free Energies=         -841.316664

                     E (Thermal)             CV                S
                      KCal/Mol        Cal/Mol-Kelvin    Cal/Mol-Kelvin
 Total                  209.237             70.499            151.650
 Electronic               0.000              0.000              0.000
 Translational            0.889              2.981             42.379
 Rotational               0.889              2.981             33.856
 Vibrational            207.459             64.538             75.415
 Vibration     1          0.593              1.986              6.964
 Vibration     2          0.594              1.983              5.610
 Vibration     3          0.594              1.983              5.556
 Vibration     4          0.595              1.977              4.771
 Vibration     5          0.597              1.972              4.342
 Vibration     6          0.598              1.969              4.162
 Vibration     7          0.601              1.960              3.794
 Vibration     8          0.603              1.951              3.518
 Vibration     9          0.611              1.925              2.974
 Vibration    10          0.613              1.920              2.893
 Vibration    11          0.621              1.893              2.566
 Vibration    12          0.624              1.885              2.486
 Vibration    13          0.628              1.872              2.373
 Vibration    14          0.632              1.858              2.257
 Vibration    15          0.646              1.813              1.974
 Vibration    16          0.655              1.787              1.841
 Vibration    17          0.665              1.754              1.696
 Vibration    18          0.667              1.750              1.680
 Vibration    19          0.685              1.695              1.484
 Vibration    20          0.708              1.629              1.293
 Vibration    21          0.716              1.607              1.240
 Vibration    22          0.752              1.506              1.026
 Vibration    23          0.758              1.491              1.000
 Vibration    24          0.814              1.348              0.779
 Vibration    25          0.821              1.332              0.758
 Vibration    26          0.836              1.295              0.710
 Vibration    27          0.850              1.263              0.673
 Vibration    28          0.907              1.137              0.542
 Vibration    29          0.940              1.068              0.480

 Optimization completed.
    -- Stationary point found.
 Normal termination of Gaussian 16 at Sat May 27 21:55:13 2023.
