 Gaussian 16, Revision A.03,
 Gaussian 16:  ES64L-G16RevA.03 25-Dec-2016

 -----------------------------
 # opt freq b3lyp/6-31g(2df,p)
 -----------------------------

 -------------------
 Title Card Required
 -------------------
 Symbolic Z-matrix:
 Charge =  0 Multiplicity = 1

 SCF Done:  E(RB3LYP) =  -618.524314943     A.U. after   14 cycles
 SCF Done:  E(RB3LYP) =  -618.533297967     A.U. after   12 cycles
 SCF Done:  E(RB3LYP) =  -618.535066843     A.U. after   11 cycles
 SCF Done:  E(RB3LYP) =  -618.536052597     A.U. after   12 cycles
 SCF Done:  E(RB3LYP) =  -618.536409764     A.U. after   11 cycles
 SCF Done:  E(RB3LYP) =  -618.536520348     A.U. after   10 cycles
 SCF Done:  E(RB3LYP) =  -618.536582223     A.U. after   10 cycles
 SCF Done:  E(RB3LYP) =  -618.536572676     A.U. after   10 cycles
 SCF Done:  E(RB3LYP) =  -618.536751169     A.U. after   10 cycles
 SCF Done:  E(RB3LYP) =  -618.524074633     A.U. after   12 cycles
 SCF Done:  E(RB3LYP) =  -618.541248265     A.U. after   12 cycles
 SCF Done:  E(RB3LYP) =  -618.541769680     A.U. after   11 cycles
 SCF Done:  E(RB3LYP) =  -618.541925906     A.U. after   11 cycles
 SCF Done:  E(RB3LYP) =  -618.541995178     A.U. after   11 cycles
 SCF Done:  E(RB3LYP) =  -618.542047572     A.U. after    9 cycles
 SCF Done:  E(RB3LYP) =  -618.542053011     A.U. after    9 cycles
 SCF Done:  E(RB3LYP) =  -618.542053643     A.U. after    7 cycles
 SCF Done:  E(RB3LYP) =  -618.542053768     A.U. after    7 cycles
 SCF Done:  E(RB3LYP) =  -618.542053780     A.U. after    6 cycles
 Optimization completed.
    -- Stationary point found.
 Normal termination of Gaussian 16 at Mon May 22 09:11:18 2023.

 ----------------------------------------------------------------------
 #N Geom=AllCheck Guess=TCheck SCRF=Check GenChk RB3LYP/6-31G(2df,p) Fr
 eq
 ----------------------------------------------------------------------

 Structure from the checkpoint file:  "CCCOCC1dCCdCqCCrCdCO1.chk"
 -------------------
 Title Card Required
 -------------------
 Charge =  0 Multiplicity = 1

                         Standard orientation:
 ---------------------------------------------------------------------
 Center     Atomic      Atomic             Coordinates (Angstroms)
 Number     Number       Type             X           Y           Z
 ---------------------------------------------------------------------
      1          6           0        5.856526    0.476160    0.513445
      2          6           0        4.340615    0.666089    0.606402
      3          6           0        3.570603   -0.473886   -0.045535
      4          8           0        2.186789   -0.219923    0.084728
      5          6           0        1.379380   -1.221065   -0.504994
      6          6           0       -0.047751   -0.774250   -0.479767
      7          6           0       -1.040873   -1.375143    0.188224
      8          6           0       -2.425713   -0.936515    0.237706
      9          6           0       -2.852214    0.344584    0.157017
     10          6           0       -4.307960    0.741059    0.298576
     11          6           0       -5.312996   -0.385214    0.538075
     12          6           0       -1.920016    1.462872    0.009326
     13          6           0       -0.738525    1.421696   -0.610286
     14          8           0       -0.282115    0.319420   -1.309000
     15          1           0        6.386326    1.306895    0.988288
     16          1           0        6.189635    0.422971   -0.528988
     17          1           0        6.175010   -0.447170    1.009985
     18          1           0        4.043981    1.604849    0.124780
     19          1           0        4.029709    0.740907    1.654688
     20          1           0        3.831762   -1.434722    0.432585
     21          1           0        3.844161   -0.563091   -1.111679
     22          1           0        1.484217   -2.180444    0.025241
     23          1           0        1.688301   -1.380854   -1.553009
     24          1           0       -0.784212   -2.268239    0.751476
     25          1           0       -3.155797   -1.715991    0.432697
     26          1           0       -4.597692    1.299053   -0.603547
     27          1           0       -4.382778    1.474342    1.115067
     28          1           0       -5.309807   -1.108941   -0.283146
     29          1           0       -6.325244    0.021698    0.618198
     30          1           0       -5.097804   -0.927047    1.464630
     31          1           0       -2.205767    2.413399    0.454086
     32          1           0       -0.057846    2.268081   -0.646313
 ---------------------------------------------------------------------

 SCF Done:  E(RB3LYP) =  -618.542053780     A.U. after    1 cycles

 The electronic state is 1-A.
 Alpha  occ. eigenvalues --  -19.15628 -19.13639 -10.23378 -10.23070 -10.23000
 Alpha  occ. eigenvalues --  -10.22338 -10.19146 -10.18622 -10.17913 -10.17859
 Alpha  occ. eigenvalues --  -10.17823 -10.17608 -10.17584 -10.17518  -1.05844
 Alpha  occ. eigenvalues --   -1.02793  -0.82363  -0.79818  -0.77558  -0.75390
 Alpha  occ. eigenvalues --   -0.71777  -0.68053  -0.66229  -0.62814  -0.60494
 Alpha  occ. eigenvalues --   -0.58775  -0.53815  -0.52760  -0.49782  -0.49009
 Alpha  occ. eigenvalues --   -0.48272  -0.45507  -0.45097  -0.44607  -0.43459
 Alpha  occ. eigenvalues --   -0.42320  -0.41823  -0.41207  -0.39360  -0.38363
 Alpha  occ. eigenvalues --   -0.38002  -0.35958  -0.35373  -0.35056  -0.34616
 Alpha  occ. eigenvalues --   -0.33235  -0.33017  -0.31576  -0.29948  -0.28293
 Alpha  occ. eigenvalues --   -0.25910  -0.25332  -0.19715
 Alpha virt. eigenvalues --   -0.02958   0.03498   0.08965   0.09321   0.10026
 Alpha virt. eigenvalues --    0.10426   0.12244   0.12496   0.13510   0.14361
 Alpha virt. eigenvalues --    0.15036   0.15542   0.16075   0.16856   0.17095

 Mulliken charges:
               1
     1  C   -0.382687
     2  C   -0.182292
     3  C   -0.022946
     4  O   -0.250736
     5  C   -0.158956
     6  C    0.330133
     7  C   -0.184336
     8  C   -0.188068
     9  C    0.240014
    10  C   -0.256432
    11  C   -0.393989
    12  C   -0.164705
    13  C   -0.005436
    14  O   -0.270970
    15  H    0.117232
    16  H    0.116568
    17  H    0.115928
    18  H    0.106640
    19  H    0.107292
    20  H    0.081101
    21  H    0.084351
    22  H    0.091990
    23  H    0.097341
    24  H    0.096229
    25  H    0.089457
    26  H    0.115876
    27  H    0.108715
    28  H    0.124441
    29  H    0.111386
    30  H    0.121890
    31  H    0.093615
    32  H    0.111355
 Sum of Mulliken charges =  -0.00000

 Dipole moment (field-independent basis, Debye):
    X=              0.2119    Y=             -0.3575    Z=              0.7362  Tot=              0.8454
 Quadrupole moment (field-independent basis, Debye-Ang):
   XX=            -74.8861   YY=            -79.5649   ZZ=            -87.6702
   XY=             -2.0979   XZ=             -2.1906   YZ=             -0.0418

  Exact polarizability: 194.457  -3.645 132.358 -13.609  -3.170  96.254
 Approx polarizability: 237.624  -6.540 213.160 -29.820  -9.244 158.761

                      1                      2                      3
                      A                      A                      A
 Frequencies --     27.1096                36.0098                51.6135
 Red. masses --      3.9198                 3.8267                 1.7081
 Frc consts  --      0.0017                 0.0029                 0.0027
 IR Inten    --      0.1953                 0.2313                 0.7010

                      4                      5                      6
                      A                      A                      A
 Frequencies --     74.0713                98.1650               119.7511
 Red. masses --      2.8433                 2.6062                 3.4760
 Frc consts  --      0.0092                 0.0148                 0.0294
 IR Inten    --      0.1279                 0.3922                 1.1764

                      7                      8                      9
                      A                      A                      A
 Frequencies --    137.8861               155.9291               187.0445
 Red. masses --      2.9344                 2.9707                 3.3085
 Frc consts  --      0.0329                 0.0426                 0.0682
 IR Inten    --      1.4869                 3.0564                 0.7750

                     10                     11                     12
                      A                      A                      A
 Frequencies --    221.1094               234.6817               262.4999
 Red. masses --      3.7358                 1.1434                 1.5139
 Frc consts  --      0.1076                 0.0371                 0.0615
 IR Inten    --      1.5637                 0.0656                 0.5703

                     13                     14                     15
                      A                      A                      A
 Frequencies --    287.5385               322.6024               339.7248
 Red. masses --      1.9247                 3.0412                 3.1277
 Frc consts  --      0.0938                 0.1865                 0.2127
 IR Inten    --      3.0072                 4.3666                 0.4522

                     16                     17                     18
                      A                      A                      A
 Frequencies --    367.9000               402.3391               421.1984
 Red. masses --      3.2311                 3.3681                 3.6748
 Frc consts  --      0.2577                 0.3212                 0.3841
 IR Inten    --      0.0910                 2.6592                 1.0107

                     19                     20                     21
                      A                      A                      A
 Frequencies --    463.0304               484.2952               604.6129
 Red. masses --      3.8611                 4.0408                 3.2101
 Frc consts  --      0.4877                 0.5584                 0.6914
 IR Inten    --      0.9743                 3.8355                 0.8107

                     22                     23                     24
                      A                      A                      A
 Frequencies --    650.1242               704.2532               760.2284
 Red. masses --      4.0750                 3.5395                 2.6875
 Frc consts  --      1.0148                 1.0343                 0.9151
 IR Inten    --      2.6167                 1.9890                 2.4636

                     25                     26                     27
                      A                      A                      A
 Frequencies --    765.4898               772.7466               801.4716
 Red. masses --      1.0786                 1.5438                 1.6522
 Frc consts  --      0.3724                 0.5431                 0.6253
 IR Inten    --      1.5849                10.1133                18.6650

                     28                     29                     30
                      A                      A                      A
 Frequencies --    849.4758               863.1313               899.5469
 Red. masses --      1.3604                 2.8413                 1.5349
 Frc consts  --      0.5784                 1.2471                 0.7318
 IR Inten    --     31.6226                 2.2085                 8.9608

                     31                     32                     33
                      A                      A                      A
 Frequencies --    901.1106               913.7505               927.6756
 Red. masses --      1.1546                 1.7059                 1.5397
 Frc consts  --      0.5524                 0.8392                 0.7807
 IR Inten    --      4.0302                 1.6723                 2.9253

                     34                     35                     36
                      A                      A                      A
 Frequencies --    937.1943               978.7170               990.3498
 Red. masses --      2.5590                 1.8915                 2.5488
 Frc consts  --      1.3243                 1.0675                 1.4729
 IR Inten    --      3.3156                 5.0239                 2.2689

                     37                     38                     39
                      A                      A                      A
 Frequencies --   1014.4967              1053.2813              1058.8853
 Red. masses --      4.3465                 2.4795                 2.1293
 Frc consts  --      2.6357                 1.6207                 1.4066
 IR Inten    --     19.1197                 5.4789                21.9756

                     40                     41                     42
                      A                      A                      A
 Frequencies --   1075.1792              1105.3278              1137.3598
 Red. masses --      2.4349                 1.6010                 2.0757
 Frc consts  --      1.6584                 1.1524                 1.5820
 IR Inten    --     33.1500                 0.3754                64.5684

                     43                     44                     45
                      A                      A                      A
 Frequencies --   1137.6005              1148.7634              1154.5058
 Red. masses --      5.3655                 2.6468                 2.7503
 Frc consts  --      4.0911                 2.0580                 2.1598
 IR Inten    --    188.5063                11.9856                48.1405

                     46                     47                     48
                      A                      A                      A
 Frequencies --   1190.6090              1192.4593              1247.1146
 Red. masses --      2.2013                 2.0459                 1.1456
 Frc consts  --      1.8386                 1.7140                 1.0498
 IR Inten    --     13.7151                18.0667                 1.7489

                     49                     50                     51
                      A                      A                      A
 Frequencies --   1264.5954              1269.0115              1295.0185
 Red. masses --      1.3044                 1.2240                 1.1532
 Frc consts  --      1.2291                 1.1613                 1.1394
 IR Inten    --     24.7365                 2.6696                 2.2062

                     52                     53                     54
                      A                      A                      A
 Frequencies --   1314.3945              1326.4663              1332.5430
 Red. masses --      1.0854                 1.2831                 1.3417
 Frc consts  --      1.1048                 1.3301                 1.4036
 IR Inten    --      0.2927                11.9075                13.9875

                     55                     56                     57
                      A                      A                      A
 Frequencies --   1345.6550              1391.3895              1395.0628
 Red. masses --      1.5941                 1.3719                 1.4869
 Frc consts  --      1.7007                 1.5648                 1.7050
 IR Inten    --     12.7123                77.7591                 3.3598

                     58                     59                     60
                      A                      A                      A
 Frequencies --   1412.0135              1412.9196              1436.4131
 Red. masses --      1.2937                 1.2431                 1.7031
 Frc consts  --      1.5197                 1.4621                 2.0703
 IR Inten    --      2.9239                 1.9707                 1.8354

                     61                     62                     63
                      A                      A                      A
 Frequencies --   1451.1806              1473.6475              1491.4545
 Red. masses --      1.5255                 1.0822                 1.0595
 Frc consts  --      1.8928                 1.3847                 1.3886
 IR Inten    --      6.2649                 2.5784                 2.5237

                     64                     65                     66
                      A                      A                      A
 Frequencies --   1496.9555              1498.6382              1500.7386
 Red. masses --      1.0841                 1.0396                 1.0395
 Frc consts  --      1.4313                 1.3756                 1.3794
 IR Inten    --      2.5446                 5.1434                 5.2256

                     67                     68                     69
                      A                      A                      A
 Frequencies --   1508.3837              1508.9231              1529.4950
 Red. masses --      1.0793                 1.0523                 1.0911
 Frc consts  --      1.4469                 1.4117                 1.5039
 IR Inten    --      1.7636                 3.8946                 4.3129

                     70                     71                     72
                      A                      A                      A
 Frequencies --   1647.9023              1692.7842              1720.9511
 Red. masses --      7.5478                 6.8941                 6.6526
 Frc consts  --     12.0763                11.6395                11.6086
 IR Inten    --      1.6220                31.3247                24.1929

                     73                     74                     75
                      A                      A                      A
 Frequencies --   2938.9459              2952.5067              2966.3586
 Red. masses --      1.0548                 1.0606                 1.1044
 Frc consts  --      5.3680                 5.4472                 5.7256
 IR Inten    --     28.0125                79.0284                51.2919

                     76                     77                     78
                      A                      A                      A
 Frequencies --   2998.5654              2998.9289              3019.2311
 Red. masses --      1.0951                 1.0623                 1.0990
 Frc consts  --      5.8014                 5.6292                 5.9028
 IR Inten    --     26.6808                39.3722                16.0963

                     79                     80                     81
                      A                      A                      A
 Frequencies --   3031.2452              3037.2807              3038.8222
 Red. masses --      1.0373                 1.0353                 1.0578
 Frc consts  --      5.6158                 5.6270                 5.7554
 IR Inten    --     25.2211                20.7418                29.6251

                     82                     83                     84
                      A                      A                      A
 Frequencies --   3071.4320              3099.4970              3105.5106
 Red. masses --      1.1024                 1.1030                 1.1018
 Frc consts  --      6.1273                 6.2430                 6.2604
 IR Inten    --      4.2485                55.2361                28.6019

                     85                     86                     87
                      A                      A                      A
 Frequencies --   3107.6267              3107.8141              3147.8227
 Red. masses --      1.1003                 1.1012                 1.0826
 Frc consts  --      6.2608                 6.2664                 6.3204
 IR Inten    --     28.7246                35.4216                 3.8439

                     88                     89                     90
                      A                      A                      A
 Frequencies --   3160.2986              3173.0667              3175.7318
 Red. masses --      1.0862                 1.0970                 1.0896
 Frc consts  --      6.3916                 6.5078                 6.4747
 IR Inten    --     16.6016                37.6858                 4.9545

 - Thermochemistry -
 -------------------
 Temperature   298.150 Kelvin.  Pressure   1.00000 Atm.
 Atom     1 has atomic number  6 and mass  12.00000

 Molecular mass:   194.13068 amu.
 Principal axes and moments of inertia in atomic units:
                           1         2         3
     Eigenvalues --   844.764537454.000717828.70744
           X            1.00000   0.00228  -0.00177
           Y           -0.00226   0.99994   0.01068
           Z            0.00179  -0.01068   0.99994
 This molecule is an asymmetric top.
 Rotational symmetry number  1.
 Warning -- assumption of classical behavior for rotation
           may cause significant error
 Rotational temperatures (Kelvin)      0.10253     0.01162     0.01106
 Rotational constants (GHZ):           2.13638     0.24212     0.23053
 Zero-point vibrational energy     725996.8 (Joules/Mol)
                                  173.51739 (Kcal/Mol)
 Warning -- explicit consideration of  21 degrees of freedom as
           vibrations may cause significant error
 Vibrational temperatures:     39.00    51.81    74.26   106.57   141.24
          (Kelvin)            172.30   198.39   224.35   269.12   318.13
                              337.65   377.68   413.70   464.15   488.79
                              529.33   578.88   606.01   666.20   696.79
                              869.90   935.38  1013.26  1093.80  1101.37
                             1111.81  1153.14  1222.21  1241.85  1294.25
                             1296.50  1314.68  1334.72  1348.41  1408.16
                             1424.89  1459.63  1515.44  1523.50  1546.94
                             1590.32  1636.41  1636.75  1652.81  1661.08
                             1713.02  1715.68  1794.32  1819.47  1825.82
                             1863.24  1891.12  1908.49  1917.23  1936.10
                             2001.90  2007.18  2031.57  2032.88  2066.68
                             2087.93  2120.25  2145.87  2153.79  2156.21
                             2159.23  2170.23  2171.00  2200.60  2370.96
                             2435.54  2476.06  4228.49  4248.00  4267.93
                             4314.27  4314.79  4344.00  4361.29  4369.97
                             4372.19  4419.11  4459.48  4468.14  4471.18
                             4471.45  4529.01  4546.96  4565.34  4569.17

 Zero-point correction=                           0.276518 (Hartree/Particle)
 Thermal correction to Energy=                    0.291815
 Thermal correction to Enthalpy=                  0.292759
 Thermal correction to Gibbs Free Energy=         0.232572
 Sum of electronic and zero-point Energies=           -618.265536
 Sum of electronic and thermal Energies=              -618.250239
 Sum of electronic and thermal Enthalpies=            -618.249295
 Sum of electronic and thermal Free Energies=         -618.309482

                     E (Thermal)             CV                S
                      KCal/Mol        Cal/Mol-Kelvin    Cal/Mol-Kelvin
 Total                  183.116             56.070            126.674
 Electronic               0.000              0.000              0.000
 Translational            0.889              2.981             41.695
 Rotational               0.889              2.981             32.266
 Vibrational            181.339             50.108             52.712
 Vibration     1          0.593              1.984              6.030
 Vibration     2          0.594              1.982              5.467
 Vibration     3          0.596              1.977              4.755
 Vibration     4          0.599              1.966              4.042
 Vibration     5          0.604              1.950              3.490
 Vibration     6          0.609              1.933              3.104
 Vibration     7          0.614              1.915              2.833
 Vibration     8          0.620              1.896              2.599
 Vibration     9          0.632              1.858              2.257
 Vibration    10          0.648              1.809              1.950
 Vibration    11          0.654              1.788              1.843
 Vibration    12          0.670              1.742              1.645
 Vibration    13          0.685              1.697              1.488
 Vibration    14          0.708              1.630              1.297
 Vibration    15          0.720              1.596              1.213
 Vibration    16          0.741              1.538              1.089
 Vibration    17          0.768              1.465              0.954
 Vibration    18          0.784              1.424              0.888
 Vibration    19          0.821              1.332              0.757
 Vibration    20          0.840              1.285              0.699
 Vibration    21          0.963              1.022              0.442

 Optimization completed.
    -- Stationary point found.
 Normal termination of Gaussian 16 at Mon May 22 11:02:06 2023.
