 Gaussian 16, Revision A.03,
 Gaussian 16:  ES64L-G16RevA.03 25-Dec-2016

 -----------------------------
 # opt freq b3lyp/6-31g(2df,p)
 -----------------------------

 -------------------
 Title Card Required
 -------------------
 Symbolic Z-matrix:
 Charge =  0 Multiplicity = 1

 SCF Done:  E(RB3LYP) =  -704.200840886     A.U. after   12 cycles
 SCF Done:  E(RB3LYP) =  -704.213811670     A.U. after   11 cycles
 SCF Done:  E(RB3LYP) =  -704.218086599     A.U. after   11 cycles
 SCF Done:  E(RB3LYP) =  -704.226248714     A.U. after   11 cycles
 SCF Done:  E(RB3LYP) =  -704.222748740     A.U. after   10 cycles
 SCF Done:  E(RB3LYP) =  -704.232693437     A.U. after   10 cycles
 SCF Done:  E(RB3LYP) =  -704.234958001     A.U. after   11 cycles
 SCF Done:  E(RB3LYP) =  -704.236438820     A.U. after   11 cycles
 SCF Done:  E(RB3LYP) =  -704.237156210     A.U. after   10 cycles
 SCF Done:  E(RB3LYP) =  -704.238295006     A.U. after    9 cycles
 SCF Done:  E(RB3LYP) =  -704.246471498     A.U. after    8 cycles
 SCF Done:  E(RB3LYP) =  -704.246472329     A.U. after    8 cycles
 SCF Done:  E(RB3LYP) =  -704.246472812     A.U. after    6 cycles
 SCF Done:  E(RB3LYP) =  -704.246472799     A.U. after    6 cycles
 SCF Done:  E(RB3LYP) =  -704.246472887     A.U. after    5 cycles
 SCF Done:  E(RB3LYP) =  -704.246472885     A.U. after    5 cycles
 SCF Done:  E(RB3LYP) =  -704.246472820     A.U. after    6 cycles
 SCF Done:  E(RB3LYP) =  -704.246472724     A.U. after    6 cycles
 SCF Done:  E(RB3LYP) =  -704.246472668     A.U. after    5 cycles
 Optimization completed.
    -- Stationary point found.
 Normal termination of Gaussian 16 at Tue May 23 09:52:27 2023.

 ----------------------------------------------------------------------
 #N Geom=AllCheck Guess=TCheck SCRF=Check GenChk RB3LYP/6-31G(2df,p) Fr
 eq
 ----------------------------------------------------------------------

 Structure from the checkpoint file:  "CCCOC1CqCrCCCCC1CCqCrCC.chk"
 -------------------
 Title Card Required
 -------------------
 Charge =  0 Multiplicity = 1

                         Standard orientation:
 ---------------------------------------------------------------------
 Center     Atomic      Atomic             Coordinates (Angstroms)
 Number     Number       Type             X           Y           Z
 ---------------------------------------------------------------------
      1          6           0        0.997088    4.289247   -1.017655
      2          6           0        0.619875    3.354794    0.134433
      3          6           0        0.319082    1.935994   -0.338423
      4          8           0        0.064485    1.136552    0.806533
      5          6           0       -0.767565   -0.028484    0.704503
      6          6           0       -2.258180    0.397883    0.897749
      7          6           0       -2.844016    1.453936   -0.056163
      8          6           0       -3.202931   -0.808431    1.068130
      9          6           0       -3.746203   -1.435354   -0.226247
     10          6           0       -2.694149   -1.682841   -1.322349
     11          6           0       -1.317392   -2.111212   -0.797853
     12          6           0       -0.317897   -0.981926   -0.438192
     13          6           0        1.023209   -1.707615   -0.114490
     14          6           0        2.350031   -0.940425    0.118274
     15          6           0        2.568175   -0.575599    1.595094
     16          6           0        3.520923   -1.789648   -0.426657
     17          6           0        4.897621   -1.120328   -0.366331
     18          1           0        1.213338    5.297391   -0.652340
     19          1           0        0.186290    4.369647   -1.750512
     20          1           0        1.886553    3.931125   -1.547866
     21          1           0       -0.255126    3.742443    0.669599
     22          1           0        1.433064    3.307815    0.867912
     23          1           0        1.182862    1.548720   -0.899296
     24          1           0       -0.529443    1.942210   -1.031820
     25          1           0       -0.539415   -0.568700    1.633966
     26          1           0       -2.218768    0.889912    1.878461
     27          1           0       -2.808455    1.161956   -1.109045
     28          1           0       -2.332513    2.412886    0.047797
     29          1           0       -3.896582    1.626309    0.196720
     30          1           0       -4.058733   -0.492787    1.677293
     31          1           0       -2.689427   -1.575664    1.661139
     32          1           0       -4.546778   -0.807925   -0.634896
     33          1           0       -4.221679   -2.388219    0.037266
     34          1           0       -2.571245   -0.788838   -1.944805
     35          1           0       -3.075583   -2.456240   -1.999006
     36          1           0       -0.828972   -2.715078   -1.570845
     37          1           0       -1.437373   -2.785837    0.060854
     38          1           0       -0.180081   -0.388454   -1.352022
     39          1           0        1.190304   -2.393948   -0.953732
     40          1           0        0.845769   -2.358112    0.754994
     41          1           0        2.334367   -0.013765   -0.468053
     42          1           0        2.632968   -1.483837    2.208005
     43          1           0        1.755504    0.046190    1.971131
     44          1           0        3.498159   -0.016670    1.736992
     45          1           0        3.303334   -2.047816   -1.471238
     46          1           0        3.553612   -2.743979    0.118415
     47          1           0        4.887005   -0.148304   -0.873388
     48          1           0        5.653238   -1.741166   -0.858566
     49          1           0        5.231878   -0.953623    0.661681
 ---------------------------------------------------------------------

 SCF Done:  E(RB3LYP) =  -704.246472668     A.U. after    1 cycles

 The electronic state is 1-A.
 Alpha  occ. eigenvalues --  -19.12824 -10.22413 -10.21767 -10.18343 -10.18089
 Alpha  occ. eigenvalues --  -10.17578 -10.17529 -10.17425 -10.17420 -10.17399
 Alpha  occ. eigenvalues --  -10.17394 -10.17374 -10.16998 -10.16964 -10.16941
 Alpha  occ. eigenvalues --  -10.16547 -10.15360  -1.01616  -0.82559  -0.80091
 Alpha  occ. eigenvalues --   -0.77979  -0.77156  -0.75179  -0.71486  -0.69676
 Alpha  occ. eigenvalues --   -0.68376  -0.65684  -0.62936  -0.62656  -0.59602
 Alpha  occ. eigenvalues --   -0.58473  -0.54964  -0.54473  -0.52998  -0.49232
 Alpha  occ. eigenvalues --   -0.48322  -0.46220  -0.45202  -0.45074  -0.44357
 Alpha  occ. eigenvalues --   -0.43008  -0.42846  -0.41565  -0.41231  -0.40863
 Alpha  occ. eigenvalues --   -0.39438  -0.39184  -0.38397  -0.37547  -0.37214
 Alpha  occ. eigenvalues --   -0.36645  -0.35933  -0.35508  -0.35220  -0.34927
 Alpha  occ. eigenvalues --   -0.34335  -0.33727  -0.33261  -0.32954  -0.32139
 Alpha  occ. eigenvalues --   -0.31956  -0.30702  -0.30594  -0.30185  -0.29935
 Alpha  occ. eigenvalues --   -0.28328  -0.27717  -0.23927
 Alpha virt. eigenvalues --    0.06883   0.08593   0.08910   0.09567   0.10303
 Alpha virt. eigenvalues --    0.11513   0.11876   0.12332   0.13086   0.13132
 Alpha virt. eigenvalues --    0.13760   0.14409   0.14830   0.15027   0.16387

 Mulliken charges:
               1
     1  C   -0.384629
     2  C   -0.183976
     3  C   -0.058749
     4  O   -0.273024
     5  C    0.103022
     6  C    0.030359
     7  C   -0.420986
     8  C   -0.223896
     9  C   -0.183142
    10  C   -0.217287
    11  C   -0.190445
    12  C   -0.051848
    13  C   -0.185052
    14  C    0.037891
    15  C   -0.406003
    16  C   -0.164972
    17  C   -0.392659
    18  H    0.116423
    19  H    0.114352
    20  H    0.116173
    21  H    0.101705
    22  H    0.108021
    23  H    0.091226
    24  H    0.097565
    25  H    0.079971
    26  H    0.081624
    27  H    0.118565
    28  H    0.125627
    29  H    0.108014
    30  H    0.089295
    31  H    0.091815
    32  H    0.094298
    33  H    0.091798
    34  H    0.094174
    35  H    0.090536
    36  H    0.093278
    37  H    0.093177
    38  H    0.071235
    39  H    0.083011
    40  H    0.088366
    41  H    0.068800
    42  H    0.097801
    43  H    0.142310
    44  H    0.104095
    45  H    0.086676
    46  H    0.089225
    47  H    0.109344
    48  H    0.108040
    49  H    0.118856
 Sum of Mulliken charges =  -0.00000

 Dipole moment (field-independent basis, Debye):
    X=             -0.8168    Y=             -0.0629    Z=             -0.8683  Tot=              1.1938
 Quadrupole moment (field-independent basis, Debye-Ang):
   XX=           -111.2823   YY=           -109.2915   ZZ=           -111.6295
   XY=              0.5900   XZ=             -1.1584   YZ=             -1.2488

  Exact polarizability: 200.473   3.654 179.606  -1.240   1.410 150.528
 Approx polarizability: 247.181   1.731 246.881  -0.622  -2.110 241.193

                      1                      2                      3
                      A                      A                      A
 Frequencies --     26.1407                37.1942                41.8335
 Red. masses --      2.7526                 3.2941                 3.0162
 Frc consts  --      0.0011                 0.0027                 0.0031
 IR Inten    --      0.0295                 0.0739                 0.1617

                      4                      5                      6
                      A                      A                      A
 Frequencies --     57.9789                84.0936                98.4226
 Red. masses --      2.9793                 1.6420                 2.1297
 Frc consts  --      0.0059                 0.0068                 0.0122
 IR Inten    --      0.0033                 0.0608                 0.0434

                      7                      8                      9
                      A                      A                      A
 Frequencies --    112.6495               126.0015               149.9488
 Red. masses --      2.6109                 2.6019                 2.5065
 Frc consts  --      0.0195                 0.0243                 0.0332
 IR Inten    --      0.0534                 0.5483                 0.2782

                     10                     11                     12
                      A                      A                      A
 Frequencies --    188.9419               205.1443               213.5243
 Red. masses --      2.6334                 2.7553                 1.6415
 Frc consts  --      0.0554                 0.0683                 0.0441
 IR Inten    --      0.1914                 0.4163                 1.4620

                     13                     14                     15
                      A                      A                      A
 Frequencies --    220.4986               228.0215               237.4293
 Red. masses --      1.2447                 1.4420                 1.8823
 Frc consts  --      0.0357                 0.0442                 0.0625
 IR Inten    --      0.4020                 0.0163                 0.2374

                     16                     17                     18
                      A                      A                      A
 Frequencies --    244.3383               259.4669               276.6719
 Red. masses --      1.8926                 2.1076                 1.4214
 Frc consts  --      0.0666                 0.0836                 0.0641
 IR Inten    --      2.8998                 0.4873                 0.1519

                     19                     20                     21
                      A                      A                      A
 Frequencies --    292.2211               307.2231               328.5990
 Red. masses --      2.7313                 2.1511                 1.8028
 Frc consts  --      0.1374                 0.1196                 0.1147
 IR Inten    --      0.1914                 1.7001                 0.8191

                     22                     23                     24
                      A                      A                      A
 Frequencies --    338.2201               348.7111               373.2826
 Red. masses --      2.9735                 2.1268                 2.5536
 Frc consts  --      0.2004                 0.1524                 0.2096
 IR Inten    --      4.0488                 0.0254                 0.5460

                     25                     26                     27
                      A                      A                      A
 Frequencies --    399.1391               417.0114               431.2486
 Red. masses --      2.4043                 2.6389                 2.5417
 Frc consts  --      0.2257                 0.2704                 0.2785
 IR Inten    --      0.8568                 0.7395                 2.7471

                     28                     29                     30
                      A                      A                      A
 Frequencies --    462.3713               504.5622               563.3253
 Red. masses --      2.5596                 2.6700                 2.3379
 Frc consts  --      0.3224                 0.4005                 0.4371
 IR Inten    --      3.7518                 0.8501                 0.7948

                     31                     32                     33
                      A                      A                      A
 Frequencies --    603.3651               643.2289               757.3498
 Red. masses --      3.3908                 2.1801                 1.6629
 Frc consts  --      0.7273                 0.5314                 0.5619
 IR Inten    --      1.8474                 1.7035                 4.2681

                     34                     35                     36
                      A                      A                      A
 Frequencies --    761.2566               771.2902               775.8158
 Red. masses --      1.3850                 1.4690                 1.3412
 Frc consts  --      0.4729                 0.5149                 0.4756
 IR Inten    --      0.0701                 3.7736                 1.8645

                     37                     38                     39
                      A                      A                      A
 Frequencies --    807.7271               825.6507               840.5365
 Red. masses --      2.2790                 2.1097                 1.9160
 Frc consts  --      0.8760                 0.8474                 0.7976
 IR Inten    --      0.4231                 3.2172                 0.8611

                     40                     41                     42
                      A                      A                      A
 Frequencies --    876.7573               895.4601               907.5567
 Red. masses --      2.4732                 1.2517                 1.5447
 Frc consts  --      1.1201                 0.5913                 0.7496
 IR Inten    --      1.6535                 3.9922                 6.5036

                     43                     44                     45
                      A                      A                      A
 Frequencies --    914.4705               932.4664               949.1231
 Red. masses --      1.8869                 1.8797                 2.4975
 Frc consts  --      0.9297                 0.9630                 1.3256
 IR Inten    --      4.9195                 6.2308                 5.6025

                     46                     47                     48
                      A                      A                      A
 Frequencies --    961.8118               970.3504               973.0029
 Red. masses --      2.1230                 1.6791                 1.4643
 Frc consts  --      1.1571                 0.9315                 0.8168
 IR Inten    --      5.1401                14.2296                 1.2648

                     49                     50                     51
                      A                      A                      A
 Frequencies --    989.0628              1015.4826              1028.1062
 Red. masses --      2.0631                 1.8335                 2.0359
 Frc consts  --      1.1891                 1.1140                 1.2679
 IR Inten    --      1.6352                 2.2093                 3.1858

                     52                     53                     54
                      A                      A                      A
 Frequencies --   1039.9409              1049.2345              1052.6103
 Red. masses --      1.8119                 2.4798                 2.1779
 Frc consts  --      1.1545                 1.6084                 1.4218
 IR Inten    --      0.8126                 1.2997                 3.3436

                     55                     56                     57
                      A                      A                      A
 Frequencies --   1065.5619              1089.1202              1099.2812
 Red. masses --      2.3657                 1.7132                 2.9819
 Frc consts  --      1.5826                 1.1973                 2.1231
 IR Inten    --      0.5439                 1.1453               109.4622

                     58                     59                     60
                      A                      A                      A
 Frequencies --   1116.4905              1121.3303              1135.4388
 Red. masses --      2.4386                 1.8054                 2.1324
 Frc consts  --      1.7910                 1.3375                 1.6197
 IR Inten    --     67.7389                 7.6748                 0.0701

                     61                     62                     63
                      A                      A                      A
 Frequencies --   1147.7000              1153.7665              1181.4214
 Red. masses --      2.1531                 2.3629                 1.8578
 Frc consts  --      1.6710                 1.8532                 1.5278
 IR Inten    --      3.2589                 3.1733                 6.6537

                     64                     65                     66
                      A                      A                      A
 Frequencies --   1184.6935              1195.7203              1206.9560
 Red. masses --      2.3595                 1.7911                 1.6427
 Frc consts  --      1.9511                 1.5088                 1.4099
 IR Inten    --     10.1961                10.9156                 1.0079

                     67                     68                     69
                      A                      A                      A
 Frequencies --   1232.7084              1251.6501              1268.4555
 Red. masses --      1.2669                 1.3973                 1.2379
 Frc consts  --      1.1343                 1.2897                 1.1735
 IR Inten    --      2.7236                 7.1756                 3.5134

                     70                     71                     72
                      A                      A                      A
 Frequencies --   1278.5616              1287.3536              1297.0751
 Red. masses --      1.3706                 1.2399                 1.1848
 Frc consts  --      1.3201                 1.2107                 1.1745
 IR Inten    --      1.1578                 1.7261                 0.4957

                     73                     74                     75
                      A                      A                      A
 Frequencies --   1310.3351              1313.4749              1322.2563
 Red. masses --      1.1467                 1.1317                 1.1986
 Frc consts  --      1.1600                 1.1503                 1.2347
 IR Inten    --      1.0005                 1.2215                 1.7455

                     76                     77                     78
                      A                      A                      A
 Frequencies --   1332.9216              1334.3023              1350.3107
 Red. masses --      1.2656                 1.3507                 1.2658
 Frc consts  --      1.3248                 1.4168                 1.3598
 IR Inten    --      1.7680                 3.6119                 1.0274

                     79                     80                     81
                      A                      A                      A
 Frequencies --   1362.6961              1366.5254              1372.5929
 Red. masses --      1.2662                 1.3240                 1.3756
 Frc consts  --      1.3853                 1.4567                 1.5270
 IR Inten    --      2.3722                 0.7531                 4.0265

                     82                     83                     84
                      A                      A                      A
 Frequencies --   1377.1616              1382.6885              1386.3678
 Red. masses --      1.4219                 1.2940                 1.3468
 Frc consts  --      1.5889                 1.4576                 1.5251
 IR Inten    --      0.6298                 1.0608                 2.6759

                     85                     86                     87
                      A                      A                      A
 Frequencies --   1392.9818              1395.8351              1399.9406
 Red. masses --      1.3122                 1.3633                 1.2736
 Frc consts  --      1.5002                 1.5649                 1.4706
 IR Inten    --      2.7787                 2.3649                 3.8680

                     88                     89                     90
                      A                      A                      A
 Frequencies --   1408.0312              1410.5502              1411.9122
 Red. masses --      1.2667                 1.2689                 1.2270
 Frc consts  --      1.4796                 1.4875                 1.4411
 IR Inten    --      3.0067                 0.9488                 3.9109

                     91                     92                     93
                      A                      A                      A
 Frequencies --   1420.3135              1426.0230              1432.1917
 Red. masses --      1.3310                 1.3150                 1.3141
 Frc consts  --      1.5820                 1.5755                 1.5881
 IR Inten    --     10.6992                 5.0682                 5.2372

                     94                     95                     96
                      A                      A                      A
 Frequencies --   1471.9286              1482.9658              1484.0418
 Red. masses --      1.0827                 1.0776                 1.0704
 Frc consts  --      1.3820                 1.3963                 1.3890
 IR Inten    --      1.4758                 2.5218                 0.8495

                     97                     98                     99
                      A                      A                      A
 Frequencies --   1488.6183              1490.2160              1493.6681
 Red. masses --      1.0770                 1.0609                 1.0614
 Frc consts  --      1.4061                 1.3881                 1.3952
 IR Inten    --      1.6711                 0.3365                 0.6645

                    100                    101                    102
                      A                      A                      A
 Frequencies --   1496.5391              1498.1562              1500.2934
 Red. masses --      1.0708                 1.0429                 1.0404
 Frc consts  --      1.4130                 1.3791                 1.3798
 IR Inten    --      3.5517                 4.2627                 5.7370

                    103                    104                    105
                      A                      A                      A
 Frequencies --   1501.6410              1505.9448              1507.8554
 Red. masses --      1.0598                 1.0759                 1.0679
 Frc consts  --      1.4079                 1.4375                 1.4305
 IR Inten    --      3.1206                 6.0803                 6.6916

                    106                    107                    108
                      A                      A                      A
 Frequencies --   1508.6465              1512.4279              1525.3088
 Red. masses --      1.0864                 1.0692                 1.0446
 Frc consts  --      1.4569                 1.4410                 1.4320
 IR Inten    --      1.4579                 7.6890                 2.9437

                    109                    110                    111
                      A                      A                      A
 Frequencies --   1534.4536              2985.6089              2992.9475
 Red. masses --      1.0732                 1.0690                 1.0683
 Frc consts  --      1.4888                 5.6140                 5.6385
 IR Inten    --      1.9926                34.1721                 1.8801

                    112                    113                    114
                      A                      A                      A
 Frequencies --   2994.3949              3003.0175              3007.0235
 Red. masses --      1.0758                 1.0617                 1.0735
 Frc consts  --      5.6833                 5.6412                 5.7189
 IR Inten    --     16.1171                24.1361                 2.1240

                    115                    116                    117
                      A                      A                      A
 Frequencies --   3011.9998              3017.9724              3021.4732
 Red. masses --      1.0717                 1.0722                 1.0683
 Frc consts  --      5.7284                 5.7539                 5.7464
 IR Inten    --      4.8077                19.6056                 9.9738

                    118                    119                    120
                      A                      A                      A
 Frequencies --   3022.9833              3025.8355              3029.1398
 Red. masses --      1.0556                 1.0679                 1.0577
 Frc consts  --      5.6836                 5.7606                 5.7178
 IR Inten    --     28.4154                49.2898                23.0163

                    121                    122                    123
                      A                      A                      A
 Frequencies --   3029.9319              3031.0107              3031.3339
 Red. masses --      1.0389                 1.0633                 1.0599
 Frc consts  --      5.6191                 5.7557                 5.7385
 IR Inten    --     23.2740                29.8910                29.4502

                    124                    125                    126
                      A                      A                      A
 Frequencies --   3034.8401              3036.1303              3038.4252
 Red. masses --      1.0588                 1.0874                 1.0476
 Frc consts  --      5.7454                 5.9058                 5.6984
 IR Inten    --     30.2133                 3.4212                23.8111

                    127                    128                    129
                      A                      A                      A
 Frequencies --   3044.0243              3047.5740              3050.7552
 Red. masses --      1.0989                 1.0920                 1.0902
 Frc consts  --      5.9991                 5.9757                 5.9780
 IR Inten    --     22.1756                49.3074                 8.5567

                    130                    131                    132
                      A                      A                      A
 Frequencies --   3055.0139              3061.3444              3070.5303
 Red. masses --      1.0991                 1.0956                 1.1016
 Frc consts  --      6.0437                 6.0497                 6.1195
 IR Inten    --     58.0779                72.1542                17.0449

                    133                    134                    135
                      A                      A                      A
 Frequencies --   3071.5387              3091.8117              3092.8718
 Red. masses --      1.1018                 1.0967                 1.0998
 Frc consts  --      6.1244                 6.1770                 6.1985
 IR Inten    --     89.4618                31.7157                58.4176

                    136                    137                    138
                      A                      A                      A
 Frequencies --   3097.2612              3099.1738              3105.9474
 Red. masses --      1.1009                 1.0958                 1.1003
 Frc consts  --      6.2221                 6.2012                 6.2537
 IR Inten    --     79.9978                20.6998                31.7361

                    139                    140                    141
                      A                      A                      A
 Frequencies --   3108.9248              3127.6712              3147.6165
 Red. masses --      1.0993                 1.1004                 1.0958
 Frc consts  --      6.2599                 6.3424                 6.3965
 IR Inten    --     38.5513                23.5935                 6.9305

 - Thermochemistry -
 -------------------
 Temperature   298.150 Kelvin.  Pressure   1.00000 Atm.
 Atom     1 has atomic number  6 and mass  12.00000

 Molecular mass:   240.24532 amu.
 Principal axes and moments of inertia in atomic units:
                           1         2         3
     Eigenvalues --  3649.551145759.952118178.46998
           X            0.99999  -0.00427   0.00109
           Y            0.00428   0.99995  -0.00925
           Z           -0.00105   0.00926   0.99996
 This molecule is an asymmetric top.
 Rotational symmetry number  1.
 Warning -- assumption of classical behavior for rotation
           may cause significant error
 Rotational temperatures (Kelvin)      0.02373     0.01504     0.01059
 Rotational constants (GHZ):           0.49451     0.31333     0.22067
 Zero-point vibrational energy    1200616.5 (Joules/Mol)
                                  286.95423 (Kcal/Mol)
 Warning -- explicit consideration of  31 degrees of freedom as
           vibrations may cause significant error
 Vibrational temperatures:     37.61    53.51    60.19    83.42   120.99
          (Kelvin)            141.61   162.08   181.29   215.74   271.85
                              295.16   307.21   317.25   328.07   341.61
                              351.55   373.32   398.07   420.44   442.03
                              472.78   486.62   501.72   537.07   574.27
                              599.99   620.47   665.25   725.95   810.50
                              868.11   925.46  1089.66  1095.28  1109.71
                             1116.23  1162.14  1187.93  1209.34  1261.46
                             1288.37  1305.77  1315.72  1341.61  1365.58
                             1383.83  1396.12  1399.93  1423.04  1461.05
                             1479.22  1496.24  1509.61  1514.47  1533.11
                             1567.00  1581.62  1606.38  1613.34  1633.64
                             1651.28  1660.01  1699.80  1704.51  1720.37
                             1736.54  1773.59  1800.85  1825.02  1839.56
                             1852.21  1866.20  1885.28  1889.80  1902.43
                             1917.78  1919.76  1942.80  1960.62  1966.13
                             1974.86  1981.43  1989.38  1994.67  2004.19
                             2008.30  2014.20  2025.84  2029.47  2031.43
                             2043.51  2051.73  2060.60  2117.78  2133.66
                             2135.21  2141.79  2144.09  2149.06  2153.19
                             2155.51  2158.59  2160.53  2166.72  2169.47
                             2170.61  2176.05  2194.58  2207.74  4295.63
                             4306.18  4308.27  4320.67  4326.44  4333.60
                             4342.19  4347.23  4349.40  4353.50  4358.26
                             4359.40  4360.95  4361.41  4366.46  4368.31
                             4371.62  4379.67  4384.78  4389.36  4395.48
                             4404.59  4417.81  4419.26  4448.43  4449.95
                             4456.27  4459.02  4468.77  4473.05  4500.02
                             4528.72

 Zero-point correction=                           0.457291 (Hartree/Particle)
 Thermal correction to Energy=                    0.477650
 Thermal correction to Enthalpy=                  0.478594
 Thermal correction to Gibbs Free Energy=         0.408358
 Sum of electronic and zero-point Energies=           -703.789182
 Sum of electronic and thermal Energies=              -703.768823
 Sum of electronic and thermal Enthalpies=            -703.767879
 Sum of electronic and thermal Free Energies=         -703.838114

                     E (Thermal)             CV                S
                      KCal/Mol        Cal/Mol-Kelvin    Cal/Mol-Kelvin
 Total                  299.730             77.806            147.823
 Electronic               0.000              0.000              0.000
 Translational            0.889              2.981             42.331
 Rotational               0.889              2.981             33.508
 Vibrational            297.952             71.845             71.985
 Vibration     1          0.593              1.985              6.103
 Vibration     2          0.594              1.982              5.403
 Vibration     3          0.594              1.980              5.170
 Vibration     4          0.596              1.974              4.525
 Vibration     5          0.601              1.960              3.793
 Vibration     6          0.604              1.950              3.485
 Vibration     7          0.607              1.939              3.223
 Vibration     8          0.611              1.927              3.006
 Vibration     9          0.618              1.903              2.673
 Vibration    10          0.633              1.855              2.238
 Vibration    11          0.640              1.833              2.086
 Vibration    12          0.644              1.820              2.013
 Vibration    13          0.647              1.810              1.955
 Vibration    14          0.651              1.798              1.894
 Vibration    15          0.656              1.783              1.822
 Vibration    16          0.660              1.772              1.771
 Vibration    17          0.668              1.747              1.665
 Vibration    18          0.678              1.717              1.554
 Vibration    19          0.688              1.688              1.461
 Vibration    20          0.697              1.660              1.377
 Vibration    21          0.712              1.618              1.267
 Vibration    22          0.719              1.599              1.221
 Vibration    23          0.726              1.578              1.172
 Vibration    24          0.745              1.527              1.066
 Vibration    25          0.765              1.472              0.966
 Vibration    26          0.780              1.433              0.902
 Vibration    27          0.792              1.402              0.855
 Vibration    28          0.820              1.334              0.759
 Vibration    29          0.860              1.240              0.647
 Vibration    30          0.919              1.111              0.517
 Vibration    31          0.962              1.025              0.444

 Optimization completed.
    -- Stationary point found.
 Normal termination of Gaussian 16 at Tue May 23 16:18:03 2023.
