 Gaussian 16, Revision A.03,
 Gaussian 16:  ES64L-G16RevA.03 25-Dec-2016

 -----------------------------
 # opt freq b3lyp/6-31g(2df,p)
 -----------------------------

 -------------------
 Title Card Required
 -------------------
 Symbolic Z-matrix:
 Charge =  0 Multiplicity = 1

 SCF Done:  E(RB3LYP) =  -980.816921086     A.U. after   15 cycles
 SCF Done:  E(RB3LYP) =  -980.827790905     A.U. after   13 cycles
 SCF Done:  E(RB3LYP) =  -980.830221139     A.U. after   13 cycles
 SCF Done:  E(RB3LYP) =  -980.831116589     A.U. after   12 cycles
 SCF Done:  E(RB3LYP) =  -980.831927327     A.U. after   13 cycles
 SCF Done:  E(RB3LYP) =  -980.833308381     A.U. after   13 cycles
 SCF Done:  E(RB3LYP) =  -980.834808277     A.U. after   12 cycles
 SCF Done:  E(RB3LYP) =  -980.836997175     A.U. after   14 cycles
 SCF Done:  E(RB3LYP) =  -980.839977515     A.U. after   13 cycles
 SCF Done:  E(RB3LYP) =  -980.842042794     A.U. after   12 cycles
 SCF Done:  E(RB3LYP) =  -980.843565251     A.U. after   11 cycles
 SCF Done:  E(RB3LYP) =  -980.843623255     A.U. after   10 cycles
 SCF Done:  E(RB3LYP) =  -980.843647938     A.U. after   10 cycles
 SCF Done:  E(RB3LYP) =  -980.843655000     A.U. after    9 cycles
 SCF Done:  E(RB3LYP) =  -980.843656315     A.U. after    7 cycles
 SCF Done:  E(RB3LYP) =  -980.843656692     A.U. after    7 cycles
 SCF Done:  E(RB3LYP) =  -980.843656973     A.U. after    7 cycles
 SCF Done:  E(RB3LYP) =  -980.843657070     A.U. after    6 cycles
 SCF Done:  E(RB3LYP) =  -980.843657130     A.U. after    6 cycles
 Optimization completed.
    -- Stationary point found.
 Normal termination of Gaussian 16 at Sat May 27 14:12:46 2023.

 ----------------------------------------------------------------------
 #N Geom=AllCheck Guess=TCheck SCRF=Check GenChk RB3LYP/6-31G(2df,p) Fr
 eq
 ----------------------------------------------------------------------

 Structure from the checkpoint file:  "CCCqCrdCdC1CCCqdOrSCCC1C.chk"
 -------------------
 Title Card Required
 -------------------
 Charge =  0 Multiplicity = 1

                         Standard orientation:
 ---------------------------------------------------------------------
 Center     Atomic      Atomic             Coordinates (Angstroms)
 Number     Number       Type             X           Y           Z
 ---------------------------------------------------------------------
      1          6           0        4.410181   -1.282460    0.475174
      2          6           0        3.697839    0.012825    0.052613
      3          6           0        2.291819   -0.211086   -0.482521
      4          6           0        2.159557   -0.927405   -1.810677
      5          6           0        1.242230    0.200165    0.180622
      6          6           0        0.201422    0.594548    0.871044
      7          6           0       -0.413638   -0.334865    1.902725
      8          6           0       -1.887757   -0.722156    1.652361
      9          6           0       -2.118788   -1.497694    0.366390
     10          8           0       -2.283713   -2.690948    0.359335
     11         16           0       -2.288466   -0.706467   -1.255189
     12          6           0       -1.719923    1.053888   -1.358322
     13          6           0       -1.746594    1.961259   -0.124553
     14          6           0       -0.421881    1.979261    0.699535
     15          6           0        0.564478    2.987995    0.094125
     16          1           0        5.412155   -1.062896    0.857040
     17          1           0        4.521379   -1.977542   -0.362400
     18          1           0        3.850793   -1.794944    1.264066
     19          1           0        4.293438    0.512091   -0.724529
     20          1           0        3.653452    0.697364    0.904821
     21          1           0        2.611971   -1.924802   -1.767898
     22          1           0        2.683060   -0.374083   -2.600914
     23          1           0        1.113688   -1.046443   -2.100135
     24          1           0       -0.371456    0.146325    2.889705
     25          1           0        0.183525   -1.248274    1.966793
     26          1           0       -2.529720    0.159564    1.678321
     27          1           0       -2.213736   -1.395116    2.450912
     28          1           0       -2.395045    1.447389   -2.123116
     29          1           0       -0.716147    1.027208   -1.787978
     30          1           0       -2.607654    1.719512    0.501904
     31          1           0       -1.924655    2.985237   -0.474994
     32          1           0       -0.682777    2.336712    1.705862
     33          1           0        0.842133    2.713963   -0.928598
     34          1           0        1.485840    3.035555    0.680683
     35          1           0        0.121240    3.988582    0.067704
 ---------------------------------------------------------------------

 SCF Done:  E(RB3LYP) =  -980.843657130     A.U. after    1 cycles

 The electronic state is 1-A.
 Alpha  occ. eigenvalues --  -88.87348 -19.13230 -10.28821 -10.22022 -10.20383
 Alpha  occ. eigenvalues --  -10.20096 -10.20073 -10.19895 -10.19624 -10.19555
 Alpha  occ. eigenvalues --  -10.18965 -10.18160 -10.17900 -10.17860 -10.17782
 Alpha  occ. eigenvalues --   -7.93724  -5.90184  -5.89766  -5.89347  -1.04686
 Alpha  occ. eigenvalues --   -0.84692  -0.81406  -0.79364  -0.78017  -0.74069
 Alpha  occ. eigenvalues --   -0.71811  -0.70607  -0.66788  -0.64797  -0.62965
 Alpha  occ. eigenvalues --   -0.60009  -0.57604  -0.51901  -0.49314  -0.48302
 Alpha  occ. eigenvalues --   -0.47488  -0.46526  -0.45287  -0.44698  -0.43211
 Alpha  occ. eigenvalues --   -0.42496  -0.42149  -0.41534  -0.40815  -0.40001
 Alpha  occ. eigenvalues --   -0.39569  -0.38919  -0.38783  -0.37682  -0.36983
 Alpha  occ. eigenvalues --   -0.36518  -0.35049  -0.34303  -0.34025  -0.33783
 Alpha  occ. eigenvalues --   -0.32606  -0.30721  -0.25479  -0.24260  -0.23978
 Alpha  occ. eigenvalues --   -0.23219
 Alpha virt. eigenvalues --   -0.01439   0.02225   0.02701   0.04947   0.05658
 Alpha virt. eigenvalues --    0.07609   0.08660   0.09837   0.11644   0.12045
 Alpha virt. eigenvalues --    0.12299   0.13190   0.13490   0.14064   0.15103

 Mulliken charges:
               1
     1  C   -0.369793
     2  C   -0.245055
     3  C   -0.010453
     4  C   -0.470284
     5  C    0.350863
     6  C   -0.065161
     7  C   -0.286415
     8  C   -0.295176
     9  C    0.370440
    10  O   -0.299037
    11  S   -0.161373
    12  C   -0.221950
    13  C   -0.223034
    14  C   -0.046919
    15  C   -0.402338
    16  H    0.114661
    17  H    0.120775
    18  H    0.121492
    19  H    0.101879
    20  H    0.102774
    21  H    0.131997
    22  H    0.120935
    23  H    0.147676
    24  H    0.109000
    25  H    0.121271
    26  H    0.121528
    27  H    0.129834
    28  H    0.137141
    29  H    0.143190
    30  H    0.115256
    31  H    0.105972
    32  H    0.078070
    33  H    0.123421
    34  H    0.119920
    35  H    0.108893
 Sum of Mulliken charges =  -0.00000

 Dipole moment (field-independent basis, Debye):
    X=              1.8301    Y=              3.7830    Z=              1.0329  Tot=              4.3275
 Quadrupole moment (field-independent basis, Debye-Ang):
   XX=            -99.7886   YY=           -105.7863   ZZ=            -95.4016
   XY=            -10.3125   XZ=             -3.9325   YZ=             -1.7943

  Exact polarizability: 183.327  -8.592 158.269 -11.692  -1.622 148.479
 Approx polarizability: 249.677 -13.722 249.137 -28.054  -7.407 241.939

                      1                      2                      3
                      A                      A                      A
 Frequencies --     32.7229                41.1796                51.3297
 Red. masses --      5.4909                 3.8975                 3.1046
 Frc consts  --      0.0035                 0.0039                 0.0048
 IR Inten    --      2.2524                 0.1935                 0.1251

                      4                      5                      6
                      A                      A                      A
 Frequencies --     74.3372                81.0454                96.3958
 Red. masses --      2.7853                 4.1958                 3.0026
 Frc consts  --      0.0091                 0.0162                 0.0164
 IR Inten    --      0.0988                 0.5944                 0.7791

                      7                      8                      9
                      A                      A                      A
 Frequencies --    119.8008               152.9271               176.3723
 Red. masses --      2.9728                 2.6487                 1.1436
 Frc consts  --      0.0251                 0.0365                 0.0210
 IR Inten    --      0.2862                 3.2764                 0.1995

                     10                     11                     12
                      A                      A                      A
 Frequencies --    205.9393               220.0201               229.7168
 Red. masses --      3.4788                 1.6236                 1.5958
 Frc consts  --      0.0869                 0.0463                 0.0496
 IR Inten    --      0.6491                 0.3634                 0.8727

                     13                     14                     15
                      A                      A                      A
 Frequencies --    245.9208               258.1916               259.7788
 Red. masses --      1.7471                 2.2543                 1.9365
 Frc consts  --      0.0623                 0.0885                 0.0770
 IR Inten    --      0.4966                 0.2051                 0.0573

                     16                     17                     18
                      A                      A                      A
 Frequencies --    281.5336               353.7786               360.8797
 Red. masses --      3.1675                 2.4744                 2.4708
 Frc consts  --      0.1479                 0.1825                 0.1896
 IR Inten    --      1.6295                 1.9857                 1.6533

                     19                     20                     21
                      A                      A                      A
 Frequencies --    378.8491               408.9885               456.4364
 Red. masses --      2.3137                 9.4304                 3.6415
 Frc consts  --      0.1957                 0.9294                 0.4470
 IR Inten    --      1.2490                 0.6035                 6.4444

                     22                     23                     24
                      A                      A                      A
 Frequencies --    467.6705               532.6455               538.0699
 Red. masses --      2.3653                 2.8378                 4.0849
 Frc consts  --      0.3048                 0.4744                 0.6968
 IR Inten    --      0.6619                 1.5807                 2.1008

                     25                     26                     27
                      A                      A                      A
 Frequencies --    571.2993               609.9532               626.0600
 Red. masses --      3.5148                 3.7105                 4.5794
 Frc consts  --      0.6759                 0.8133                 1.0575
 IR Inten    --     29.5734                 3.0665                 0.4486

                     28                     29                     30
                      A                      A                      A
 Frequencies --    638.2840               670.3360               719.7587
 Red. masses --      4.8464                 4.0708                 2.6297
 Frc consts  --      1.1633                 1.0778                 0.8026
 IR Inten    --      2.4052                 8.4833                 5.8673

                     31                     32                     33
                      A                      A                      A
 Frequencies --    774.8116               790.2560               829.4622
 Red. masses --      2.7231                 1.2339                 2.2584
 Frc consts  --      0.9632                 0.4540                 0.9155
 IR Inten    --      3.1522                 1.8402                 4.6734

                     34                     35                     36
                      A                      A                      A
 Frequencies --    863.1398               893.0636               928.2911
 Red. masses --      2.2187                 1.8147                 1.9138
 Frc consts  --      0.9739                 0.8528                 0.9717
 IR Inten    --     13.9888                 2.4868                12.7834

                     37                     38                     39
                      A                      A                      A
 Frequencies --    949.3575               956.7003               998.6647
 Red. masses --      2.0350                 1.9500                 2.0016
 Frc consts  --      1.0806                 1.0516                 1.1761
 IR Inten    --     12.3429                 7.9708                 4.2259

                     40                     41                     42
                      A                      A                      A
 Frequencies --   1008.2847              1011.9842              1030.5251
 Red. masses --      2.0352                 1.6079                 1.6197
 Frc consts  --      1.2190                 0.9702                 1.0135
 IR Inten    --     13.9187                11.8271                 1.3155

                     43                     44                     45
                      A                      A                      A
 Frequencies --   1045.9658              1067.6218              1079.5311
 Red. masses --      1.9053                 2.2656                 2.0477
 Frc consts  --      1.2282                 1.5215                 1.4060
 IR Inten    --     19.9915                47.5243                 8.6540

                     46                     47                     48
                      A                      A                      A
 Frequencies --   1092.2980              1103.5830              1137.2070
 Red. masses --      1.8235                 1.7534                 2.1201
 Frc consts  --      1.2818                 1.2582                 1.6155
 IR Inten    --     15.4301                 5.3940                 4.7185

                     49                     50                     51
                      A                      A                      A
 Frequencies --   1141.8563              1199.7776              1203.7997
 Red. masses --      1.7479                 1.4371                 2.5147
 Frc consts  --      1.3427                 1.2188                 2.1471
 IR Inten    --     15.9088                 6.2640                 4.5063

                     52                     53                     54
                      A                      A                      A
 Frequencies --   1210.5073              1238.6020              1245.7075
 Red. masses --      1.5430                 1.2076                 1.2231
 Frc consts  --      1.3322                 1.0916                 1.1183
 IR Inten    --     14.7064                 5.5369                10.3575

                     55                     56                     57
                      A                      A                      A
 Frequencies --   1287.3711              1308.3110              1320.6214
 Red. masses --      1.2578                 1.3966                 1.2284
 Frc consts  --      1.2282                 1.4084                 1.2622
 IR Inten    --      4.2843                 2.7421                13.2062

                     58                     59                     60
                      A                      A                      A
 Frequencies --   1333.8793              1346.0003              1359.7936
 Red. masses --      1.3479                 1.3734                 1.3352
 Frc consts  --      1.4130                 1.4661                 1.4546
 IR Inten    --      9.0447                 6.8647                 4.9704

                     61                     62                     63
                      A                      A                      A
 Frequencies --   1361.0149              1374.6027              1402.5261
 Red. masses --      1.4795                 1.4192                 1.2325
 Frc consts  --      1.6147                 1.5799                 1.4284
 IR Inten    --      2.8984                15.2208                 3.1034

                     64                     65                     66
                      A                      A                      A
 Frequencies --   1410.0767              1411.8296              1449.5723
 Red. masses --      1.2065                 1.2414                 2.0097
 Frc consts  --      1.4134                 1.4579                 2.4881
 IR Inten    --      2.6172                 5.6658                 4.1974

                     67                     68                     69
                      A                      A                      A
 Frequencies --   1465.3851              1469.5896              1475.3427
 Red. masses --      1.0903                 1.0863                 1.0656
 Frc consts  --      1.3794                 1.3822                 1.3666
 IR Inten    --      3.5997                 5.3999                 2.3580

                     70                     71                     72
                      A                      A                      A
 Frequencies --   1479.4180              1485.8773              1491.1415
 Red. masses --      1.0960                 1.0516                 1.0499
 Frc consts  --      1.4133                 1.3680                 1.3755
 IR Inten    --      8.9380                 5.6963                 3.7476

                     73                     74                     75
                      A                      A                      A
 Frequencies --   1497.3352              1499.6835              1504.8011
 Red. masses --      1.0532                 1.0758                 1.1344
 Frc consts  --      1.3913                 1.4256                 1.5134
 IR Inten    --      1.5278                 2.8368                 7.8839

                     76                     77                     78
                      A                      A                      A
 Frequencies --   1506.6322              1509.7419              1778.1398
 Red. masses --      1.0771                 1.2016                12.0255
 Frc consts  --      1.4405                 1.6137                22.4020
 IR Inten    --      4.5886                 4.0006               255.4598

                     79                     80                     81
                      A                      A                      A
 Frequencies --   2056.3076              2997.4597              3010.0681
 Red. masses --     11.2858                 1.0822                 1.0667
 Frc consts  --     28.1162                 5.7290                 5.6945
 IR Inten    --      8.3112                18.8611                34.3095

                     82                     83                     84
                      A                      A                      A
 Frequencies --   3010.7390              3020.6697              3031.9922
 Red. masses --      1.0678                 1.0403                 1.0659
 Frc consts  --      5.7026                 5.5928                 5.7730
 IR Inten    --     32.7798                37.8607                19.1913

                     85                     86                     87
                      A                      A                      A
 Frequencies --   3037.6542              3038.0491              3061.2797
 Red. masses --      1.0350                 1.0401                 1.0584
 Frc consts  --      5.6269                 5.6563                 5.8441
 IR Inten    --     36.2674                21.1713                15.4116

                     88                     89                     90
                      A                      A                      A
 Frequencies --   3067.8402              3073.4663              3076.5421
 Red. masses --      1.0623                 1.0968                 1.0948
 Frc consts  --      5.8904                 6.1041                 6.1056
 IR Inten    --     10.8574                17.7191                 6.8465

                     91                     92                     93
                      A                      A                      A
 Frequencies --   3089.9304              3094.1918              3104.4472
 Red. masses --      1.0952                 1.0935                 1.1014
 Frc consts  --      6.1611                 6.1684                 6.2543
 IR Inten    --      8.8697                20.1590                28.6882

                     94                     95                     96
                      A                      A                      A
 Frequencies --   3106.7116              3110.9680              3113.4074
 Red. masses --      1.1015                 1.1040                 1.1018
 Frc consts  --      6.2636                 6.2952                 6.2925
 IR Inten    --     33.9455                21.8597                30.8575

                     97                     98                     99
                      A                      A                      A
 Frequencies --   3115.0345              3128.4333              3129.6989
 Red. masses --      1.1012                 1.0993                 1.0975
 Frc consts  --      6.2957                 6.3390                 6.3338
 IR Inten    --     23.4847                14.1508                15.1562

 - Thermochemistry -
 -------------------
 Temperature   298.150 Kelvin.  Pressure   1.00000 Atm.
 Atom     1 has atomic number  6 and mass  12.00000

 Molecular mass:   224.12349 amu.
 Principal axes and moments of inertia in atomic units:
                           1         2         3
     Eigenvalues --  2675.465694900.923435685.61344
           X            0.99880  -0.04728  -0.01263
           Y            0.04717   0.99885  -0.00894
           Z            0.01304   0.00833   0.99988
 This molecule is an asymmetric top.
 Rotational symmetry number  1.
 Warning -- assumption of classical behavior for rotation
           may cause significant error
 Rotational temperatures (Kelvin)      0.03237     0.01767     0.01523
 Rotational constants (GHZ):           0.67455     0.36825     0.31742
 Zero-point vibrational energy     793511.7 (Joules/Mol)
                                  189.65385 (Kcal/Mol)
 Warning -- explicit consideration of  26 degrees of freedom as
           vibrations may cause significant error
 Vibrational temperatures:     47.08    59.25    73.85   106.95   116.61
          (Kelvin)            138.69   172.37   220.03   253.76   296.30
                              316.56   330.51   353.83   371.48   373.76
                              405.06   509.01   519.23   545.08   588.44
                              656.71   672.87   766.36   774.16   821.97
                              877.59   900.76   918.35   964.46  1035.57
                             1114.78  1137.00  1193.41  1241.87  1284.92
                             1335.60  1365.91  1376.48  1436.86  1450.70
                             1456.02  1482.70  1504.91  1536.07  1553.20
                             1571.57  1587.81  1636.19  1642.88  1726.21
                             1732.00  1741.65  1782.07  1792.30  1852.24
                             1882.37  1900.08  1919.15  1936.59  1956.44
                             1958.20  1977.75  2017.92  2028.79  2031.31
                             2085.61  2108.36  2114.41  2122.69  2128.55
                             2137.85  2145.42  2154.33  2157.71  2165.07
                             2167.71  2172.18  2558.35  2958.57  4312.68
                             4330.82  4331.78  4346.07  4362.36  4370.51
                             4371.08  4404.50  4413.94  4422.03  4426.46
                             4445.72  4451.85  4466.61  4469.87  4475.99
                             4479.50  4481.84  4501.12  4502.94

 Zero-point correction=                           0.302233 (Hartree/Particle)
 Thermal correction to Energy=                    0.319480
 Thermal correction to Enthalpy=                  0.320424
 Thermal correction to Gibbs Free Energy=         0.256546
 Sum of electronic and zero-point Energies=           -980.541424
 Sum of electronic and thermal Energies=              -980.524177
 Sum of electronic and thermal Enthalpies=            -980.523233
 Sum of electronic and thermal Free Energies=         -980.587112

                     E (Thermal)             CV                S
                      KCal/Mol        Cal/Mol-Kelvin    Cal/Mol-Kelvin
 Total                  200.477             63.820            134.444
 Electronic               0.000              0.000              0.000
 Translational            0.889              2.981             42.124
 Rotational               0.889              2.981             32.677
 Vibrational            198.699             57.858             59.643
 Vibration     1          0.594              1.983              5.657
 Vibration     2          0.594              1.981              5.202
 Vibration     3          0.596              1.977              4.765
 Vibration     4          0.599              1.966              4.035
 Vibration     5          0.600              1.962              3.865
 Vibration     6          0.603              1.952              3.526
 Vibration     7          0.609              1.933              3.104
 Vibration     8          0.619              1.899              2.635
 Vibration     9          0.628              1.871              2.366
 Vibration    10          0.640              1.831              2.079
 Vibration    11          0.647              1.811              1.959
 Vibration    12          0.652              1.796              1.881
 Vibration    13          0.660              1.770              1.760
 Vibration    14          0.667              1.749              1.674
 Vibration    15          0.668              1.746              1.663
 Vibration    16          0.681              1.708              1.524
 Vibration    17          0.730              1.568              1.149
 Vibration    18          0.735              1.553              1.118
 Vibration    19          0.749              1.515              1.044
 Vibration    20          0.773              1.451              0.930
 Vibration    21          0.815              1.347              0.777
 Vibration    22          0.825              1.322              0.744
 Vibration    23          0.888              1.178              0.581
 Vibration    24          0.893              1.166              0.569
 Vibration    25          0.927              1.093              0.502
 Vibration    26          0.969              1.011              0.433

 Optimization completed.
    -- Stationary point found.
 Normal termination of Gaussian 16 at Sat May 27 17:24:04 2023.
