 Gaussian 16, Revision A.03,
 Gaussian 16:  ES64L-G16RevA.03 25-Dec-2016

 -----------------------------
 # opt freq b3lyp/6-31g(2df,p)
 -----------------------------

 -------------------
 Title Card Required
 -------------------
 Symbolic Z-matrix:
 Charge =  0 Multiplicity = 1

 SCF Done:  E(RB3LYP) =  -355.051636751     A.U. after   11 cycles
 SCF Done:  E(RB3LYP) =  -355.053570940     A.U. after    9 cycles
 SCF Done:  E(RB3LYP) =  -355.053945873     A.U. after    8 cycles
 SCF Done:  E(RB3LYP) =  -355.053978271     A.U. after    8 cycles
 SCF Done:  E(RB3LYP) =  -355.053985496     A.U. after    8 cycles
 SCF Done:  E(RB3LYP) =  -355.053987731     A.U. after    6 cycles
 SCF Done:  E(RB3LYP) =  -355.053988148     A.U. after    6 cycles
 SCF Done:  E(RB3LYP) =  -355.053988231     A.U. after    5 cycles
 SCF Done:  E(RB3LYP) =  -355.053988247     A.U. after    5 cycles
 Optimization completed.
    -- Stationary point found.
 Normal termination of Gaussian 16 at Sun May 28 10:43:35 2023.

 ----------------------------------------------------------------------
 #N Geom=AllCheck Guess=TCheck SCRF=Check GenChk RB3LYP/6-31G(2df,p) Fr
 eq
 ----------------------------------------------------------------------

 Structure from the checkpoint file:  "CCCqCrCCCqCrC.chk"
 -------------------
 Title Card Required
 -------------------
 Charge =  0 Multiplicity = 1

                         Standard orientation:
 ---------------------------------------------------------------------
 Center     Atomic      Atomic             Coordinates (Angstroms)
 Number     Number       Type             X           Y           Z
 ---------------------------------------------------------------------
      1          6           0        3.965713   -0.520017    0.350227
      2          6           0        2.589698   -0.768767   -0.276377
      3          6           0        1.474894    0.188299    0.190347
      4          6           0        1.772836    1.642928   -0.202982
      5          6           0        0.111147   -0.289801   -0.348771
      6          6           0       -1.110061    0.424232    0.244723
      7          6           0       -2.470784   -0.058498   -0.294944
      8          6           0       -2.774459   -1.516102    0.080671
      9          6           0       -3.597464    0.863807    0.191313
     10          1           0        4.682311   -1.284280    0.032782
     11          1           0        3.912615   -0.550607    1.444654
     12          1           0        4.379597    0.452049    0.065802
     13          1           0        2.280649   -1.796995   -0.048291
     14          1           0        2.670566   -0.714769   -1.371307
     15          1           0        1.434502    0.135492    1.289558
     16          1           0        1.827133    1.745491   -1.294078
     17          1           0        2.725155    1.986656    0.210525
     18          1           0        1.000556    2.328377    0.156845
     19          1           0        0.028620   -1.366231   -0.155682
     20          1           0        0.100852   -0.177031   -1.443164
     21          1           0       -1.032995    1.501180    0.052651
     22          1           0       -1.101351    0.310512    1.339090
     23          1           0       -2.434522    0.006629   -1.392585
     24          1           0       -2.796380   -1.640178    1.170486
     25          1           0       -2.030310   -2.210883   -0.318879
     26          1           0       -3.751896   -1.823574   -0.306020
     27          1           0       -3.674446    0.843807    1.285311
     28          1           0       -4.567346    0.555627   -0.213408
     29          1           0       -3.422437    1.902244   -0.109527
 ---------------------------------------------------------------------

 SCF Done:  E(RB3LYP) =  -355.053988247     A.U. after    1 cycles

 The electronic state is 1-A.
 Alpha  occ. eigenvalues --  -10.18117 -10.17931 -10.17279 -10.17026 -10.16989
 Alpha  occ. eigenvalues --  -10.16846 -10.16671 -10.16666 -10.16613  -0.81483
 Alpha  occ. eigenvalues --   -0.79066  -0.73342  -0.69808  -0.67618  -0.64753
 Alpha  occ. eigenvalues --   -0.59943  -0.55141  -0.54839  -0.46587  -0.45525
 Alpha  occ. eigenvalues --   -0.44417  -0.42768  -0.41577  -0.40720  -0.40077
 Alpha  occ. eigenvalues --   -0.37796  -0.37545  -0.36697  -0.35732  -0.34873
 Alpha  occ. eigenvalues --   -0.33781  -0.33396  -0.32004  -0.31469  -0.31220
 Alpha  occ. eigenvalues --   -0.30282  -0.29197
 Alpha virt. eigenvalues --    0.08228   0.09561   0.11325   0.11874   0.13085
 Alpha virt. eigenvalues --    0.14015   0.14205   0.15238   0.15579   0.16194
 Alpha virt. eigenvalues --    0.16762   0.17573   0.17770   0.18752   0.19199

 Mulliken charges:
               1
     1  C   -0.391552
     2  C   -0.165642
     3  C    0.047439
     4  C   -0.390491
     5  C   -0.190381
     6  C   -0.179831
     7  C    0.047215
     8  C   -0.380855
     9  C   -0.388664
    10  H    0.110129
    11  H    0.111475
    12  H    0.117201
    13  H    0.089148
    14  H    0.089805
    15  H    0.064668
    16  H    0.108228
    17  H    0.112535
    18  H    0.114181
    19  H    0.090044
    20  H    0.086259
    21  H    0.090404
    22  H    0.085817
    23  H    0.068414
    24  H    0.108724
    25  H    0.113867
    26  H    0.107857
    27  H    0.109792
    28  H    0.106713
    29  H    0.107501
 Sum of Mulliken charges =  -0.00000

 Dipole moment (field-independent basis, Debye):
    X=              0.0139    Y=             -0.0350    Z=             -0.0405  Tot=              0.0553
 Quadrupole moment (field-independent basis, Debye-Ang):
   XX=            -62.3471   YY=            -61.7675   ZZ=            -60.8641
   XY=             -0.0289   XZ=              0.1603   YZ=             -0.1814

  Exact polarizability: 120.510  -0.922  95.399   0.278   0.095  85.922
 Approx polarizability: 138.158   0.164 134.956   0.060  -0.338 135.491

                      1                      2                      3
                      A                      A                      A
 Frequencies --     27.1631                59.9768                91.1396
 Red. masses --      2.3227                 2.6438                 2.0007
 Frc consts  --      0.0010                 0.0056                 0.0098
 IR Inten    --      0.0030                 0.0146                 0.0235

                      4                      5                      6
                      A                      A                      A
 Frequencies --    108.8329               119.7868               208.0697
 Red. masses --      2.0524                 2.1652                 1.0527
 Frc consts  --      0.0143                 0.0183                 0.0269
 IR Inten    --      0.0047                 0.0006                 0.0477

                      7                      8                      9
                      A                      A                      A
 Frequencies --    221.4878               243.2074               246.8310
 Red. masses --      1.1464                 1.3677                 2.2120
 Frc consts  --      0.0331                 0.0477                 0.0794
 IR Inten    --      0.0154                 0.0008                 0.0093

                     10                     11                     12
                      A                      A                      A
 Frequencies --    256.1822               268.7999               326.3328
 Red. masses --      1.3034                 1.7744                 2.3941
 Frc consts  --      0.0504                 0.0755                 0.1502
 IR Inten    --      0.0133                 0.0071                 0.0045

                     13                     14                     15
                      A                      A                      A
 Frequencies --    396.4892               407.0227               413.8603
 Red. masses --      2.1324                 2.1584                 1.9744
 Frc consts  --      0.1975                 0.2107                 0.1992
 IR Inten    --      0.0267                 0.2679                 0.0448

                     16                     17                     18
                      A                      A                      A
 Frequencies --    466.4721               508.5930               753.4415
 Red. masses --      2.2214                 2.5610                 1.2757
 Frc consts  --      0.2848                 0.3903                 0.4267
 IR Inten    --      0.4401                 0.4488                 1.2644

                     19                     20                     21
                      A                      A                      A
 Frequencies --    772.3096               820.0368               840.5476
 Red. masses --      1.3871                 1.8493                 2.2087
 Frc consts  --      0.4875                 0.7327                 0.9194
 IR Inten    --      2.3653                 0.5255                 0.2123

                     22                     23                     24
                      A                      A                      A
 Frequencies --    912.4735               923.2944               927.0541
 Red. masses --      1.9299                 1.4186                 1.2385
 Frc consts  --      0.9467                 0.7125                 0.6271
 IR Inten    --      0.5771                 0.4590                 1.4448

                     25                     26                     27
                      A                      A                      A
 Frequencies --    956.7216               966.0034               973.1950
 Red. masses --      1.7154                 1.5481                 1.2257
 Frc consts  --      0.9251                 0.8512                 0.6840
 IR Inten    --      1.4153                 0.2723                 3.5992

                     28                     29                     30
                      A                      A                      A
 Frequencies --   1012.8096              1032.9136              1063.3234
 Red. masses --      1.7162                 2.5918                 1.2887
 Frc consts  --      1.0372                 1.6292                 0.8585
 IR Inten    --      2.6959                 0.1959                 0.3656

                     31                     32                     33
                      A                      A                      A
 Frequencies --   1067.2997              1113.9032              1168.7337
 Red. masses --      2.8571                 1.9866                 2.3151
 Frc consts  --      1.9176                 1.4523                 1.8632
 IR Inten    --      0.0946                 0.5242                 0.9678

                     34                     35                     36
                      A                      A                      A
 Frequencies --   1174.4328              1193.2562              1200.7850
 Red. masses --      1.8396                 1.7866                 2.1081
 Frc consts  --      1.4950                 1.4988                 1.7909
 IR Inten    --      4.3932                 6.4183                 0.1345

                     37                     38                     39
                      A                      A                      A
 Frequencies --   1242.1457              1278.6637              1300.3376
 Red. masses --      1.5034                 1.2128                 1.2228
 Frc consts  --      1.3667                 1.1683                 1.2182
 IR Inten    --      8.8111                 0.6808                 0.7398

                     40                     41                     42
                      A                      A                      A
 Frequencies --   1322.4431              1326.7798              1360.7196
 Red. masses --      1.2729                 1.1516                 1.3669
 Frc consts  --      1.3115                 1.1944                 1.4911
 IR Inten    --      0.1171                 0.1379                 3.6746

                     43                     44                     45
                      A                      A                      A
 Frequencies --   1371.6511              1379.6333              1383.4265
 Red. masses --      1.3575                 1.3592                 1.4663
 Frc consts  --      1.5048                 1.5243                 1.6535
 IR Inten    --      4.8832                 0.9694                 0.5266

                     46                     47                     48
                      A                      A                      A
 Frequencies --   1396.8687              1400.2557              1412.2483
 Red. masses --      1.4110                 1.2592                 1.2886
 Frc consts  --      1.6222                 1.4547                 1.5143
 IR Inten    --      0.9380                 2.7200                 2.6001

                     49                     50                     51
                      A                      A                      A
 Frequencies --   1414.6243              1421.7813              1473.6146
 Red. masses --      1.2449                 1.2420                 1.0778
 Frc consts  --      1.4678                 1.4792                 1.3790
 IR Inten    --      5.4105                 2.8652                 0.0288

                     52                     53                     54
                      A                      A                      A
 Frequencies --   1483.2140              1489.1193              1492.0451
 Red. masses --      1.0681                 1.0476                 1.0590
 Frc consts  --      1.3844                 1.3687                 1.3891
 IR Inten    --      0.0424                 0.7158                 2.0012

                     55                     56                     57
                      A                      A                      A
 Frequencies --   1496.6374              1498.6281              1499.6598
 Red. masses --      1.0473                 1.0624                 1.0731
 Frc consts  --      1.3821                 1.4057                 1.4220
 IR Inten    --      3.9494                 1.0501                 0.6037

                     58                     59                     60
                      A                      A                      A
 Frequencies --   1505.0807              1508.0480              1511.6875
 Red. masses --      1.0554                 1.0674                 1.0510
 Frc consts  --      1.4085                 1.4302                 1.4151
 IR Inten    --      2.8563                 3.7699                 7.9496

                     61                     62                     63
                      A                      A                      A
 Frequencies --   1514.9302              2980.0822              2989.5881
 Red. masses --      1.0450                 1.0800                 1.0780
 Frc consts  --      1.4130                 5.6511                 5.6767
 IR Inten    --      7.8920                 8.3322                 3.1168

                     64                     65                     66
                      A                      A                      A
 Frequencies --   2995.9586              3004.8959              3010.5668
 Red. masses --      1.0657                 1.0634                 1.0629
 Frc consts  --      5.6357                 5.6572                 5.6761
 IR Inten    --      0.4547                 6.3745                86.3359

                     67                     68                     69
                      A                      A                      A
 Frequencies --   3020.9626              3026.5924              3028.3190
 Red. masses --      1.0361                 1.0396                 1.0417
 Frc consts  --      5.5709                 5.6109                 5.6285
 IR Inten    --     30.8742                24.9673                22.3249

                     70                     71                     72
                      A                      A                      A
 Frequencies --   3031.3736              3037.4425              3043.3632
 Red. masses --      1.0394                 1.0911                 1.0970
 Frc consts  --      5.6276                 5.9311                 5.9866
 IR Inten    --     24.3031                 4.8118                 9.0874

                     73                     74                     75
                      A                      A                      A
 Frequencies --   3062.1441              3084.8125              3090.9697
 Red. masses --      1.0994                 1.1002                 1.0998
 Frc consts  --      6.0737                 6.1684                 6.1909
 IR Inten    --     74.8992                 6.1200                63.9224

                     76                     77                     78
                      A                      A                      A
 Frequencies --   3095.0030              3095.9733              3096.4902
 Red. masses --      1.1005                 1.1010                 1.0965
 Frc consts  --      6.2107                 6.2175                 6.1946
 IR Inten    --     37.3507                37.0694                45.0181

                     79                     80                     81
                      A                      A                      A
 Frequencies --   3104.6846              3106.5140              3112.6542
 Red. masses --      1.0999                 1.0993                 1.0999
 Frc consts  --      6.2466                 6.2505                 6.2785
 IR Inten    --     46.8765                44.0354                30.7459

 - Thermochemistry -
 -------------------
 Temperature   298.150 Kelvin.  Pressure   1.00000 Atm.
 Atom     1 has atomic number  6 and mass  12.00000

 Molecular mass:   128.15650 amu.
 Principal axes and moments of inertia in atomic units:
                           1         2         3
     Eigenvalues --   517.805293059.424863408.07855
           X            1.00000   0.00103  -0.00074
           Y           -0.00103   1.00000   0.00013
           Z            0.00074  -0.00013   1.00000
 This molecule is an asymmetric top.
 Rotational symmetry number  1.
 Warning -- assumption of classical behavior for rotation
           may cause significant error
 Rotational temperatures (Kelvin)      0.16727     0.02831     0.02541
 Rotational constants (GHZ):           3.48537     0.58990     0.52955
 Zero-point vibrational energy     716236.6 (Joules/Mol)
                                  171.18467 (Kcal/Mol)
 Warning -- explicit consideration of  17 degrees of freedom as
           vibrations may cause significant error
 Vibrational temperatures:     39.08    86.29   131.13   156.59   172.35
          (Kelvin)            299.37   318.67   349.92   355.13   368.59
                              386.74   469.52   570.46   585.61   595.45
                              671.15   731.75  1084.03  1111.18  1179.85
                             1209.36  1312.85  1328.41  1333.82  1376.51
                             1389.86  1400.21  1457.21  1486.13  1529.89
                             1535.61  1602.66  1681.55  1689.75  1716.83
                             1727.66  1787.17  1839.71  1870.90  1902.70
                             1908.94  1957.77  1973.50  1984.98  1990.44
                             2009.78  2014.66  2031.91  2035.33  2045.63
                             2120.20  2134.01  2142.51  2146.72  2153.33
                             2156.19  2157.68  2165.48  2169.74  2174.98
                             2179.65  4287.67  4301.35  4310.52  4323.37
                             4331.53  4346.49  4354.59  4357.08  4361.47
                             4370.20  4378.72  4405.74  4438.36  4447.22
                             4453.02  4454.42  4455.16  4466.95  4469.58
                             4478.42

 Zero-point correction=                           0.272800 (Hartree/Particle)
 Thermal correction to Energy=                    0.285264
 Thermal correction to Enthalpy=                  0.286208
 Thermal correction to Gibbs Free Energy=         0.233989
 Sum of electronic and zero-point Energies=           -354.781188
 Sum of electronic and thermal Energies=              -354.768724
 Sum of electronic and thermal Enthalpies=            -354.767780
 Sum of electronic and thermal Free Energies=         -354.820000

                     E (Thermal)             CV                S
                      KCal/Mol        Cal/Mol-Kelvin    Cal/Mol-Kelvin
 Total                  179.006             45.290            109.905
 Electronic               0.000              0.000              0.000
 Translational            0.889              2.981             40.457
 Rotational               0.889              2.981             30.069
 Vibrational            177.228             39.328             39.379
 Vibration     1          0.593              1.984              6.027
 Vibration     2          0.597              1.973              4.458
 Vibration     3          0.602              1.955              3.635
 Vibration     4          0.606              1.942              3.290
 Vibration     5          0.609              1.933              3.104
 Vibration     6          0.641              1.828              2.061
 Vibration     7          0.648              1.808              1.947
 Vibration     8          0.659              1.774              1.779
 Vibration     9          0.661              1.768              1.753
 Vibration    10          0.666              1.752              1.688
 Vibration    11          0.673              1.731              1.604
 Vibration    12          0.710              1.623              1.278
 Vibration    13          0.763              1.478              0.976
 Vibration    14          0.772              1.455              0.937
 Vibration    15          0.777              1.440              0.913
 Vibration    16          0.824              1.324              0.747
 Vibration    17          0.864              1.231              0.637

                           ! Non-Optimized Parameters !
 Normal termination of Gaussian 16 at Sun May 28 11:26:29 2023.
