 Gaussian 16, Revision A.03,
 Gaussian 16:  ES64L-G16RevA.03 25-Dec-2016

 -----------------------------
 # opt freq b3lyp/6-31g(2df,p)
 -----------------------------

 -------------------
 Title Card Required
 -------------------
 Symbolic Z-matrix:
 Charge =  0 Multiplicity = 1

 SCF Done:  E(RB3LYP) =  -315.724331824     A.U. after   12 cycles
 SCF Done:  E(RB3LYP) =  -315.724963699     A.U. after   10 cycles
 SCF Done:  E(RB3LYP) =  -315.726124709     A.U. after   10 cycles
 SCF Done:  E(RB3LYP) =  -315.726778879     A.U. after   10 cycles
 SCF Done:  E(RB3LYP) =  -315.726995189     A.U. after    9 cycles
 SCF Done:  E(RB3LYP) =  -315.727117648     A.U. after    9 cycles
 SCF Done:  E(RB3LYP) =  -315.727153346     A.U. after    9 cycles
 SCF Done:  E(RB3LYP) =  -315.727165720     A.U. after    8 cycles
 SCF Done:  E(RB3LYP) =  -315.727166096     A.U. after    7 cycles
 SCF Done:  E(RB3LYP) =  -315.727166810     A.U. after    6 cycles
 SCF Done:  E(RB3LYP) =  -315.730212539     A.U. after    9 cycles
 SCF Done:  E(RB3LYP) =  -315.730202714     A.U. after    9 cycles
 SCF Done:  E(RB3LYP) =  -315.730496598     A.U. after    9 cycles
 SCF Done:  E(RB3LYP) =  -315.730509810     A.U. after    8 cycles
 SCF Done:  E(RB3LYP) =  -315.730533055     A.U. after    8 cycles
 SCF Done:  E(RB3LYP) =  -315.730539922     A.U. after    8 cycles
 SCF Done:  E(RB3LYP) =  -315.730542571     A.U. after    8 cycles
 SCF Done:  E(RB3LYP) =  -315.730543009     A.U. after    7 cycles
 SCF Done:  E(RB3LYP) =  -315.730543067     A.U. after    6 cycles
 Optimization completed.
    -- Stationary point found.
 Normal termination of Gaussian 16 at Sun May 28 22:16:00 2023.

 ----------------------------------------------------------------------
 #N Geom=AllCheck Guess=TCheck SCRF=Check GenChk RB3LYP/6-31G(2df,p) Fr
 eq
 ----------------------------------------------------------------------

 Structure from the checkpoint file:  "CCCqCCrCqCrC.chk"
 -------------------
 Title Card Required
 -------------------
 Charge =  0 Multiplicity = 1

                         Standard orientation:
 ---------------------------------------------------------------------
 Center     Atomic      Atomic             Coordinates (Angstroms)
 Number     Number       Type             X           Y           Z
 ---------------------------------------------------------------------
      1          6           0        2.190493   -1.566344    0.250117
      2          6           0        0.732936   -1.440976   -0.209088
      3          6           0        0.088751   -0.066423    0.064983
      4          6           0        0.881137    1.074050   -0.637844
      5          6           0        1.721781    1.939478    0.307817
      6          6           0       -1.417421   -0.016301   -0.316727
      7          6           0       -2.220743   -1.240683    0.149965
      8          6           0       -2.082473    1.255237    0.237141
      9          1           0        2.571380   -2.574693    0.058525
     10          1           0        2.282374   -1.377495    1.325843
     11          1           0        2.851688   -0.864295   -0.266926
     12          1           0        0.154331   -2.222494    0.292819
     13          1           0        0.669567   -1.656813   -1.285409
     14          1           0        0.142140    0.101969    1.152314
     15          1           0        0.190311    1.725307   -1.183755
     16          1           0        1.532492    0.640433   -1.406626
     17          1           0        1.088016    2.440005    1.048376
     18          1           0        2.267929    2.714396   -0.240578
     19          1           0        2.455120    1.340616    0.857244
     20          1           0       -1.474596    0.020170   -1.415238
     21          1           0       -2.115643   -1.393411    1.231353
     22          1           0       -1.912624   -2.161742   -0.350570
     23          1           0       -3.286549   -1.097073   -0.057276
     24          1           0       -2.103040    1.230268    1.333593
     25          1           0       -3.117841    1.337549   -0.109662
     26          1           0       -1.561827    2.169073   -0.062201
 ---------------------------------------------------------------------

 SCF Done:  E(RB3LYP) =  -315.730543067     A.U. after    1 cycles

 The electronic state is 1-A.
 Alpha  occ. eigenvalues --  -10.18087 -10.17664 -10.17219 -10.17175 -10.16861
 Alpha  occ. eigenvalues --  -10.16825 -10.16661 -10.16656  -0.81782  -0.76091
 Alpha  occ. eigenvalues --   -0.73989  -0.67542  -0.66972  -0.60283  -0.57928
 Alpha  occ. eigenvalues --   -0.54518  -0.46574  -0.44561  -0.43630  -0.42889
 Alpha  occ. eigenvalues --   -0.40269  -0.39344  -0.38660  -0.38127  -0.37543
 Alpha  occ. eigenvalues --   -0.35446  -0.34431  -0.34279  -0.33232  -0.32670
 Alpha  occ. eigenvalues --   -0.30600  -0.29513  -0.29393
 Alpha virt. eigenvalues --    0.08504   0.10311   0.11340   0.11716   0.13441
 Alpha virt. eigenvalues --    0.14515   0.15117   0.15325   0.16540   0.16734
 Alpha virt. eigenvalues --    0.17392   0.18137   0.18959   0.19359   0.20067

 Mulliken charges:
               1
     1  C   -0.389026
     2  C   -0.193824
     3  C    0.080233
     4  C   -0.186342
     5  C   -0.380901
     6  C    0.031768
     7  C   -0.400581
     8  C   -0.392427
     9  H    0.108747
    10  H    0.111978
    11  H    0.118146
    12  H    0.095632
    13  H    0.089048
    14  H    0.058301
    15  H    0.092295
    16  H    0.090599
    17  H    0.114112
    18  H    0.107538
    19  H    0.117084
    20  H    0.067319
    21  H    0.109526
    22  H    0.114329
    23  H    0.105680
    24  H    0.109461
    25  H    0.108050
    26  H    0.113255
 Sum of Mulliken charges =  -0.00000

 Dipole moment (field-independent basis, Debye):
    X=             -0.0472    Y=             -0.0580    Z=             -0.0907  Tot=              0.1175
 Quadrupole moment (field-independent basis, Debye-Ang):
   XX=            -55.3771   YY=            -55.1312   ZZ=            -54.3844
   XY=             -0.1614   XZ=             -0.0641   YZ=             -0.1828

  Exact polarizability:  97.612  -0.091  91.781  -0.069   0.114  76.354
 Approx polarizability: 122.562  -0.344 121.335  -0.421  -0.289 120.835

                      1                      2                      3
                      A                      A                      A
 Frequencies --     37.9161                82.3565               133.0763
 Red. masses --      2.3478                 2.5676                 1.8940
 Frc consts  --      0.0020                 0.0103                 0.0198
 IR Inten    --      0.0020                 0.0052                 0.0352

                      4                      5                      6
                      A                      A                      A
 Frequencies --    191.5537               217.7505               223.3912
 Red. masses --      2.3687                 1.3112                 1.0968
 Frc consts  --      0.0512                 0.0366                 0.0322
 IR Inten    --      0.0179                 0.0367                 0.0137

                      7                      8                      9
                      A                      A                      A
 Frequencies --    228.3893               267.5762               302.5760
 Red. masses --      1.0596                 1.1664                 1.5969
 Frc consts  --      0.0326                 0.0492                 0.0861
 IR Inten    --      0.0028                 0.0134                 0.0372

                     10                     11                     12
                      A                      A                      A
 Frequencies --    327.7613               360.5525               379.6619
 Red. masses --      2.3242                 2.4511                 2.4917
 Frc consts  --      0.1471                 0.1877                 0.2116
 IR Inten    --      0.0746                 0.0217                 0.1100

                     13                     14                     15
                      A                      A                      A
 Frequencies --    432.1958               468.0097               488.5248
 Red. masses --      2.3783                 2.3758                 2.2352
 Frc consts  --      0.2617                 0.3066                 0.3143
 IR Inten    --      0.0472                 0.0190                 0.0333

                     16                     17                     18
                      A                      A                      A
 Frequencies --    760.5418               773.9353               830.2865
 Red. masses --      1.2287                 1.4061                 1.5845
 Frc consts  --      0.4187                 0.4962                 0.6436
 IR Inten    --      2.5260                 1.4711                 1.6259

                     19                     20                     21
                      A                      A                      A
 Frequencies --    866.4126               923.1461               929.9491
 Red. masses --      2.1408                 1.5994                 1.2663
 Frc consts  --      0.9468                 0.8031                 0.6452
 IR Inten    --      0.0780                 1.6201                 2.5999

                     22                     23                     24
                      A                      A                      A
 Frequencies --    952.4702               969.1966              1030.1469
 Red. masses --      1.9290                 1.5241                 2.2559
 Frc consts  --      1.0311                 0.8435                 1.4105
 IR Inten    --      1.6867                 0.4038                 1.0288

                     25                     26                     27
                      A                      A                      A
 Frequencies --   1032.1753              1049.1167              1055.7236
 Red. masses --      1.3369                 1.7153                 1.8817
 Frc consts  --      0.8392                 1.1123                 1.2356
 IR Inten    --      0.0881                 0.9663                 0.8795

                     28                     29                     30
                      A                      A                      A
 Frequencies --   1096.5098              1162.7057              1176.1674
 Red. masses --      2.0953                 2.0305                 2.0374
 Frc consts  --      1.4843                 1.6173                 1.6606
 IR Inten    --      0.1584                 2.6455                 1.0325

                     31                     32                     33
                      A                      A                      A
 Frequencies --   1188.3186              1193.8987              1280.5842
 Red. masses --      2.1693                 1.8178                 1.2858
 Frc consts  --      1.8048                 1.5266                 1.2423
 IR Inten    --      0.5368                 2.9220                 1.9996

                     34                     35                     36
                      A                      A                      A
 Frequencies --   1287.8276              1307.1136              1339.5823
 Red. masses --      1.3415                 1.1441                 1.2029
 Frc consts  --      1.3109                 1.1517                 1.2718
 IR Inten    --      4.7934                 2.3781                 5.9475

                     37                     38                     39
                      A                      A                      A
 Frequencies --   1349.5525              1369.8031              1377.4873
 Red. masses --      1.3514                 1.3429                 1.4013
 Frc consts  --      1.4501                 1.4846                 1.5666
 IR Inten    --      0.2545                 2.2722                 0.4468

                     40                     41                     42
                      A                      A                      A
 Frequencies --   1390.8701              1400.7076              1410.2180
 Red. masses --      1.4387                 1.2489                 1.2371
 Frc consts  --      1.6398                 1.4437                 1.4496
 IR Inten    --      0.6505                 2.4102                 0.4435

                     43                     44                     45
                      A                      A                      A
 Frequencies --   1412.3216              1421.0303              1484.5894
 Red. masses --      1.2318                 1.2218                 1.0537
 Frc consts  --      1.4476                 1.4537                 1.3683
 IR Inten    --      2.7157                 4.8109                 0.5907

                     46                     47                     48
                      A                      A                      A
 Frequencies --   1485.6070              1490.0007              1496.4623
 Red. masses --      1.0611                 1.0445                 1.0419
 Frc consts  --      1.3798                 1.3663                 1.3748
 IR Inten    --      1.3330                 0.9349                 0.9692

                     49                     50                     51
                      A                      A                      A
 Frequencies --   1498.8473              1504.7248              1505.7968
 Red. masses --      1.0487                 1.0480                 1.0573
 Frc consts  --      1.3881                 1.3981                 1.4125
 IR Inten    --      3.1176                 2.2405                 0.3422

                     52                     53                     54
                      A                      A                      A
 Frequencies --   1511.2719              1516.1422              1518.6532
 Red. masses --      1.0576                 1.0501                 1.0689
 Frc consts  --      1.4231                 1.4222                 1.4525
 IR Inten    --      3.0008                 6.6653                13.1171

                     55                     56                     57
                      A                      A                      A
 Frequencies --   2970.9359              2990.1770              3009.0163
 Red. masses --      1.0799                 1.0828                 1.0689
 Frc consts  --      5.6157                 5.7041                 5.7022
 IR Inten    --      3.0359                18.9942                28.6784

                     58                     59                     60
                      A                      A                      A
 Frequencies --   3023.3291              3028.0366              3029.2153
 Red. masses --      1.0382                 1.0470                 1.0433
 Frc consts  --      5.5910                 5.6563                 5.6403
 IR Inten    --     19.8336                35.8940                15.7855

                     61                     62                     63
                      A                      A                      A
 Frequencies --   3029.7590              3030.9690              3057.9566
 Red. masses --      1.0466                 1.0373                 1.0975
 Frc consts  --      5.6605                 5.6144                 6.0467
 IR Inten    --     31.8400                34.8142                17.3032

                     64                     65                     66
                      A                      A                      A
 Frequencies --   3070.2437              3084.3681              3091.4650
 Red. masses --      1.0925                 1.0998                 1.0992
 Frc consts  --      6.0678                 6.1646                 6.1894
 IR Inten    --     14.4485                 2.8382                64.4521

                     67                     68                     69
                      A                      A                      A
 Frequencies --   3093.9328              3094.6927              3102.3984
 Red. masses --      1.1012                 1.1011                 1.1010
 Frc consts  --      6.2104                 6.2130                 6.2436
 IR Inten    --     20.7111                65.9734                53.1125

                     70                     71                     72
                      A                      A                      A
 Frequencies --   3106.6467              3107.5107              3114.3365
 Red. masses --      1.1004                 1.0993                 1.0981
 Frc consts  --      6.2574                 6.2544                 6.2749
 IR Inten    --     42.6683                34.4201                30.5641

 - Thermochemistry -
 -------------------
 Temperature   298.150 Kelvin.  Pressure   1.00000 Atm.
 Atom     1 has atomic number  6 and mass  12.00000

 Molecular mass:   114.14085 amu.
 Principal axes and moments of inertia in atomic units:
                           1         2         3
     Eigenvalues --   813.107481224.888941857.89107
           X            1.00000   0.00224   0.00021
           Y           -0.00224   0.99999   0.00224
           Z           -0.00021  -0.00224   1.00000
 This molecule is an asymmetric top.
 Rotational symmetry number  1.
 Warning -- assumption of classical behavior for rotation
           may cause significant error
 Rotational temperatures (Kelvin)      0.10652     0.07071     0.04662
 Rotational constants (GHZ):           2.21956     1.47339     0.97139
 Zero-point vibrational energy     643149.4 (Joules/Mol)
                                  153.71639 (Kcal/Mol)
 Warning -- explicit consideration of  15 degrees of freedom as
           vibrations may cause significant error
 Vibrational temperatures:     54.55   118.49   191.47   275.60   313.29
          (Kelvin)            321.41   328.60   384.98   435.34   471.58
                              518.75   546.25   621.83   673.36   702.88
                             1094.25  1113.52  1194.60  1246.57  1328.20
                             1337.99  1370.39  1394.46  1482.15  1485.07
                             1509.44  1518.95  1577.63  1672.87  1692.24
                             1709.73  1717.75  1842.48  1852.90  1880.64
                             1927.36  1941.70  1970.84  1981.90  2001.15
                             2015.31  2028.99  2032.02  2044.55  2135.99
                             2137.46  2143.78  2153.08  2156.51  2164.96
                             2166.51  2174.38  2181.39  2185.00  4274.51
                             4302.20  4329.30  4349.90  4356.67  4358.37
                             4359.15  4360.89  4399.72  4417.40  4437.72
                             4447.93  4451.48  4452.57  4463.66  4469.77
                             4471.01  4480.84

 Zero-point correction=                           0.244963 (Hartree/Particle)
 Thermal correction to Energy=                    0.255824
 Thermal correction to Enthalpy=                  0.256768
 Thermal correction to Gibbs Free Energy=         0.209170
 Sum of electronic and zero-point Energies=           -315.485580
 Sum of electronic and thermal Energies=              -315.474719
 Sum of electronic and thermal Enthalpies=            -315.473775
 Sum of electronic and thermal Free Energies=         -315.521373

                     E (Thermal)             CV                S
                      KCal/Mol        Cal/Mol-Kelvin    Cal/Mol-Kelvin
 Total                  160.532             40.216            100.178
 Electronic               0.000              0.000              0.000
 Translational            0.889              2.981             40.112
 Rotational               0.889              2.981             29.005
 Vibrational            158.755             34.254             31.061
 Vibration     1          0.594              1.982              5.365
 Vibration     2          0.600              1.961              3.834
 Vibration     3          0.613              1.920              2.901
 Vibration     4          0.634              1.852              2.213
 Vibration     5          0.646              1.814              1.978
 Vibration     6          0.649              1.805              1.931
 Vibration     7          0.651              1.798              1.892
 Vibration     8          0.673              1.733              1.612
 Vibration     9          0.694              1.669              1.403
 Vibration    10          0.711              1.620              1.271
 Vibration    11          0.735              1.554              1.120
 Vibration    12          0.750              1.514              1.041
 Vibration    13          0.793              1.400              0.852
 Vibration    14          0.825              1.321              0.743
 Vibration    15          0.844              1.275              0.687

 Optimization completed.
    -- Stationary point found.
 Normal termination of Gaussian 16 at Sun May 28 22:55:17 2023.
