 Gaussian 16, Revision A.03,
 Gaussian 16:  ES64L-G16RevA.03 25-Dec-2016

 -----------------------------
 # opt freq b3lyp/6-31g(2df,p)
 -----------------------------

 -------------------
 Title Card Required
 -------------------
 Symbolic Z-matrix:
 Charge =  0 Multiplicity = 1

 SCF Done:  E(RB3LYP) =  -603.296617113     A.U. after   13 cycles
 SCF Done:  E(RB3LYP) =  -603.310126808     A.U. after   12 cycles
 SCF Done:  E(RB3LYP) =  -603.315064251     A.U. after   11 cycles
 SCF Done:  E(RB3LYP) =  -603.318984148     A.U. after   11 cycles
 SCF Done:  E(RB3LYP) =  -603.322399368     A.U. after   12 cycles
 SCF Done:  E(RB3LYP) =  -603.324182005     A.U. after   12 cycles
 SCF Done:  E(RB3LYP) =  -603.324781768     A.U. after   10 cycles
 SCF Done:  E(RB3LYP) =  -603.325172810     A.U. after   10 cycles
 SCF Done:  E(RB3LYP) =  -603.325267768     A.U. after   10 cycles
 SCF Done:  E(RB3LYP) =  -603.325281381     A.U. after   10 cycles
 SCF Done:  E(RB3LYP) =  -603.326086815     A.U. after   10 cycles
 SCF Done:  E(RB3LYP) =  -603.326165041     A.U. after    9 cycles
 SCF Done:  E(RB3LYP) =  -603.326093451     A.U. after   10 cycles
 SCF Done:  E(RB3LYP) =  -603.326173622     A.U. after   10 cycles
 SCF Done:  E(RB3LYP) =  -603.326134469     A.U. after   10 cycles
 SCF Done:  E(RB3LYP) =  -603.326176951     A.U. after   10 cycles
 SCF Done:  E(RB3LYP) =  -603.326178107     A.U. after    9 cycles
 SCF Done:  E(RB3LYP) =  -603.326178251     A.U. after    7 cycles
 SCF Done:  E(RB3LYP) =  -603.326178401     A.U. after    7 cycles
 Optimization completed.
    -- Stationary point found.
 Normal termination of Gaussian 16 at Tue May 30 03:22:07 2023.

 ----------------------------------------------------------------------
 #N Geom=AllCheck Guess=TCheck SCRF=Check GenChk RB3LYP/6-31G(2df,p) Fr
 eq
 ----------------------------------------------------------------------

 Structure from the checkpoint file:  "CCCqCCrCCCC1dCCdCCCN1.chk"
 -------------------
 Title Card Required
 -------------------
 Charge =  0 Multiplicity = 1

                         Standard orientation:
 ---------------------------------------------------------------------
 Center     Atomic      Atomic             Coordinates (Angstroms)
 Number     Number       Type             X           Y           Z
 ---------------------------------------------------------------------
      1          6           0        5.367064   -1.134037    0.681487
      2          6           0        4.367417   -0.771218   -0.423660
      3          6           0        3.053988   -0.113746    0.078013
      4          6           0        3.090791    1.425667   -0.010766
      5          6           0        4.218570    2.110333    0.768803
      6          6           0        1.844949   -0.690875   -0.689073
      7          6           0        0.464039   -0.256119   -0.184218
      8          6           0       -0.683450   -1.007149   -0.891388
      9          6           0       -2.057829   -0.587043   -0.422206
     10          6           0       -2.817219   -1.418736    0.336350
     11          6           0       -4.074283   -1.169345    1.015184
     12          6           0       -4.814686   -0.050083    1.100618
     13          6           0       -4.534377    1.263554    0.429705
     14          6           0       -3.789521    1.142794   -0.911373
     15          7           0       -2.410015    0.696933   -0.787965
     16          1           0        6.266978   -1.596421    0.262453
     17          1           0        4.925434   -1.848464    1.385334
     18          1           0        5.680655   -0.259156    1.257745
     19          1           0        4.121068   -1.688094   -0.972775
     20          1           0        4.849335   -0.111117   -1.156913
     21          1           0        2.925165   -0.384407    1.137270
     22          1           0        2.136380    1.826606    0.348216
     23          1           0        3.159848    1.710539   -1.070696
     24          1           0        4.188032    1.842477    1.830887
     25          1           0        4.128507    3.199375    0.700787
     26          1           0        5.207097    1.840939    0.385167
     27          1           0        1.900961   -1.786682   -0.637570
     28          1           0        1.942104   -0.437493   -1.755425
     29          1           0        0.327265    0.822449   -0.318689
     30          1           0        0.387073   -0.439805    0.895144
     31          1           0       -0.565128   -2.081549   -0.724206
     32          1           0       -0.598584   -0.847622   -1.977167
     33          1           0       -2.391331   -2.401588    0.508802
     34          1           0       -4.451088   -2.033843    1.559408
     35          1           0       -5.728923   -0.095681    1.686873
     36          1           0       -3.962065    1.932331    1.086135
     37          1           0       -5.486008    1.777150    0.236773
     38          1           0       -3.759727    2.125260   -1.392523
     39          1           0       -4.359978    0.471268   -1.568922
     40          1           0       -1.785688    1.121010   -1.455197
 ---------------------------------------------------------------------

 SCF Done:  E(RB3LYP) =  -603.326178401     A.U. after    1 cycles

 The electronic state is 1-A.
 Alpha  occ. eigenvalues --  -14.33473 -10.21186 -10.20826 -10.18386 -10.18065
 Alpha  occ. eigenvalues --  -10.17898 -10.17656 -10.17584 -10.17579 -10.17471
 Alpha  occ. eigenvalues --  -10.17092 -10.16965 -10.16331 -10.15774 -10.15019
 Alpha  occ. eigenvalues --   -0.92781  -0.81803  -0.79109  -0.78188  -0.75340
 Alpha  occ. eigenvalues --   -0.74166  -0.70667  -0.67397  -0.65564  -0.62384
 Alpha  occ. eigenvalues --   -0.61022  -0.58445  -0.55321  -0.55250  -0.51771
 Alpha  occ. eigenvalues --   -0.49875  -0.46978  -0.46161  -0.45238  -0.44376
 Alpha  occ. eigenvalues --   -0.43597  -0.42963  -0.41269  -0.40313  -0.39652
 Alpha  occ. eigenvalues --   -0.39587  -0.38756  -0.37779  -0.37451  -0.36549
 Alpha  occ. eigenvalues --   -0.35594  -0.35115  -0.34395  -0.33745  -0.33200
 Alpha  occ. eigenvalues --   -0.32891  -0.31689  -0.31197  -0.30861  -0.30024
 Alpha  occ. eigenvalues --   -0.29210  -0.25352  -0.17123
 Alpha virt. eigenvalues --    0.00262   0.06773   0.08845   0.10264   0.10841
 Alpha virt. eigenvalues --    0.11328   0.11616   0.12133   0.12545   0.13679
 Alpha virt. eigenvalues --    0.14427   0.14566   0.15583   0.15892   0.16194

 Mulliken charges:
               1
     1  C   -0.382085
     2  C   -0.184947
     3  C    0.045656
     4  C   -0.168781
     5  C   -0.389599
     6  C   -0.193520
     7  C   -0.183054
     8  C   -0.304335
     9  C    0.307899
    10  C   -0.183297
    11  C   -0.049681
    12  C   -0.110399
    13  C   -0.238381
    14  C   -0.175558
    15  N   -0.341891
    16  H    0.108746
    17  H    0.113030
    18  H    0.118690
    19  H    0.090044
    20  H    0.091382
    21  H    0.064262
    22  H    0.096816
    23  H    0.087588
    24  H    0.114137
    25  H    0.108611
    26  H    0.119302
    27  H    0.090200
    28  H    0.087563
    29  H    0.097215
    30  H    0.104452
    31  H    0.109961
    32  H    0.091096
    33  H    0.065097
    34  H    0.072802
    35  H    0.073543
    36  H    0.113200
    37  H    0.094774
    38  H    0.097290
    39  H    0.110283
    40  H    0.231887
 Sum of Mulliken charges =  -0.00000

 Dipole moment (field-independent basis, Debye):
    X=              0.9623    Y=              1.1073    Z=             -1.4452  Tot=              2.0593
 Quadrupole moment (field-independent basis, Debye-Ang):
   XX=            -99.3042   YY=            -93.3738   ZZ=            -95.0622
   XY=             -4.5685   XZ=              2.1581   YZ=             -2.4777

  Exact polarizability: 205.876  -8.403 154.245 -17.689  -7.191 130.800
 Approx polarizability: 252.556  -9.766 236.319 -34.661 -15.510 209.221

                      1                      2                      3
                      A                      A                      A
 Frequencies --     21.3903                29.8850                40.9525
 Red. masses --      3.1643                 3.4436                 3.6815
 Frc consts  --      0.0009                 0.0018                 0.0036
 IR Inten    --      0.3583                 0.4165                 0.0304

                      4                      5                      6
                      A                      A                      A
 Frequencies --     63.3928                91.1006                97.5662
 Red. masses --      2.4687                 2.7480                 2.1953
 Frc consts  --      0.0058                 0.0134                 0.0123
 IR Inten    --      0.1378                 0.3536                 0.0760

                      7                      8                      9
                      A                      A                      A
 Frequencies --    118.0545               131.1079               154.5166
 Red. masses --      2.0446                 2.1591                 2.5891
 Frc consts  --      0.0168                 0.0219                 0.0364
 IR Inten    --      0.0387                 0.0303                 0.4879

                     10                     11                     12
                      A                      A                      A
 Frequencies --    186.6892               222.7987               234.2057
 Red. masses --      2.4765                 1.5059                 1.9186
 Frc consts  --      0.0509                 0.0440                 0.0620
 IR Inten    --      0.6658                 0.1339                 0.0697

                     13                     14                     15
                      A                      A                      A
 Frequencies --    242.4790               273.4532               292.6281
 Red. masses --      2.1369                 1.4616                 1.9603
 Frc consts  --      0.0740                 0.0644                 0.0989
 IR Inten    --      0.0695                 2.7581                 3.8219

                     16                     17                     18
                      A                      A                      A
 Frequencies --    329.3107               330.2882               377.9862
 Red. masses --      2.5339                 2.6990                 2.7363
 Frc consts  --      0.1619                 0.1735                 0.2303
 IR Inten    --      8.6693                 3.1794                12.5083

                     19                     20                     21
                      A                      A                      A
 Frequencies --    415.3054               422.0380               443.3246
 Red. masses --      2.4408                 1.9769                 2.0036
 Frc consts  --      0.2480                 0.2075                 0.2320
 IR Inten    --      9.4186                 2.0002                37.1266

                     22                     23                     24
                      A                      A                      A
 Frequencies --    450.9219               508.6502               530.0129
 Red. masses --      2.8194                 2.3429                 2.7451
 Frc consts  --      0.3378                 0.3571                 0.4543
 IR Inten    --     12.4729                10.4661                 0.3213

                     25                     26                     27
                      A                      A                      A
 Frequencies --    650.0723               672.0158               736.3716
 Red. masses --      2.9609                 2.3187                 1.4841
 Frc consts  --      0.7372                 0.6170                 0.4741
 IR Inten    --      3.4237                 2.6096                21.6466

                     28                     29                     30
                      A                      A                      A
 Frequencies --    737.9913               755.9515               764.5636
 Red. masses --      1.2622                 2.3382                 1.3094
 Frc consts  --      0.4050                 0.7873                 0.4510
 IR Inten    --     10.6684                 6.8169                 1.6666

                     31                     32                     33
                      A                      A                      A
 Frequencies --    768.7747               812.2104               819.6474
 Red. masses --      1.3501                 1.3922                 2.2358
 Frc consts  --      0.4701                 0.5411                 0.8850
 IR Inten    --      0.9999                 0.9750                 2.4635

                     34                     35                     36
                      A                      A                      A
 Frequencies --    833.3306               871.6628               918.9152
 Red. masses --      1.6463                 1.4539                 1.9684
 Frc consts  --      0.6736                 0.6509                 0.9793
 IR Inten    --      6.7227                 3.5170                 2.5555

                     37                     38                     39
                      A                      A                      A
 Frequencies --    927.6862               951.2565               979.9709
 Red. masses --      3.2368                 2.5101                 2.1901
 Frc consts  --      1.6412                 1.3383                 1.2392
 IR Inten    --      3.9056                 0.6293                 6.5760

                     40                     41                     42
                      A                      A                      A
 Frequencies --    992.8293               997.0175              1017.8408
 Red. masses --      2.5386                 1.3813                 1.3517
 Frc consts  --      1.4744                 0.8090                 0.8251
 IR Inten    --      2.8093                 0.7559                 0.1324

                     43                     44                     45
                      A                      A                      A
 Frequencies --   1027.0289              1032.6289              1041.2945
 Red. masses --      2.9177                 1.5466                 1.9188
 Frc consts  --      1.8133                 0.9717                 1.2258
 IR Inten    --      3.7472                 0.5354                 0.2060

                     46                     47                     48
                      A                      A                      A
 Frequencies --   1051.4950              1061.5829              1064.7482
 Red. masses --      2.6344                 2.2140                 2.4665
 Frc consts  --      1.7161                 1.4701                 1.6475
 IR Inten    --      0.2797                 1.4757                 0.5091

                     49                     50                     51
                      A                      A                      A
 Frequencies --   1091.0773              1109.5516              1141.8332
 Red. masses --      1.6794                 2.7940                 2.0719
 Frc consts  --      1.1779                 2.0266                 1.5916
 IR Inten    --      1.4134                11.1822                 1.9011

                     52                     53                     54
                      A                      A                      A
 Frequencies --   1151.2509              1173.5199              1203.6935
 Red. masses --      1.9580                 1.7522                 1.7231
 Frc consts  --      1.5289                 1.4217                 1.4710
 IR Inten    --      1.3089                 2.9046                 0.5364

                     55                     56                     57
                      A                      A                      A
 Frequencies --   1218.7361              1236.4597              1258.3160
 Red. masses --      1.3158                 1.4438                 1.2782
 Frc consts  --      1.1515                 1.3005                 1.1924
 IR Inten    --     12.1235                12.5341                 3.9411

                     58                     59                     60
                      A                      A                      A
 Frequencies --   1277.0290              1281.6178              1293.4124
 Red. masses --      1.2145                 1.2322                 1.2598
 Frc consts  --      1.1670                 1.1925                 1.2417
 IR Inten    --      1.5105                 2.0113                 0.4023

                     61                     62                     63
                      A                      A                      A
 Frequencies --   1308.7939              1315.5081              1321.1380
 Red. masses --      1.2210                 1.2083                 1.1508
 Frc consts  --      1.2323                 1.2320                 1.1834
 IR Inten    --      1.2540                 0.8047                 0.3020

                     64                     65                     66
                      A                      A                      A
 Frequencies --   1334.8562              1351.5332              1362.8661
 Red. masses --      1.2086                 1.2413                 1.3899
 Frc consts  --      1.2688                 1.3359                 1.5210
 IR Inten    --      4.0558                 3.2742                 4.5189

                     67                     68                     69
                      A                      A                      A
 Frequencies --   1369.2425              1374.8037              1380.3550
 Red. masses --      1.4059                 1.2880                 1.4362
 Frc consts  --      1.5530                 1.4343                 1.6123
 IR Inten    --     16.1424                17.6856                 0.2869

                     70                     71                     72
                      A                      A                      A
 Frequencies --   1393.1380              1398.3234              1410.9756
 Red. masses --      1.4373                 1.4731                 1.2473
 Frc consts  --      1.6436                 1.6970                 1.4630
 IR Inten    --      1.8337                 0.9056                 1.3438

                     73                     74                     75
                      A                      A                      A
 Frequencies --   1414.3127              1423.2774              1451.8991
 Red. masses --      1.2284                 1.3283                 1.5475
 Frc consts  --      1.4477                 1.5853                 1.9220
 IR Inten    --      2.2727                 0.6487                 5.2265

                     76                     77                     78
                      A                      A                      A
 Frequencies --   1470.0825              1477.8502              1481.3378
 Red. masses --      1.1060                 1.0908                 1.0890
 Frc consts  --      1.4083                 1.4037                 1.4080
 IR Inten    --      4.7084                 1.5602                 1.5331

                     79                     80                     81
                      A                      A                      A
 Frequencies --   1486.7569              1490.0553              1492.2552
 Red. masses --      1.0731                 1.0526                 1.1254
 Frc consts  --      1.3975                 1.3770                 1.4766
 IR Inten    --      0.0404                 0.0667                 4.1607

                     82                     83                     84
                      A                      A                      A
 Frequencies --   1498.5746              1504.3818              1506.2685
 Red. masses --      1.0532                 1.0486                 1.0925
 Frc consts  --      1.3936                 1.3982                 1.4604
 IR Inten    --      2.1947                 5.0274                 4.2334

                     85                     86                     87
                      A                      A                      A
 Frequencies --   1509.9843              1512.7250              1540.5268
 Red. masses --      1.0748                 1.0553                 1.6476
 Frc consts  --      1.4438                 1.4228                 2.3037
 IR Inten    --      3.1042                 4.7161                67.9190

                     88                     89                     90
                      A                      A                      A
 Frequencies --   1667.4406              1696.6656              2981.3952
 Red. masses --      6.2410                 5.2969                 1.0798
 Frc consts  --     10.2237                 8.9839                 5.6548
 IR Inten    --    125.0653                17.1938                 4.4740

                     91                     92                     93
                      A                      A                      A
 Frequencies --   2990.4604              2995.3954              2996.7996
 Red. masses --      1.0685                 1.0618                 1.0689
 Frc consts  --      5.6301                 5.6132                 5.6562
 IR Inten    --     18.9339                28.3192                42.4520

                     94                     95                     96
                      A                      A                      A
 Frequencies --   3006.2409              3009.7925              3018.2957
 Red. masses --      1.0662                 1.0595                 1.0616
 Frc consts  --      5.6774                 5.6547                 5.6983
 IR Inten    --     20.3566                37.6852                43.2628

                     97                     98                     99
                      A                      A                      A
 Frequencies --   3027.8424              3030.1838              3031.4011
 Red. masses --      1.0672                 1.0909                 1.0381
 Frc consts  --      5.7643                 5.9019                 5.6205
 IR Inten    --     28.8157                15.8816                 8.9931

                    100                    101                    102
                      A                      A                      A
 Frequencies --   3032.9844              3039.2443              3047.1889
 Red. masses --      1.0385                 1.1004                 1.0985
 Frc consts  --      5.6288                 5.9888                 6.0096
 IR Inten    --     50.1968                38.1683                27.1897

                    103                    104                    105
                      A                      A                      A
 Frequencies --   3057.6482              3067.5735              3074.6973
 Red. masses --      1.0953                 1.0947                 1.0954
 Frc consts  --      6.0336                 6.0694                 6.1016
 IR Inten    --     35.2421                 8.9366                35.3916

                    106                    107                    108
                      A                      A                      A
 Frequencies --   3089.6300              3094.1577              3094.9755
 Red. masses --      1.0968                 1.1012                 1.1010
 Frc consts  --      6.1688                 6.2115                 6.2135
 IR Inten    --     38.2420                26.1668                60.0972

                    109                    110                    111
                      A                      A                      A
 Frequencies --   3106.1432              3114.5095              3127.2154
 Red. masses --      1.1010                 1.0995                 1.0830
 Frc consts  --      6.2586                 6.2836                 6.2401
 IR Inten    --     61.8019                20.8841                11.4221

                    112                    113                    114
                      A                      A                      A
 Frequencies --   3156.3667              3174.3769              3621.0029
 Red. masses --      1.0912                 1.0888                 1.0759
 Frc consts  --      6.4051                 6.4642                 8.3117
 IR Inten    --     38.4978                19.6269                15.1316

 - Thermochemistry -
 -------------------
 Temperature   298.150 Kelvin.  Pressure   1.00000 Atm.
 Atom     1 has atomic number  6 and mass  12.00000

 Molecular mass:   207.19870 amu.
 Principal axes and moments of inertia in atomic units:
                           1         2         3
     Eigenvalues --  1382.253709553.34877**********
           X            0.99999  -0.00248   0.00314
           Y            0.00248   1.00000   0.00137
           Z           -0.00314  -0.00137   0.99999
 This molecule is an asymmetric top.
 Rotational symmetry number  1.
 Warning -- assumption of classical behavior for rotation
           may cause significant error
 Rotational temperatures (Kelvin)      0.06266     0.00907     0.00857
 Rotational constants (GHZ):           1.30565     0.18891     0.17863
 Zero-point vibrational energy     962173.8 (Joules/Mol)
                                  229.96505 (Kcal/Mol)
 Warning -- explicit consideration of  24 degrees of freedom as
           vibrations may cause significant error
 Vibrational temperatures:     30.78    43.00    58.92    91.21   131.07
          (Kelvin)            140.38   169.85   188.64   222.31   268.60
                              320.56   336.97   348.87   393.44   421.03
                              473.80   475.21   543.84   597.53   607.22
                              637.85   648.78   731.83   762.57   935.31
                              966.88  1059.47  1061.80  1087.65  1100.04
                             1106.10  1168.59  1179.29  1198.98  1254.13
                             1322.11  1334.73  1368.65  1409.96  1428.46
                             1434.49  1464.45  1477.67  1485.72  1498.19
                             1512.87  1527.38  1531.94  1569.82  1596.40
                             1642.84  1656.39  1688.43  1731.85  1753.49
                             1778.99  1810.44  1837.36  1843.96  1860.93
                             1883.06  1892.72  1900.82  1920.56  1944.55
                             1960.86  1970.03  1978.04  1986.02  2004.41
                             2011.88  2030.08  2034.88  2047.78  2088.96
                             2115.12  2126.30  2131.31  2139.11  2143.86
                             2147.02  2156.11  2164.47  2167.18  2172.53
                             2176.47  2216.47  2399.08  2441.12  4289.56
                             4302.61  4309.71  4311.73  4325.31  4330.42
                             4342.65  4356.39  4359.76  4361.51  4363.79
                             4372.79  4384.23  4399.27  4413.55  4423.80
                             4445.29  4451.80  4452.98  4469.05  4481.08
                             4499.37  4541.31  4567.22  5209.82

 Zero-point correction=                           0.366473 (Hartree/Particle)
 Thermal correction to Energy=                    0.383754
 Thermal correction to Enthalpy=                  0.384698
 Thermal correction to Gibbs Free Energy=         0.319707
 Sum of electronic and zero-point Energies=           -602.959706
 Sum of electronic and thermal Energies=              -602.942424
 Sum of electronic and thermal Enthalpies=            -602.941480
 Sum of electronic and thermal Free Energies=         -603.006472

                     E (Thermal)             CV                S
                      KCal/Mol        Cal/Mol-Kelvin    Cal/Mol-Kelvin
 Total                  240.809             64.891            136.786
 Electronic               0.000              0.000              0.000
 Translational            0.889              2.981             41.890
 Rotational               0.889              2.981             33.256
 Vibrational            239.032             58.929             61.641
 Vibration     1          0.593              1.985              6.501
 Vibration     2          0.594              1.984              5.837
 Vibration     3          0.594              1.981              5.212
 Vibration     4          0.597              1.972              4.349
 Vibration     5          0.602              1.956              3.636
 Vibration     6          0.603              1.951              3.502
 Vibration     7          0.608              1.934              3.132
 Vibration     8          0.612              1.922              2.930
 Vibration     9          0.620              1.898              2.616
 Vibration    10          0.632              1.858              2.260
 Vibration    11          0.648              1.806              1.936
 Vibration    12          0.654              1.789              1.846
 Vibration    13          0.659              1.775              1.785
 Vibration    14          0.676              1.722              1.574
 Vibration    15          0.688              1.687              1.459
 Vibration    16          0.712              1.617              1.263
 Vibration    17          0.713              1.615              1.259
 Vibration    18          0.748              1.517              1.047
 Vibration    19          0.779              1.437              0.908
 Vibration    20          0.784              1.422              0.885
 Vibration    21          0.803              1.376              0.816
 Vibration    22          0.810              1.359              0.793
 Vibration    23          0.864              1.231              0.637
 Vibration    24          0.885              1.184              0.587

                           ! Non-Optimized Parameters !
 Normal termination of Gaussian 16 at Tue May 30 06:13:39 2023.
