 Gaussian 16, Revision A.03,
 Gaussian 16:  ES64L-G16RevA.03 25-Dec-2016

 -----------------------------
 # opt freq b3lyp/6-31g(2df,p)
 -----------------------------

 -------------------
 Title Card Required
 -------------------
 Symbolic Z-matrix:
 Charge =  0 Multiplicity = 1

 SCF Done:  E(RB3LYP) =  -355.031550404     A.U. after   12 cycles
 SCF Done:  E(RB3LYP) =  -355.036898190     A.U. after   10 cycles
 SCF Done:  E(RB3LYP) =  -355.040325201     A.U. after   10 cycles
 SCF Done:  E(RB3LYP) =  -355.042307804     A.U. after   10 cycles
 SCF Done:  E(RB3LYP) =  -355.043436371     A.U. after   10 cycles
 SCF Done:  E(RB3LYP) =  -355.044585904     A.U. after   10 cycles
 SCF Done:  E(RB3LYP) =  -355.045736238     A.U. after   10 cycles
 SCF Done:  E(RB3LYP) =  -355.044788639     A.U. after   12 cycles
 SCF Done:  E(RB3LYP) =  -355.046636332     A.U. after   10 cycles
 SCF Done:  E(RB3LYP) =  -355.046841531     A.U. after    9 cycles
 SCF Done:  E(RB3LYP) =  -355.046996154     A.U. after    9 cycles
 SCF Done:  E(RB3LYP) =  -355.047035290     A.U. after    8 cycles
 SCF Done:  E(RB3LYP) =  -355.047062299     A.U. after    8 cycles
 SCF Done:  E(RB3LYP) =  -355.047065817     A.U. after    7 cycles
 SCF Done:  E(RB3LYP) =  -355.047067965     A.U. after    7 cycles
 SCF Done:  E(RB3LYP) =  -355.047068573     A.U. after    7 cycles
 SCF Done:  E(RB3LYP) =  -355.047068566     A.U. after    5 cycles
 Optimization completed.
    -- Stationary point found.
 Normal termination of Gaussian 16 at Sun May 28 17:49:40 2023.

 ----------------------------------------------------------------------
 #N Geom=AllCheck Guess=TCheck SCRF=Check GenChk RB3LYP/6-31G(2df,p) Fr
 eq
 ----------------------------------------------------------------------

 Structure from the checkpoint file:  "CCCqCCrCCqCrC.chk"
 -------------------
 Title Card Required
 -------------------
 Charge =  0 Multiplicity = 1

                         Standard orientation:
 ---------------------------------------------------------------------
 Center     Atomic      Atomic             Coordinates (Angstroms)
 Number     Number       Type             X           Y           Z
 ---------------------------------------------------------------------
      1          6           0       -3.052309   -1.122364   -0.382179
      2          6           0       -1.621649   -1.414504    0.080136
      3          6           0       -0.608400   -0.256405   -0.052746
      4          6           0       -1.060445    1.013800    0.717558
      5          6           0       -1.804201    2.054851   -0.128160
      6          6           0        0.790486   -0.748314    0.397438
      7          6           0        1.996673   -0.186840   -0.382420
      8          6           0        2.152307    1.337205   -0.286239
      9          6           0        3.289324   -0.881895    0.069185
     10          1           0       -3.670303   -2.023599   -0.312751
     11          1           0       -3.074401   -0.786221   -1.425031
     12          1           0       -3.533240   -0.351435    0.227238
     13          1           0       -1.238326   -2.270420   -0.489985
     14          1           0       -1.641254   -1.739236    1.130339
     15          1           0       -0.544007    0.000306   -1.121038
     16          1           0       -0.187066    1.499224    1.163685
     17          1           0       -1.689178    0.710902    1.565798
     18          1           0       -1.167778    2.424991   -0.940250
     19          1           0       -2.098574    2.917620    0.478715
     20          1           0       -2.709299    1.646703   -0.585984
     21          1           0        0.828229   -1.840983    0.301502
     22          1           0        0.921949   -0.542190    1.469680
     23          1           0        1.837417   -0.436444   -1.442221
     24          1           0        2.295472    1.654715    0.753838
     25          1           0        1.282392    1.868314   -0.682299
     26          1           0        3.027435    1.671174   -0.854310
     27          1           0        3.500677   -0.667958    1.123999
     28          1           0        4.149655   -0.539394   -0.515660
     29          1           0        3.219480   -1.969274   -0.040705
 ---------------------------------------------------------------------

 SCF Done:  E(RB3LYP) =  -355.047068566     A.U. after    1 cycles

 The electronic state is 1-A.
 Alpha  occ. eigenvalues --  -10.18162 -10.17730 -10.17341 -10.17176 -10.16869
 Alpha  occ. eigenvalues --  -10.16863 -10.16790 -10.16724 -10.16683  -0.81662
 Alpha  occ. eigenvalues --   -0.78134  -0.73926  -0.70387  -0.67651  -0.63371
 Alpha  occ. eigenvalues --   -0.60535  -0.55373  -0.55131  -0.46304  -0.45463
 Alpha  occ. eigenvalues --   -0.44075  -0.43036  -0.41194  -0.40073  -0.39790
 Alpha  occ. eigenvalues --   -0.38446  -0.37613  -0.37510  -0.35540  -0.35073
 Alpha  occ. eigenvalues --   -0.34120  -0.33432  -0.32233  -0.31333  -0.30676
 Alpha  occ. eigenvalues --   -0.29909  -0.29008
 Alpha virt. eigenvalues --    0.08073   0.09804   0.10694   0.11454   0.13025
 Alpha virt. eigenvalues --    0.13575   0.14309   0.14801   0.15805   0.16618
 Alpha virt. eigenvalues --    0.17362   0.17711   0.18141   0.18547   0.18881

 Mulliken charges:
               1
     1  C   -0.392268
     2  C   -0.175475
     3  C    0.050257
     4  C   -0.177479
     5  C   -0.386925
     6  C   -0.195174
     7  C    0.042837
     8  C   -0.384551
     9  C   -0.387895
    10  H    0.108764
    11  H    0.112301
    12  H    0.119413
    13  H    0.089825
    14  H    0.092047
    15  H    0.061080
    16  H    0.096483
    17  H    0.088061
    18  H    0.114271
    19  H    0.108237
    20  H    0.117918
    21  H    0.083120
    22  H    0.085889
    23  H    0.068795
    24  H    0.110066
    25  H    0.119602
    26  H    0.105832
    27  H    0.110358
    28  H    0.106647
    29  H    0.107964
 Sum of Mulliken charges =  -0.00000

 Dipole moment (field-independent basis, Debye):
    X=              0.0107    Y=             -0.0788    Z=             -0.0381  Tot=              0.0881
 Quadrupole moment (field-independent basis, Debye-Ang):
   XX=            -62.2138   YY=            -61.8171   ZZ=            -60.8935
   XY=              0.3857   XZ=             -0.4902   YZ=              0.3594

  Exact polarizability: 114.482  -0.335  99.977  -0.000  -0.243  85.244
 Approx polarizability: 137.845   0.214 136.095  -0.660   0.348 135.613

                      1                      2                      3
                      A                      A                      A
 Frequencies --     50.3145                79.4874                88.5394
 Red. masses --      2.6161                 2.6938                 2.3459
 Frc consts  --      0.0039                 0.0100                 0.0108
 IR Inten    --      0.0046                 0.0009                 0.0332

                      4                      5                      6
                      A                      A                      A
 Frequencies --    150.8463               170.9058               207.8943
 Red. masses --      1.6623                 2.3429                 1.2297
 Frc consts  --      0.0223                 0.0403                 0.0313
 IR Inten    --      0.0499                 0.0104                 0.0151

                      7                      8                      9
                      A                      A                      A
 Frequencies --    232.4275               253.4074               269.7133
 Red. masses --      1.0633                 2.2085                 1.2065
 Frc consts  --      0.0338                 0.0836                 0.0517
 IR Inten    --      0.0307                 0.0101                 0.0416

                     10                     11                     12
                      A                      A                      A
 Frequencies --    284.5545               307.4376               314.0470
 Red. masses --      1.2843                 2.3198                 1.9576
 Frc consts  --      0.0613                 0.1292                 0.1138
 IR Inten    --      0.0865                 0.0454                 0.0408

                     13                     14                     15
                      A                      A                      A
 Frequencies --    316.6567               407.8905               422.4808
 Red. masses --      2.1559                 2.1545                 1.7961
 Frc consts  --      0.1274                 0.2112                 0.1889
 IR Inten    --      0.0962                 0.1222                 0.0957

                     16                     17                     18
                      A                      A                      A
 Frequencies --    467.2962               542.5954               766.1361
 Red. masses --      2.2349                 2.4672                 1.2546
 Frc consts  --      0.2875                 0.4280                 0.4339
 IR Inten    --      0.0645                 0.1431                 4.1094

                     19                     20                     21
                      A                      A                      A
 Frequencies --    766.9339               811.4420               841.6561
 Red. masses --      1.3791                 2.6534                 1.5930
 Frc consts  --      0.4779                 1.0293                 0.6649
 IR Inten    --      0.9436                 0.3680                 1.8431

                     22                     23                     24
                      A                      A                      A
 Frequencies --    877.3015               925.9721               927.1273
 Red. masses --      1.5226                 1.3177                 1.5706
 Frc consts  --      0.6905                 0.6657                 0.7954
 IR Inten    --      0.1710                 2.2941                 2.5460

                     25                     26                     27
                      A                      A                      A
 Frequencies --    954.5555               966.6049              1017.9431
 Red. masses --      1.7560                 1.5469                 1.6630
 Frc consts  --      0.9427                 0.8515                 1.0153
 IR Inten    --      0.8154                 0.2538                 0.1448

                     28                     29                     30
                      A                      A                      A
 Frequencies --   1029.8802              1040.0162              1052.6411
 Red. masses --      2.2461                 1.5711                 2.4490
 Frc consts  --      1.4036                 1.0013                 1.5988
 IR Inten    --      0.4265                 1.2813                 0.2194

                     31                     32                     33
                      A                      A                      A
 Frequencies --   1076.5662              1104.6957              1161.6140
 Red. masses --      1.4813                 2.0600                 2.1759
 Frc consts  --      1.0115                 1.4811                 1.7298
 IR Inten    --      1.6121                 1.6390                 1.9894

                     34                     35                     36
                      A                      A                      A
 Frequencies --   1173.9316              1188.9821              1195.6127
 Red. masses --      2.0286                 2.0714                 1.7994
 Frc consts  --      1.6471                 1.7253                 1.5155
 IR Inten    --      0.5006                 0.1998                 2.7665

                     37                     38                     39
                      A                      A                      A
 Frequencies --   1256.2497              1276.5005              1300.5971
 Red. masses --      1.3945                 1.2819                 1.1451
 Frc consts  --      1.2967                 1.2307                 1.1412
 IR Inten    --      5.0742                 0.9829                 1.7537

                     40                     41                     42
                      A                      A                      A
 Frequencies --   1319.4514              1340.3529              1347.8454
 Red. masses --      1.1224                 1.3065                 1.2780
 Frc consts  --      1.1513                 1.3829                 1.3679
 IR Inten    --      0.7643                 1.4722                 5.9280

                     43                     44                     45
                      A                      A                      A
 Frequencies --   1370.5498              1380.1506              1388.3726
 Red. masses --      1.3629                 1.4091                 1.3891
 Frc consts  --      1.5084                 1.5814                 1.5776
 IR Inten    --      1.1488                 3.0869                 0.0050

                     46                     47                     48
                      A                      A                      A
 Frequencies --   1394.2455              1400.8814              1410.5624
 Red. masses --      1.3980                 1.2947                 1.2447
 Frc consts  --      1.6011                 1.4970                 1.4591
 IR Inten    --      1.6884                 4.3648                 1.4960

                     49                     50                     51
                      A                      A                      A
 Frequencies --   1413.7583              1422.5824              1480.1033
 Red. masses --      1.2304                 1.2421                 1.0690
 Frc consts  --      1.4490                 1.4810                 1.3798
 IR Inten    --      4.3361                 1.5517                 0.1087

                     52                     53                     54
                      A                      A                      A
 Frequencies --   1485.3499              1486.0787              1492.6851
 Red. masses --      1.0518                 1.0664                 1.0421
 Frc consts  --      1.3673                 1.3876                 1.3681
 IR Inten    --      0.4836                 0.3905                 0.4410

                     55                     56                     57
                      A                      A                      A
 Frequencies --   1496.7406              1498.1747              1504.2131
 Red. masses --      1.0584                 1.0590                 1.0457
 Frc consts  --      1.3969                 1.4005                 1.3941
 IR Inten    --      1.1021                 3.6902                12.3416

                     58                     59                     60
                      A                      A                      A
 Frequencies --   1505.3167              1509.8140              1512.7452
 Red. masses --      1.0600                 1.0600                 1.0533
 Frc consts  --      1.4151                 1.4237                 1.4201
 IR Inten    --      0.7649                 8.7424                 4.2422

                     61                     62                     63
                      A                      A                      A
 Frequencies --   1515.2105              2981.4968              2987.6005
 Red. masses --      1.0601                 1.0813                 1.0795
 Frc consts  --      1.4340                 5.6634                 5.6771
 IR Inten    --      1.4818                 2.6500                10.3151

                     64                     65                     66
                      A                      A                      A
 Frequencies --   3000.0749              3007.3237              3019.1090
 Red. masses --      1.0612                 1.0630                 1.0686
 Frc consts  --      5.6273                 5.6642                 5.7389
 IR Inten    --      4.5088                40.7813                34.3655

                     67                     68                     69
                      A                      A                      A
 Frequencies --   3021.0324              3026.7518              3030.0517
 Red. masses --      1.0365                 1.0383                 1.0391
 Frc consts  --      5.5735                 5.6042                 5.6208
 IR Inten    --     37.6774                26.7302                15.1242

                     70                     71                     72
                      A                      A                      A
 Frequencies --   3031.9489              3036.7916              3045.2920
 Red. masses --      1.0393                 1.0974                 1.0983
 Frc consts  --      5.6291                 5.9625                 6.0013
 IR Inten    --     38.6032                 8.5568                52.6218

                     73                     74                     75
                      A                      A                      A
 Frequencies --   3069.7964              3083.8021              3089.9716
 Red. masses --      1.0915                 1.1004                 1.1000
 Frc consts  --      6.0605                 6.1657                 6.1878
 IR Inten    --     21.6990                 3.7119                74.4529

                     76                     77                     78
                      A                      A                      A
 Frequencies --   3091.5142              3093.6211              3096.1198
 Red. masses --      1.1008                 1.1009                 1.1015
 Frc consts  --      6.1985                 6.2079                 6.2209
 IR Inten    --     32.3763                45.0686                42.5741

                     79                     80                     81
                      A                      A                      A
 Frequencies --   3105.0925              3108.5348              3117.0963
 Red. masses --      1.1008                 1.0990                 1.0986
 Frc consts  --      6.2530                 6.2568                 6.2891
 IR Inten    --     57.2197                34.5008                24.1424

 - Thermochemistry -
 -------------------
 Temperature   298.150 Kelvin.  Pressure   1.00000 Atm.
 Atom     1 has atomic number  6 and mass  12.00000

 Molecular mass:   128.15650 amu.
 Principal axes and moments of inertia in atomic units:
                           1         2         3
     Eigenvalues --   794.627982105.842942679.76114
           X            0.99999  -0.00171   0.00338
           Y            0.00172   0.99999  -0.00460
           Z           -0.00337   0.00460   0.99998
 This molecule is an asymmetric top.
 Rotational symmetry number  1.
 Warning -- assumption of classical behavior for rotation
           may cause significant error
 Rotational temperatures (Kelvin)      0.10900     0.04113     0.03232
 Rotational constants (GHZ):           2.27118     0.85702     0.67347
 Zero-point vibrational energy     717745.4 (Joules/Mol)
                                  171.54527 (Kcal/Mol)
 Warning -- explicit consideration of  17 degrees of freedom as
           vibrations may cause significant error
 Vibrational temperatures:     72.39   114.36   127.39   217.03   245.90
          (Kelvin)            299.11   334.41   364.60   388.06   409.41
                              442.33   451.84   455.60   586.86   607.86
                              672.34   780.67  1102.30  1103.45  1167.48
                             1210.96  1262.24  1332.27  1333.93  1373.39
                             1390.73  1464.59  1481.77  1496.35  1514.52
                             1548.94  1589.41  1671.30  1689.03  1710.68
                             1720.22  1807.46  1836.60  1871.27  1898.40
                             1928.47  1939.25  1971.92  1985.73  1997.56
                             2006.01  2015.56  2029.48  2034.08  2046.78
                             2129.54  2137.09  2138.14  2147.64  2153.48
                             2155.54  2164.23  2165.81  2172.29  2176.50
                             2180.05  4289.71  4298.49  4316.44  4326.87
                             4343.82  4346.59  4354.82  4359.57  4362.30
                             4369.27  4381.50  4416.75  4436.90  4445.78
                             4448.00  4451.03  4454.63  4467.54  4472.49
                             4484.81

 Zero-point correction=                           0.273375 (Hartree/Particle)
 Thermal correction to Energy=                    0.285507
 Thermal correction to Enthalpy=                  0.286451
 Thermal correction to Gibbs Free Energy=         0.235958
 Sum of electronic and zero-point Energies=           -354.773694
 Sum of electronic and thermal Energies=              -354.761562
 Sum of electronic and thermal Enthalpies=            -354.760618
 Sum of electronic and thermal Free Energies=         -354.811111

                     E (Thermal)             CV                S
                      KCal/Mol        Cal/Mol-Kelvin    Cal/Mol-Kelvin
 Total                  179.158             45.058            106.271
 Electronic               0.000              0.000              0.000
 Translational            0.889              2.981             40.457
 Rotational               0.889              2.981             29.885
 Vibrational            177.381             39.097             35.929
 Vibration     1          0.595              1.977              4.805
 Vibration     2          0.600              1.963              3.903
 Vibration     3          0.601              1.957              3.692
 Vibration     4          0.618              1.902              2.662
 Vibration     5          0.626              1.878              2.425
 Vibration     6          0.641              1.829              2.062
 Vibration     7          0.653              1.791              1.860
 Vibration     8          0.665              1.757              1.707
 Vibration     9          0.674              1.729              1.598
 Vibration    10          0.683              1.702              1.506
 Vibration    11          0.697              1.660              1.376
 Vibration    12          0.702              1.647              1.341
 Vibration    13          0.704              1.642              1.327
 Vibration    14          0.772              1.453              0.934
 Vibration    15          0.785              1.421              0.884
 Vibration    16          0.825              1.323              0.745
 Vibration    17          0.898              1.156              0.560

 Optimization completed.
    -- Stationary point found.
 Normal termination of Gaussian 16 at Sun May 28 18:37:29 2023.
