 Gaussian 16, Revision A.03,
 Gaussian 16:  ES64L-G16RevA.03 25-Dec-2016

 -----------------------------
 # opt freq b3lyp/6-31g(2df,p)
 -----------------------------

 -------------------
 Title Card Required
 -------------------
 Symbolic Z-matrix:
 Charge =  0 Multiplicity = 1

 SCF Done:  E(RB3LYP) =  -534.844698720     A.U. after   12 cycles
 SCF Done:  E(RB3LYP) =  -534.845688385     A.U. after   10 cycles
 SCF Done:  E(RB3LYP) =  -534.845808490     A.U. after    8 cycles
 SCF Done:  E(RB3LYP) =  -534.845813114     A.U. after    7 cycles
 Optimization completed.
    -- Stationary point found.
 Normal termination of Gaussian 16 at Sat May 27 21:09:56 2023.

 ----------------------------------------------------------------------
 #N Geom=AllCheck Guess=TCheck SCRF=Check GenChk RB3LYP/6-31G(2df,p) Fr
 eq
 ----------------------------------------------------------------------

 Structure from the checkpoint file:  "CCCqCrqCrCqFrqFrF.chk"
 -------------------
 Title Card Required
 -------------------
 Charge =  0 Multiplicity = 1

                         Standard orientation:
 ---------------------------------------------------------------------
 Center     Atomic      Atomic             Coordinates (Angstroms)
 Number     Number       Type             X           Y           Z
 ---------------------------------------------------------------------
      1          6           0        2.811108   -0.533900    0.000000
      2          6           0        1.317966   -0.876119   -0.000002
      3          6           0        0.350482    0.337012   -0.000000
      4          6           0        0.520571    1.199924    1.264342
      5          6           0        0.520570    1.199926   -1.264341
      6          6           0       -1.080214   -0.219213    0.000000
      7          9           0       -1.323425   -0.981822   -1.081025
      8          9           0       -1.323424   -0.981825    1.081023
      9          9           0       -2.000675    0.762656    0.000003
     10          1           0        3.401974   -1.454833   -0.000002
     11          1           0        3.102869    0.039705    0.884717
     12          1           0        3.102870    0.039709   -0.884714
     13          1           0        1.092615   -1.493522    0.876245
     14          1           0        1.092616   -1.493519   -0.876251
     15          1           0        1.507505    1.668152    1.274778
     16          1           0        0.416310    0.598761    2.171646
     17          1           0       -0.227876    1.995878    1.295335
     18          1           0        1.507506    1.668151   -1.274779
     19          1           0       -0.227874    1.995882   -1.295331
     20          1           0        0.416305    0.598766   -2.171646
 ---------------------------------------------------------------------

 SCF Done:  E(RB3LYP) =  -534.845813114     A.U. after    1 cycles

 The electronic state is 1-A.
 Alpha  occ. eigenvalues --  -24.71180 -24.71179 -24.71154 -10.40591 -10.21493
 Alpha  occ. eigenvalues --  -10.18885 -10.18268 -10.18268 -10.18142  -1.29792
 Alpha  occ. eigenvalues --   -1.20896  -1.20863  -0.83942  -0.74653  -0.69727
 Alpha  occ. eigenvalues --   -0.69425  -0.64426  -0.58776  -0.57369  -0.56987
 Alpha  occ. eigenvalues --   -0.51540  -0.46994  -0.46455  -0.44476  -0.44262
 Alpha  occ. eigenvalues --   -0.42547  -0.42513  -0.41360  -0.39830  -0.39280
 Alpha  occ. eigenvalues --   -0.38878  -0.38168  -0.37765  -0.35691  -0.33328
 Alpha  occ. eigenvalues --   -0.33213  -0.32788
 Alpha virt. eigenvalues --    0.07724   0.11823   0.12024   0.13936   0.14584
 Alpha virt. eigenvalues --    0.14621   0.15346   0.15937   0.16068   0.17831
 Alpha virt. eigenvalues --    0.18246   0.20481   0.21678   0.23593   0.24105

 Mulliken charges:
               1
     1  C   -0.411210
     2  C   -0.197199
     3  C    0.106551
     4  C   -0.431371
     5  C   -0.431371
     6  C    0.296313
     7  F   -0.090123
     8  F   -0.090123
     9  F   -0.089786
    10  H    0.120592
    11  H    0.121036
    12  H    0.121036
    13  H    0.110060
    14  H    0.110060
    15  H    0.121211
    16  H    0.127192
    17  H    0.129364
    18  H    0.121211
    19  H    0.129364
    20  H    0.127192
 Sum of Mulliken charges =  -0.00000

 Dipole moment (field-independent basis, Debye):
    X=              1.9539    Y=              0.6582    Z=             -0.0000  Tot=              2.0618
 Quadrupole moment (field-independent basis, Debye-Ang):
   XX=            -55.2315   YY=            -53.3425   ZZ=            -53.5189
   XY=             -0.6017   XZ=             -0.0000   YZ=             -0.0000

  Exact polarizability:  70.829  -2.432  65.656   0.000   0.000  65.111
 Approx polarizability:  92.658  -1.821  94.136   0.000   0.000  94.207

                      1                      2                      3
                      A                      A                      A
 Frequencies --     60.4196                84.4565               186.5368
 Red. masses --      1.9033                 4.8162                 3.7754
 Frc consts  --      0.0041                 0.0202                 0.0774
 IR Inten    --      0.0375                 0.0291                 0.6719

                      4                      5                      6
                      A                      A                      A
 Frequencies --    191.9266               229.2025               240.4424
 Red. masses --      1.0308                 2.3349                 1.0807
 Frc consts  --      0.0224                 0.0723                 0.0368
 IR Inten    --      0.0304                 0.3347                 0.2481

                      7                      8                      9
                      A                      A                      A
 Frequencies --    274.7501               305.2148               330.7544
 Red. masses --      1.5096                 3.1465                 3.2558
 Frc consts  --      0.0671                 0.1727                 0.2099
 IR Inten    --      0.0647                 0.5751                 2.8522

                     10                     11                     12
                      A                      A                      A
 Frequencies --    338.0032               359.8796               430.4493
 Red. masses --      2.6652                 3.9566                 3.5608
 Frc consts  --      0.1794                 0.3019                 0.3887
 IR Inten    --      0.3499                 2.4981                 1.2586

                     13                     14                     15
                      A                      A                      A
 Frequencies --    441.3297               569.7681               577.1053
 Red. masses --      3.8781                10.4631                 9.3507
 Frc consts  --      0.4450                 2.0013                 1.8349
 IR Inten    --      2.1460                 0.0200                 0.1233

                     16                     17                     18
                      A                      A                      A
 Frequencies --    614.5050               736.4789               788.8520
 Red. masses --      3.1949                 6.0120                 1.1750
 Frc consts  --      0.7108                 1.9213                 0.4308
 IR Inten    --      7.0987                 2.9029                 3.1594

                     19                     20                     21
                      A                      A                      A
 Frequencies --    833.7678               934.1233               952.0364
 Red. masses --      2.7613                 1.8212                 1.4826
 Frc consts  --      1.1310                 0.9363                 0.7917
 IR Inten    --      0.1969                 2.9795                 0.6531

                     22                     23                     24
                      A                      A                      A
 Frequencies --   1004.0818              1029.9988              1055.1271
 Red. masses --      1.2405                 2.3032                 1.6376
 Frc consts  --      0.7369                 1.4397                 1.0742
 IR Inten    --      0.1543                10.2034                12.7266

                     25                     26                     27
                      A                      A                      A
 Frequencies --   1074.4349              1153.5606              1179.6241
 Red. masses --      1.7016                 2.9706                 5.1455
 Frc consts  --      1.1574                 2.3290                 4.2186
 IR Inten    --      3.9456               132.8768               152.2239

                     28                     29                     30
                      A                      A                      A
 Frequencies --   1184.2953              1238.0135              1254.5833
 Red. masses --      6.7864                 2.7942                 3.0629
 Frc consts  --      5.6080                 2.5233                 2.8404
 IR Inten    --    182.6387                27.5665                 8.7077

                     31                     32                     33
                      A                      A                      A
 Frequencies --   1311.0756              1334.1202              1376.4580
 Red. masses --      3.9624                 1.2902                 1.5002
 Frc consts  --      4.0130                 1.3530                 1.6747
 IR Inten    --     74.6936                 0.8465                 4.3220

                     34                     35                     36
                      A                      A                      A
 Frequencies --   1397.7525              1412.4685              1426.6498
 Red. masses --      1.2344                 1.2556                 1.2278
 Frc consts  --      1.4209                 1.4759                 1.4723
 IR Inten    --      3.4192                 1.4210                16.5988

                     37                     38                     39
                      A                      A                      A
 Frequencies --   1484.3198              1488.5745              1491.4992
 Red. masses --      1.0450                 1.0625                 1.0461
 Frc consts  --      1.3565                 1.3872                 1.3711
 IR Inten    --      0.5751                 0.1874                 3.6282

                     40                     41                     42
                      A                      A                      A
 Frequencies --   1506.2795              1509.8659              1510.1027
 Red. masses --      1.0549                 1.0674                 1.0435
 Frc consts  --      1.4102                 1.4336                 1.4020
 IR Inten    --      6.8814                 2.5554                 2.1475

                     43                     44                     45
                      A                      A                      A
 Frequencies --   1520.6788              3041.0290              3043.2612
 Red. masses --      1.0723                 1.0523                 1.0415
 Frc consts  --      1.4609                 5.7337                 5.6834
 IR Inten    --     20.9585                12.8344                24.7604

                     46                     47                     48
                      A                      A                      A
 Frequencies --   3048.7636              3053.8389              3077.6194
 Red. masses --      1.0345                 1.0364                 1.1021
 Frc consts  --      5.6651                 5.6947                 6.1504
 IR Inten    --     18.0304                 5.6320                 4.8762

                     49                     50                     51
                      A                      A                      A
 Frequencies --   3107.6074              3114.2761              3122.9693
 Red. masses --      1.1006                 1.1023                 1.1021
 Frc consts  --      6.2622                 6.2989                 6.3330
 IR Inten    --     26.8451                38.7422                12.1091

                     52                     53                     54
                      A                      A                      A
 Frequencies --   3124.8943              3126.2164              3129.0785
 Red. masses --      1.1015                 1.1018                 1.1010
 Frc consts  --      6.3374                 6.3446                 6.3512
 IR Inten    --     25.4643                 0.0410                33.7203

 - Thermochemistry -
 -------------------
 Temperature   298.150 Kelvin.  Pressure   1.00000 Atm.
 Atom     1 has atomic number  6 and mass  12.00000

 Molecular mass:   140.08129 amu.
 Principal axes and moments of inertia in atomic units:
                           1         2         3
     Eigenvalues --   784.158731493.101211548.34993
           X            0.99983  -0.01836   0.00000
           Y            0.01836   0.99983  -0.00000
           Z           -0.00000   0.00000   1.00000
 This molecule is an asymmetric top.
 Rotational symmetry number  1.
 Warning -- assumption of classical behavior for rotation
           may cause significant error
 Rotational temperatures (Kelvin)      0.11045     0.05801     0.05594
 Rotational constants (GHZ):           2.30150     1.20872     1.16559
 Zero-point vibrational energy     433126.6 (Joules/Mol)
                                  103.51975 (Kcal/Mol)
 Warning -- explicit consideration of  16 degrees of freedom as
           vibrations may cause significant error
 Vibrational temperatures:     86.93   121.51   268.38   276.14   329.77
          (Kelvin)            345.94   395.30   439.14   475.88   486.31
                              517.79   619.32   634.98   819.77   830.33
                              884.14  1059.63  1134.98  1199.61  1344.00
                             1369.77  1444.65  1481.94  1518.09  1545.87
                             1659.72  1697.22  1703.94  1781.23  1805.07
                             1886.35  1919.50  1980.42  2011.05  2032.23
                             2052.63  2135.61  2141.73  2145.93  2167.20
                             2172.36  2172.70  2187.92  4375.36  4378.57
                             4386.49  4393.79  4428.01  4471.15  4480.75
                             4493.26  4496.03  4497.93  4502.05

 Zero-point correction=                           0.164969 (Hartree/Particle)
 Thermal correction to Energy=                    0.175217
 Thermal correction to Enthalpy=                  0.176161
 Thermal correction to Gibbs Free Energy=         0.129895
 Sum of electronic and zero-point Energies=           -534.680844
 Sum of electronic and thermal Energies=              -534.670596
 Sum of electronic and thermal Enthalpies=            -534.669652
 Sum of electronic and thermal Free Energies=         -534.715918

                     E (Thermal)             CV                S
                      KCal/Mol        Cal/Mol-Kelvin    Cal/Mol-Kelvin
 Total                  109.950             37.792             97.375
 Electronic               0.000              0.000              0.000
 Translational            0.889              2.981             40.723
 Rotational               0.889              2.981             28.985
 Vibrational            108.173             31.831             27.667
 Vibration     1          0.597              1.973              4.443
 Vibration     2          0.601              1.960              3.785
 Vibration     3          0.632              1.858              2.262
 Vibration     4          0.634              1.851              2.209
 Vibration     5          0.652              1.796              1.885
 Vibration     6          0.658              1.778              1.800
 Vibration     7          0.677              1.720              1.566
 Vibration     8          0.696              1.664              1.388
 Vibration     9          0.713              1.614              1.256
 Vibration    10          0.718              1.600              1.222
 Vibration    11          0.734              1.555              1.123
 Vibration    12          0.792              1.404              0.857
 Vibration    13          0.801              1.380              0.822
 Vibration    14          0.926              1.097              0.505
 Vibration    15          0.934              1.081              0.491
 Vibration    16          0.974              1.001              0.425

 Optimization completed.
    -- Stationary point found.
 Normal termination of Gaussian 16 at Sat May 27 21:45:04 2023.
