 Gaussian 16, Revision A.03,
 Gaussian 16:  ES64L-G16RevA.03 25-Dec-2016

 -----------------------------
 # opt freq b3lyp/6-31g(2df,p)
 -----------------------------

 -------------------
 Title Card Required
 -------------------
 Symbolic Z-matrix:
 Charge =  0 Multiplicity = 1

 SCF Done:  E(RB3LYP) =  -315.730991917     A.U. after   12 cycles
 SCF Done:  E(RB3LYP) =  -315.731991576     A.U. after   10 cycles
 SCF Done:  E(RB3LYP) =  -315.732121753     A.U. after    9 cycles
 SCF Done:  E(RB3LYP) =  -315.732267271     A.U. after    9 cycles
 SCF Done:  E(RB3LYP) =  -315.732324443     A.U. after    9 cycles
 SCF Done:  E(RB3LYP) =  -315.732398727     A.U. after    9 cycles
 SCF Done:  E(RB3LYP) =  -315.732493562     A.U. after    9 cycles
 SCF Done:  E(RB3LYP) =  -315.732422463     A.U. after   10 cycles
 SCF Done:  E(RB3LYP) =  -315.732246034     A.U. after   10 cycles
 SCF Done:  E(RB3LYP) =  -315.732527572     A.U. after    9 cycles
 SCF Done:  E(RB3LYP) =  -315.732385735     A.U. after   10 cycles
 SCF Done:  E(RB3LYP) =  -315.732535848     A.U. after   10 cycles
 SCF Done:  E(RB3LYP) =  -315.732433466     A.U. after   10 cycles
 SCF Done:  E(RB3LYP) =  -315.705137549     A.U. after   11 cycles
 SCF Done:  E(RB3LYP) =  -315.732049264     A.U. after   10 cycles
 SCF Done:  E(RB3LYP) =  -315.732542892     A.U. after    6 cycles
 SCF Done:  E(RB3LYP) =  -315.732547478     A.U. after    8 cycles
 SCF Done:  E(RB3LYP) =  -315.732550480     A.U. after    8 cycles
 SCF Done:  E(RB3LYP) =  -315.732550858     A.U. after    6 cycles
 Optimization completed.
    -- Stationary point found.
 Normal termination of Gaussian 16 at Mon May 29 00:00:01 2023.

 ----------------------------------------------------------------------
 #N Geom=AllCheck Guess=TCheck SCRF=Check GenChk RB3LYP/6-31G(2df,p) Fr
 eq
 ----------------------------------------------------------------------

 Structure from the checkpoint file:  "CCCqCrCqCrqCrC.chk"
 -------------------
 Title Card Required
 -------------------
 Charge =  0 Multiplicity = 1

                         Standard orientation:
 ---------------------------------------------------------------------
 Center     Atomic      Atomic             Coordinates (Angstroms)
 Number     Number       Type             X           Y           Z
 ---------------------------------------------------------------------
      1          6           0       -2.909503   -0.451540   -0.246272
      2          6           0       -1.520618   -0.543059    0.397754
      3          6           0       -0.445482    0.320688   -0.302293
      4          6           0       -0.671599    1.806557    0.029805
      5          6           0        1.020631   -0.164243   -0.028729
      6          6           0        1.317710   -0.278099    1.479343
      7          6           0        1.243918   -1.540766   -0.689208
      8          6           0        2.031376    0.815365   -0.660325
      9          1           0       -3.628625   -1.084441    0.283658
     10          1           0       -2.881086   -0.784169   -1.290058
     11          1           0       -3.305208    0.568846   -0.236327
     12          1           0       -1.217883   -1.594898    0.399743
     13          1           0       -1.591041   -0.247563    1.452478
     14          1           0       -0.595711    0.206324   -1.386726
     15          1           0       -0.445094    2.022882    1.079845
     16          1           0       -1.715386    2.086635   -0.139044
     17          1           0       -0.059580    2.467434   -0.588261
     18          1           0        0.683316   -1.025900    1.964458
     19          1           0        1.169945    0.674961    1.997399
     20          1           0        2.359212   -0.577806    1.639898
     21          1           0        0.593248   -2.316526   -0.276099
     22          1           0        2.277172   -1.872825   -0.539986
     23          1           0        1.064102   -1.492841   -1.769200
     24          1           0        2.038056    1.785091   -0.155331
     25          1           0        1.809984    0.988128   -1.719974
     26          1           0        3.045981    0.407252   -0.596928
 ---------------------------------------------------------------------

 SCF Done:  E(RB3LYP) =  -315.732550858     A.U. after    1 cycles

 The electronic state is 1-A.
 Alpha  occ. eigenvalues --  -10.18868 -10.17870 -10.17224 -10.16899 -10.16540
 Alpha  occ. eigenvalues --  -10.16526 -10.16512 -10.16491  -0.82458  -0.76551
 Alpha  occ. eigenvalues --   -0.71190  -0.67809  -0.67596  -0.63237  -0.58005
 Alpha  occ. eigenvalues --   -0.51668  -0.46268  -0.45208  -0.43384  -0.42808
 Alpha  occ. eigenvalues --   -0.41176  -0.39908  -0.38413  -0.37268  -0.36650
 Alpha  occ. eigenvalues --   -0.35784  -0.35509  -0.34933  -0.33408  -0.32773
 Alpha  occ. eigenvalues --   -0.30436  -0.29706  -0.29331
 Alpha virt. eigenvalues --    0.07545   0.11094   0.11696   0.12140   0.13117
 Alpha virt. eigenvalues --    0.13916   0.14960   0.15938   0.16345   0.16930
 Alpha virt. eigenvalues --    0.17721   0.18394   0.19347   0.20138   0.20637

 Mulliken charges:
               1
     1  C   -0.389330
     2  C   -0.183474
     3  C    0.059347
     4  C   -0.417853
     5  C    0.265968
     6  C   -0.406862
     7  C   -0.410924
     8  C   -0.411767
     9  H    0.109506
    10  H    0.112947
    11  H    0.116691
    12  H    0.093054
    13  H    0.093577
    14  H    0.060244
    15  H    0.113166
    16  H    0.111253
    17  H    0.113849
    18  H    0.110561
    19  H    0.109382
    20  H    0.105871
    21  H    0.111343
    22  H    0.106102
    23  H    0.106159
    24  H    0.111421
    25  H    0.105304
    26  H    0.104466
 Sum of Mulliken charges =  -0.00000

 Dipole moment (field-independent basis, Debye):
    X=             -0.0168    Y=             -0.0366    Z=              0.0017  Tot=              0.0403
 Quadrupole moment (field-independent basis, Debye-Ang):
   XX=            -55.2048   YY=            -55.1088   ZZ=            -54.8240
   XY=             -0.0030   XZ=             -0.0699   YZ=             -0.0431

  Exact polarizability:  97.365   0.121  85.900  -0.229  -0.052  80.760
 Approx polarizability: 124.209  -0.450 121.511  -0.118  -0.017 121.201

                      1                      2                      3
                      A                      A                      A
 Frequencies --     72.8930                73.4613               197.8607
 Red. masses --      2.2397                 1.8466                 1.2511
 Frc consts  --      0.0070                 0.0059                 0.0289
 IR Inten    --      0.0051                 0.0029                 0.0069

                      4                      5                      6
                      A                      A                      A
 Frequencies --    202.6138               222.4295               230.4503
 Red. masses --      1.2304                 1.1441                 1.6540
 Frc consts  --      0.0298                 0.0333                 0.0518
 IR Inten    --      0.0133                 0.0059                 0.0113

                      7                      8                      9
                      A                      A                      A
 Frequencies --    254.1660               280.8635               306.8416
 Red. masses --      1.0828                 1.2443                 1.9126
 Frc consts  --      0.0412                 0.0578                 0.1061
 IR Inten    --      0.0689                 0.0611                 0.0526

                     10                     11                     12
                      A                      A                      A
 Frequencies --    325.8234               342.3214               371.3143
 Red. masses --      2.4757                 2.2961                 1.9815
 Frc consts  --      0.1548                 0.1585                 0.1610
 IR Inten    --      0.0151                 0.0212                 0.0871

                     13                     14                     15
                      A                      A                      A
 Frequencies --    385.8258               446.9803               456.7515
 Red. masses --      2.0971                 2.4465                 2.2209
 Frc consts  --      0.1839                 0.2880                 0.2730
 IR Inten    --      0.0513                 0.0397                 0.2189

                     16                     17                     18
                      A                      A                      A
 Frequencies --    526.6814               717.3044               776.9330
 Red. masses --      2.3685                 2.7129                 1.2712
 Frc consts  --      0.3871                 0.8224                 0.4521
 IR Inten    --      0.3578                 0.8066                 2.3768

                     19                     20                     21
                      A                      A                      A
 Frequencies --    832.8215               895.5409               930.5081
 Red. masses --      1.9902                 1.9150                 1.7823
 Frc consts  --      0.8133                 0.9049                 0.9092
 IR Inten    --      0.1352                 0.1627                 0.4167

                     22                     23                     24
                      A                      A                      A
 Frequencies --    934.8926               956.4388               977.8770
 Red. masses --      1.7679                 1.2000                 1.2007
 Frc consts  --      0.9104                 0.6468                 0.6765
 IR Inten    --      0.3804                 0.0261                 1.4679

                     25                     26                     27
                      A                      A                      A
 Frequencies --    983.1344              1014.7184              1033.7050
 Red. masses --      1.8900                 1.4076                 1.5980
 Frc consts  --      1.0763                 0.8539                 1.0061
 IR Inten    --      1.2799                 2.8648                 0.3832

                     28                     29                     30
                      A                      A                      A
 Frequencies --   1041.3096              1101.9926              1133.4856
 Red. masses --      1.8067                 1.5504                 2.0144
 Frc consts  --      1.1543                 1.1093                 1.5248
 IR Inten    --      0.3264                 5.4086                 0.6117

                     31                     32                     33
                      A                      A                      A
 Frequencies --   1181.9501              1226.5666              1243.3317
 Red. masses --      1.9768                 2.1496                 2.5850
 Frc consts  --      1.6271                 1.9054                 2.3544
 IR Inten    --      6.3944                 5.7011                 3.6301

                     34                     35                     36
                      A                      A                      A
 Frequencies --   1264.7304              1298.9337              1331.9187
 Red. masses --      2.6490                 1.2852                 1.3105
 Frc consts  --      2.4964                 1.2776                 1.3697
 IR Inten    --      4.7434                 0.8621                 1.4937

                     37                     38                     39
                      A                      A                      A
 Frequencies --   1362.5882              1380.5117              1398.7191
 Red. masses --      1.3405                 1.4198                 1.2338
 Frc consts  --      1.4664                 1.5943                 1.4222
 IR Inten    --      1.1435                 0.2467                 5.3735

                     40                     41                     42
                      A                      A                      A
 Frequencies --   1400.2847              1406.8181              1416.4369
 Red. masses --      1.2429                 1.2549                 1.2153
 Frc consts  --      1.4359                 1.4634                 1.4365
 IR Inten    --      2.9151                 5.5420                 4.2092

                     43                     44                     45
                      A                      A                      A
 Frequencies --   1433.6984              1478.0981              1482.8199
 Red. masses --      1.2179                 1.0563                 1.0519
 Frc consts  --      1.4750                 1.3596                 1.3627
 IR Inten    --      4.7697                 0.3496                 0.1907

                     46                     47                     48
                      A                      A                      A
 Frequencies --   1485.8424              1489.6482              1495.9084
 Red. masses --      1.0456                 1.0506                 1.0436
 Frc consts  --      1.3601                 1.3736                 1.3759
 IR Inten    --      0.3647                 1.1261                 1.8180

                     49                     50                     51
                      A                      A                      A
 Frequencies --   1499.8178              1506.0356              1509.7905
 Red. masses --      1.0520                 1.0501                 1.0523
 Frc consts  --      1.3943                 1.4033                 1.4132
 IR Inten    --      2.9458                 2.9329                 3.7914

                     52                     53                     54
                      A                      A                      A
 Frequencies --   1512.5184              1513.7567              1523.6673
 Red. masses --      1.0688                 1.0528                 1.0565
 Frc consts  --      1.4406                 1.4214                 1.4451
 IR Inten    --      4.6037                 9.6243                 3.8783

                     55                     56                     57
                      A                      A                      A
 Frequencies --   2981.4664              3023.4097              3025.2413
 Red. masses --      1.0817                 1.0410                 1.0585
 Frc consts  --      5.6653                 5.6065                 5.7074
 IR Inten    --     18.5313                13.3998                21.3040

                     58                     59                     60
                      A                      A                      A
 Frequencies --   3027.0106              3031.1879              3033.6501
 Red. masses --      1.0359                 1.0364                 1.0378
 Frc consts  --      5.5923                 5.6104                 5.6274
 IR Inten    --     31.6545                31.2627                23.8807

                     61                     62                     63
                      A                      A                      A
 Frequencies --   3040.8647              3067.7531              3085.6080
 Red. masses --      1.0395                 1.0954                 1.1013
 Frc consts  --      5.6632                 6.0738                 6.1781
 IR Inten    --     16.2622                 9.9423                 0.8416

                     64                     65                     66
                      A                      A                      A
 Frequencies --   3089.7062              3094.6678              3096.3836
 Red. masses --      1.1007                 1.0998                 1.1011
 Frc consts  --      6.1911                 6.2059                 6.2198
 IR Inten    --      7.8810                81.6122                35.4081

                     67                     68                     69
                      A                      A                      A
 Frequencies --   3099.1601              3102.0978              3106.3702
 Red. masses --      1.1005                 1.1000                 1.0996
 Frc consts  --      6.2278                 6.2366                 6.2516
 IR Inten    --     19.0342                 8.5373                60.5952

                     70                     71                     72
                      A                      A                      A
 Frequencies --   3107.3884              3108.7580              3119.5945
 Red. masses --      1.0998                 1.0982                 1.0991
 Frc consts  --      6.2567                 6.2532                 6.3020
 IR Inten    --     22.7913                87.5356                22.6373

 - Thermochemistry -
 -------------------
 Temperature   298.150 Kelvin.  Pressure   1.00000 Atm.
 Atom     1 has atomic number  6 and mass  12.00000

 Molecular mass:   114.14085 amu.
 Principal axes and moments of inertia in atomic units:
                           1         2         3
     Eigenvalues --   667.741271342.053801538.19914
           X            1.00000   0.00034   0.00128
           Y           -0.00034   0.99999   0.00337
           Z           -0.00128  -0.00337   0.99999
 This molecule is an asymmetric top.
 Rotational symmetry number  1.
 Warning -- assumption of classical behavior for rotation
           may cause significant error
 Rotational temperatures (Kelvin)      0.12971     0.06454     0.05631
 Rotational constants (GHZ):           2.70276     1.34476     1.17328
 Zero-point vibrational energy     640675.9 (Joules/Mol)
                                  153.12522 (Kcal/Mol)
 Warning -- explicit consideration of  16 degrees of freedom as
           vibrations may cause significant error
 Vibrational temperatures:    104.88   105.69   284.68   291.52   320.03
          (Kelvin)            331.57   365.69   404.10   441.48   468.79
                              492.52   534.24   555.12   643.10   657.16
                              757.78  1032.04  1117.83  1198.24  1288.48
                             1338.79  1345.10  1376.10  1406.95  1414.51
                             1459.95  1487.27  1498.21  1585.52  1630.83
                             1700.56  1764.76  1788.88  1819.66  1868.88
                             1916.33  1960.46  1986.25  2012.44  2014.70
                             2024.10  2037.94  2062.77  2126.65  2133.45
                             2137.80  2143.27  2152.28  2157.90  2166.85
                             2172.25  2176.18  2177.96  2192.22  4289.67
                             4350.01  4352.65  4355.19  4361.20  4364.75
                             4375.13  4413.81  4439.50  4445.40  4452.54
                             4455.01  4459.00  4463.23  4469.37  4470.84
                             4472.81  4488.40

 Zero-point correction=                           0.244021 (Hartree/Particle)
 Thermal correction to Energy=                    0.254943
 Thermal correction to Enthalpy=                  0.255887
 Thermal correction to Gibbs Free Energy=         0.209036
 Sum of electronic and zero-point Energies=           -315.488530
 Sum of electronic and thermal Energies=              -315.477608
 Sum of electronic and thermal Enthalpies=            -315.476664
 Sum of electronic and thermal Free Energies=         -315.523515

                     E (Thermal)             CV                S
                      KCal/Mol        Cal/Mol-Kelvin    Cal/Mol-Kelvin
 Total                  159.979             41.352             98.608
 Electronic               0.000              0.000              0.000
 Translational            0.889              2.981             40.112
 Rotational               0.889              2.981             28.712
 Vibrational            158.202             35.390             29.783
 Vibration     1          0.599              1.967              4.074
 Vibration     2          0.599              1.967              4.058
 Vibration     3          0.637              1.843              2.153
 Vibration     4          0.639              1.836              2.109
 Vibration     5          0.648              1.807              1.939
 Vibration     6          0.652              1.794              1.875
 Vibration     7          0.665              1.756              1.702
 Vibration     8          0.681              1.709              1.528
 Vibration     9          0.697              1.661              1.379
 Vibration    10          0.710              1.624              1.281
 Vibration    11          0.721              1.591              1.201
 Vibration    12          0.743              1.531              1.074
 Vibration    13          0.755              1.500              1.016
 Vibration    14          0.806              1.368              0.805
 Vibration    15          0.815              1.346              0.776
 Vibration    16          0.882              1.191              0.595

 Optimization completed.
    -- Stationary point found.
 Normal termination of Gaussian 16 at Mon May 29 00:38:38 2023.
