 Gaussian 16, Revision A.03,
 Gaussian 16:  ES64L-G16RevA.03 25-Dec-2016

 -----------------------------
 # opt freq b3lyp/6-31g(2df,p)
 -----------------------------

 -------------------
 Title Card Required
 -------------------
 Symbolic Z-matrix:
 Charge =  0 Multiplicity = 1

 SCF Done:  E(RB3LYP) =  -548.175760925     A.U. after   12 cycles
 SCF Done:  E(RB3LYP) =  -548.184926848     A.U. after   11 cycles
 SCF Done:  E(RB3LYP) =  -548.189975776     A.U. after   10 cycles
 SCF Done:  E(RB3LYP) =  -548.194336899     A.U. after   10 cycles
 SCF Done:  E(RB3LYP) =  -548.196421783     A.U. after   10 cycles
 SCF Done:  E(RB3LYP) =  -548.198953386     A.U. after   10 cycles
 SCF Done:  E(RB3LYP) =  -548.201305309     A.U. after   10 cycles
 SCF Done:  E(RB3LYP) =  -548.202187516     A.U. after   10 cycles
 SCF Done:  E(RB3LYP) =  -548.202594791     A.U. after   10 cycles
 SCF Done:  E(RB3LYP) =  -548.202766271     A.U. after   10 cycles
 SCF Done:  E(RB3LYP) =  -548.202887817     A.U. after   10 cycles
 SCF Done:  E(RB3LYP) =  -548.202986347     A.U. after   10 cycles
 SCF Done:  E(RB3LYP) =  -548.203004702     A.U. after    8 cycles
 SCF Done:  E(RB3LYP) =  -548.203014808     A.U. after    8 cycles
 SCF Done:  E(RB3LYP) =  -548.203017048     A.U. after    8 cycles
 SCF Done:  E(RB3LYP) =  -548.203017499     A.U. after    8 cycles
 SCF Done:  E(RB3LYP) =  -548.203017566     A.U. after    7 cycles
 SCF Done:  E(RB3LYP) =  -548.203017670     A.U. after    6 cycles
 SCF Done:  E(RB3LYP) =  -548.203017701     A.U. after    5 cycles
 Optimization completed.
    -- Stationary point found.
 Normal termination of Gaussian 16 at Tue May 23 07:18:12 2023.

 ----------------------------------------------------------------------
 #N Geom=AllCheck Guess=TCheck SCRF=Check GenChk RB3LYP/6-31G(2df,p) Fr
 eq
 ----------------------------------------------------------------------

 Structure from the checkpoint file:  "CCCqCrCCqCCrCqCrCCO.chk"
 -------------------
 Title Card Required
 -------------------
 Charge =  0 Multiplicity = 1

                         Standard orientation:
 ---------------------------------------------------------------------
 Center     Atomic      Atomic             Coordinates (Angstroms)
 Number     Number       Type             X           Y           Z
 ---------------------------------------------------------------------
      1          6           0       -4.766484   -0.781950   -0.909273
      2          6           0       -3.418048   -1.177538   -0.299167
      3          6           0       -2.454247   -0.005542   -0.012452
      4          6           0       -3.080222    0.995285    0.972123
      5          6           0       -1.090762   -0.557736    0.486698
      6          6           0        0.190705    0.154926   -0.003573
      7          6           0        0.283878    1.635003    0.460524
      8          6           0       -0.243389    2.673642   -0.537021
      9          6           0        1.490054   -0.604562    0.413101
     10          6           0        1.390172   -2.136953    0.321973
     11          6           0        2.692306   -0.116295   -0.428554
     12          6           0        4.053966   -0.304481    0.244914
     13          8           0        5.129018    0.177187   -0.548510
     14          1           0       -5.349413   -1.670411   -1.172302
     15          1           0       -4.628842   -0.193989   -1.824278
     16          1           0       -5.373429   -0.186526   -0.220956
     17          1           0       -2.915585   -1.875180   -0.981370
     18          1           0       -3.586047   -1.736115    0.632723
     19          1           0       -2.287599    0.508263   -0.969687
     20          1           0       -3.328362    0.496263    1.917060
     21          1           0       -4.001909    1.431829    0.576317
     22          1           0       -2.405075    1.821402    1.205516
     23          1           0       -1.031506   -1.601885    0.168113
     24          1           0       -1.091719   -0.581908    1.586449
     25          1           0        0.161417    0.143569   -1.104616
     26          1           0        1.328949    1.884064    0.673813
     27          1           0       -0.233611    1.740375    1.421465
     28          1           0        0.306642    2.616338   -1.483002
     29          1           0       -0.121642    3.689175   -0.145490
     30          1           0       -1.303113    2.533946   -0.766343
     31          1           0        1.684749   -0.348137    1.466031
     32          1           0        1.059615   -2.451789   -0.675451
     33          1           0        0.695618   -2.555546    1.053919
     34          1           0        2.364902   -2.600271    0.503135
     35          1           0        2.598721    0.945987   -0.675153
     36          1           0        2.688694   -0.653219   -1.389385
     37          1           0        4.212978   -1.357502    0.525072
     38          1           0        4.090387    0.279370    1.171798
     39          1           0        5.145471   -0.338405   -1.361063
 ---------------------------------------------------------------------

 SCF Done:  E(RB3LYP) =  -548.203017701     A.U. after    1 cycles

 The electronic state is 1-A.
 Alpha  occ. eigenvalues --  -19.12878 -10.22098 -10.18606 -10.18177 -10.18134
 Alpha  occ. eigenvalues --  -10.17482 -10.17474 -10.17445 -10.17169 -10.17016
 Alpha  occ. eigenvalues --  -10.17000 -10.16984 -10.16729  -1.00940  -0.82660
 Alpha  occ. eigenvalues --   -0.79828  -0.76308  -0.72939  -0.71458  -0.69255
 Alpha  occ. eigenvalues --   -0.65811  -0.62813  -0.60898  -0.58122  -0.55308
 Alpha  occ. eigenvalues --   -0.55163  -0.49932  -0.46334  -0.45817  -0.45498
 Alpha  occ. eigenvalues --   -0.44737  -0.42771  -0.41971  -0.41638  -0.40459
 Alpha  occ. eigenvalues --   -0.40078  -0.39563  -0.38601  -0.37561  -0.36959
 Alpha  occ. eigenvalues --   -0.36016  -0.35117  -0.34719  -0.34292  -0.33500
 Alpha  occ. eigenvalues --   -0.33098  -0.32233  -0.31604  -0.31329  -0.30725
 Alpha  occ. eigenvalues --   -0.29591  -0.29042  -0.25750
 Alpha virt. eigenvalues --    0.07743   0.08369   0.09155   0.10157   0.10363
 Alpha virt. eigenvalues --    0.12014   0.12604   0.13057   0.13504   0.13746
 Alpha virt. eigenvalues --    0.14870   0.15384   0.15609   0.16297   0.16667

 Mulliken charges:
               1
     1  C   -0.392469
     2  C   -0.169241
     3  C    0.048230
     4  C   -0.396627
     5  C   -0.229927
     6  C    0.023736
     7  C   -0.180388
     8  C   -0.389136
     9  C    0.023765
    10  C   -0.416551
    11  C   -0.208543
    12  C   -0.063636
    13  O   -0.419743
    14  H    0.110483
    15  H    0.111613
    16  H    0.118171
    17  H    0.090160
    18  H    0.091135
    19  H    0.067717
    20  H    0.107763
    21  H    0.111737
    22  H    0.119461
    23  H    0.091876
    24  H    0.085396
    25  H    0.060648
    26  H    0.095554
    27  H    0.093252
    28  H    0.112849
    29  H    0.109716
    30  H    0.124065
    31  H    0.067652
    32  H    0.112462
    33  H    0.119234
    34  H    0.108331
    35  H    0.107400
    36  H    0.077723
    37  H    0.086984
    38  H    0.110360
    39  H    0.278790
 Sum of Mulliken charges =  -0.00000

 Dipole moment (field-independent basis, Debye):
    X=             -1.0523    Y=             -1.0516    Z=             -0.4586  Tot=              1.5568
 Quadrupole moment (field-independent basis, Debye-Ang):
   XX=            -96.4966   YY=            -86.4642   ZZ=            -83.4943
   XY=             -5.1740   XZ=             -2.8714   YZ=              1.4658

  Exact polarizability: 162.094   0.371 132.261  -0.517   0.452 116.769
 Approx polarizability: 190.395   1.371 186.029  -2.131   1.466 187.780

                      1                      2                      3
                      A                      A                      A
 Frequencies --     31.7155                46.8382                63.6152
 Red. masses --      3.8439                 2.3208                 3.4932
 Frc consts  --      0.0023                 0.0030                 0.0083
 IR Inten    --      0.1646                 0.2933                 0.4351

                      4                      5                      6
                      A                      A                      A
 Frequencies --     72.3248                77.8351               104.7491
 Red. masses --      2.4760                 2.3684                 1.9524
 Frc consts  --      0.0076                 0.0085                 0.0126
 IR Inten    --      0.9183                 1.7218                 0.0230

                      7                      8                      9
                      A                      A                      A
 Frequencies --    110.2695               134.8786               197.2619
 Red. masses --      2.4498                 2.2742                 2.3522
 Frc consts  --      0.0176                 0.0244                 0.0539
 IR Inten    --      1.2408                 0.1905                 1.1805

                     10                     11                     12
                      A                      A                      A
 Frequencies --    205.8072               224.1849               226.9205
 Red. masses --      1.2426                 1.7627                 1.4127
 Frc consts  --      0.0310                 0.0522                 0.0429
 IR Inten    --      0.0737                 0.1597                 0.2533

                     13                     14                     15
                      A                      A                      A
 Frequencies --    249.8963               254.2961               282.5355
 Red. masses --      2.0574                 1.5353                 1.3787
 Frc consts  --      0.0757                 0.0585                 0.0648
 IR Inten    --      0.2813                 2.7264                17.9002

                     16                     17                     18
                      A                      A                      A
 Frequencies --    295.0814               306.0816               316.8615
 Red. masses --      1.3620                 1.4571                 2.4166
 Frc consts  --      0.0699                 0.0804                 0.1430
 IR Inten    --     33.7277                51.7168                 7.0494

                     19                     20                     21
                      A                      A                      A
 Frequencies --    335.9624               361.9734               420.5682
 Red. masses --      2.4037                 2.5180                 1.9715
 Frc consts  --      0.1599                 0.1944                 0.2055
 IR Inten    --      2.2645                 0.3842                 0.5063

                     22                     23                     24
                      A                      A                      A
 Frequencies --    423.4970               446.5406               469.4307
 Red. masses --      2.7206                 2.3837                 2.5619
 Frc consts  --      0.2875                 0.2800                 0.3326
 IR Inten    --      3.7459                 0.1766                 0.8092

                     25                     26                     27
                      A                      A                      A
 Frequencies --    521.3659               559.8872               768.4141
 Red. masses --      2.2982                 2.6968                 1.2281
 Frc consts  --      0.3681                 0.4981                 0.4272
 IR Inten    --      0.6248                 1.2271                 6.0404

                     28                     29                     30
                      A                      A                      A
 Frequencies --    775.9396               776.6577               806.6088
 Red. masses --      1.2937                 1.1816                 2.0658
 Frc consts  --      0.4589                 0.4199                 0.7919
 IR Inten    --      2.1269                 2.2868                 0.1350

                     31                     32                     33
                      A                      A                      A
 Frequencies --    832.4524               879.0389               912.6112
 Red. masses --      1.9512                 1.9307                 1.8038
 Frc consts  --      0.7967                 0.8790                 0.8851
 IR Inten    --      0.0203                 0.4107                 0.8220

                     34                     35                     36
                      A                      A                      A
 Frequencies --    919.8074               950.6707               967.9754
 Red. masses --      1.8630                 1.8753                 1.4082
 Frc consts  --      0.9287                 0.9986                 0.7774
 IR Inten    --      1.7722                 3.7005                13.3242

                     37                     38                     39
                      A                      A                      A
 Frequencies --    970.8197               993.8756              1014.7368
 Red. masses --      1.2742                 1.9293                 1.7999
 Frc consts  --      0.7076                 1.1229                 1.0920
 IR Inten    --      1.3999                 3.8288                 1.5487

                     40                     41                     42
                      A                      A                      A
 Frequencies --   1021.2505              1044.1769              1051.8457
 Red. masses --      2.8003                 2.2721                 2.1389
 Frc consts  --      1.7207                 1.4596                 1.3943
 IR Inten    --     19.8331                 2.0687                 1.9049

                     43                     44                     45
                      A                      A                      A
 Frequencies --   1072.2049              1074.3351              1078.3382
 Red. masses --      2.5924                 1.6081                 3.3015
 Frc consts  --      1.7559                 1.0936                 2.2619
 IR Inten    --     34.9947                 7.2036                72.2143

                     46                     47                     48
                      A                      A                      A
 Frequencies --   1111.7752              1125.1032              1154.1254
 Red. masses --      2.0032                 1.4545                 2.4048
 Frc consts  --      1.4589                 1.0848                 1.8873
 IR Inten    --      0.8128                 7.7002                 2.1341

                     49                     50                     51
                      A                      A                      A
 Frequencies --   1166.6776              1175.3065              1184.1502
 Red. masses --      2.0239                 2.0364                 1.9161
 Frc consts  --      1.6231                 1.6574                 1.5830
 IR Inten    --      2.5951                 0.3351                 5.5942

                     52                     53                     54
                      A                      A                      A
 Frequencies --   1203.6919              1241.3450              1266.4707
 Red. masses --      1.5759                 1.3487                 1.2913
 Frc consts  --      1.3453                 1.2245                 1.2203
 IR Inten    --      2.4864                 6.9843                 0.8067

                     55                     56                     57
                      A                      A                      A
 Frequencies --   1290.8194              1306.6565              1314.5345
 Red. masses --      1.2526                 1.2434                 1.1769
 Frc consts  --      1.2297                 1.2508                 1.1982
 IR Inten    --      1.2527                 5.1762                 4.5017

                     58                     59                     60
                      A                      A                      A
 Frequencies --   1316.4976              1321.7148              1349.7352
 Red. masses --      1.1354                 1.2070                 1.2462
 Frc consts  --      1.1594                 1.2423                 1.3377
 IR Inten    --      3.5175                 1.4228                 4.1842

                     61                     62                     63
                      A                      A                      A
 Frequencies --   1358.7557              1368.7240              1374.1983
 Red. masses --      1.3268                 1.3413                 1.3689
 Frc consts  --      1.4433                 1.4805                 1.5231
 IR Inten    --      3.2574                 3.5445                 0.9946

                     64                     65                     66
                      A                      A                      A
 Frequencies --   1378.8778              1381.7529              1398.4978
 Red. masses --      1.4091                 1.3567                 1.3334
 Frc consts  --      1.5785                 1.5261                 1.5365
 IR Inten    --      0.7831                 1.3016                 2.3435

                     67                     68                     69
                      A                      A                      A
 Frequencies --   1399.2451              1411.3086              1412.5490
 Red. masses --      1.2898                 1.2350                 1.2320
 Frc consts  --      1.4879                 1.4493                 1.4483
 IR Inten    --      8.7754                 3.4848                 0.8000

                     70                     71                     72
                      A                      A                      A
 Frequencies --   1414.7932              1417.4266              1421.1414
 Red. masses --      1.2239                 1.2867                 1.2806
 Frc consts  --      1.4434                 1.5231                 1.5238
 IR Inten    --      1.8698                 5.2431                55.3092

                     73                     74                     75
                      A                      A                      A
 Frequencies --   1478.8721              1480.8049              1487.1242
 Red. masses --      1.0767                 1.0709                 1.0695
 Frc consts  --      1.3874                 1.3836                 1.3935
 IR Inten    --      1.7491                 2.2767                 1.8051

                     76                     77                     78
                      A                      A                      A
 Frequencies --   1494.2364              1496.1705              1499.2820
 Red. masses --      1.0521                 1.0428                 1.0583
 Frc consts  --      1.3840                 1.3753                 1.4016
 IR Inten    --      1.1830                 5.9881                 1.8492

                     79                     80                     81
                      A                      A                      A
 Frequencies --   1500.2885              1503.7071              1504.6597
 Red. masses --      1.0433                 1.0621                 1.0549
 Frc consts  --      1.3836                 1.4149                 1.4071
 IR Inten    --      1.8389                 2.1299                 4.1347

                     82                     83                     84
                      A                      A                      A
 Frequencies --   1509.4099              1510.9402              1517.3293
 Red. masses --      1.0682                 1.0638                 1.0601
 Frc consts  --      1.4339                 1.4309                 1.4380
 IR Inten    --      1.9319                 2.4364                 3.0221

                     85                     86                     87
                      A                      A                      A
 Frequencies --   1522.0347              2971.1985              2980.0765
 Red. masses --      1.0717                 1.0796                 1.0714
 Frc consts  --      1.4628                 5.6152                 5.6062
 IR Inten    --      4.6951                 1.9511                35.9110

                     88                     89                     90
                      A                      A                      A
 Frequencies --   2984.6128              2997.2649              2998.5015
 Red. masses --      1.0779                 1.0756                 1.0728
 Frc consts  --      5.6570                 5.6933                 5.6831
 IR Inten    --     17.8983                 3.3457                24.3688

                     91                     92                     93
                      A                      A                      A
 Frequencies --   3003.1020              3010.6996              3029.4864
 Red. masses --      1.0648                 1.0703                 1.0404
 Frc consts  --      5.6581                 5.7157                 5.6257
 IR Inten    --     14.4647                52.5917                23.6334

                     94                     95                     96
                      A                      A                      A
 Frequencies --   3029.8889              3031.8653              3033.4721
 Red. masses --      1.0411                 1.0447                 1.0385
 Frc consts  --      5.6313                 5.6578                 5.6306
 IR Inten    --     15.6983                24.3949                25.6447

                     97                     98                     99
                      A                      A                      A
 Frequencies --   3035.0271              3042.5219              3056.9976
 Red. masses --      1.0583                 1.0973                 1.0920
 Frc consts  --      5.7434                 5.9847                 6.0127
 IR Inten    --     38.2611                32.8585                18.7561

                    100                    101                    102
                      A                      A                      A
 Frequencies --   3060.8849              3078.4756              3080.5847
 Red. masses --      1.0949                 1.0919                 1.0947
 Frc consts  --      6.0440                 6.0970                 6.1208
 IR Inten    --     28.6848                20.0323                61.6323

                    103                    104                    105
                      A                      A                      A
 Frequencies --   3093.5619              3094.0794              3094.4938
 Red. masses --      1.0976                 1.1007                 1.1002
 Frc consts  --      6.1891                 6.2085                 6.2071
 IR Inten    --     37.4589                33.9232                42.2172

                    106                    107                    108
                      A                      A                      A
 Frequencies --   3096.1591              3107.8644              3116.1452
 Red. masses --      1.0972                 1.0991                 1.0989
 Frc consts  --      6.1972                 6.2550                 6.2868
 IR Inten    --     36.8693                45.0218                12.4260

                    109                    110                    111
                      A                      A                      A
 Frequencies --   3116.4576              3124.6502              3814.5674
 Red. masses --      1.0988                 1.0977                 1.0661
 Frc consts  --      6.2878                 6.3144                 9.1397
 IR Inten    --     73.1316                16.7875                15.2422

 - Thermochemistry -
 -------------------
 Temperature   298.150 Kelvin.  Pressure   1.00000 Atm.
 Atom     1 has atomic number  6 and mass  12.00000

 Molecular mass:   186.19837 amu.
 Principal axes and moments of inertia in atomic units:
                           1         2         3
     Eigenvalues --  1312.573795979.596176764.60152
           X            0.99999  -0.00429   0.00282
           Y            0.00429   0.99999   0.00036
           Z           -0.00282  -0.00035   1.00000
 This molecule is an asymmetric top.
 Rotational symmetry number  1.
 Warning -- assumption of classical behavior for rotation
           may cause significant error
 Rotational temperatures (Kelvin)      0.06599     0.01448     0.01280
 Rotational constants (GHZ):           1.37496     0.30182     0.26679
 Zero-point vibrational energy     954054.8 (Joules/Mol)
                                  228.02458 (Kcal/Mol)
 Warning -- explicit consideration of  26 degrees of freedom as
           vibrations may cause significant error
 Vibrational temperatures:     45.63    67.39    91.53   104.06   111.99
          (Kelvin)            150.71   158.65   194.06   283.82   296.11
                              322.55   326.49   359.55   365.88   406.51
                              424.56   440.38   455.89   483.38   520.80
                              605.10   609.32   642.47   675.41   750.13
                              805.55  1105.58  1116.40  1117.44  1160.53
                             1197.71  1264.74  1313.04  1323.40  1367.80
                             1392.70  1396.79  1429.97  1459.98  1469.35
                             1502.34  1513.37  1542.66  1545.73  1551.49
                             1599.60  1618.77  1660.53  1678.59  1691.00
                             1703.73  1731.84  1786.02  1822.17  1857.20
                             1879.99  1891.32  1894.15  1901.65  1941.97
                             1954.95  1969.29  1977.16  1983.90  1988.03
                             2012.13  2013.20  2030.56  2032.34  2035.57
                             2039.36  2044.71  2127.77  2130.55  2139.64
                             2149.87  2152.66  2157.13  2158.58  2163.50
                             2164.87  2171.70  2173.91  2183.10  2189.87
                             4274.89  4287.67  4294.19  4312.40  4314.17
                             4320.79  4331.73  4358.76  4359.33  4362.18
                             4364.49  4366.73  4377.51  4398.34  4403.93
                             4429.24  4432.27  4450.95  4451.69  4452.29
                             4454.68  4471.52  4483.44  4483.89  4495.67
                             5488.31

 Zero-point correction=                           0.363380 (Hartree/Particle)
 Thermal correction to Energy=                    0.380756
 Thermal correction to Enthalpy=                  0.381701
 Thermal correction to Gibbs Free Energy=         0.318127
 Sum of electronic and zero-point Energies=           -547.839637
 Sum of electronic and thermal Energies=              -547.822261
 Sum of electronic and thermal Enthalpies=            -547.821317
 Sum of electronic and thermal Free Energies=         -547.884890

                     E (Thermal)             CV                S
                      KCal/Mol        Cal/Mol-Kelvin    Cal/Mol-Kelvin
 Total                  238.928             63.951            133.801
 Electronic               0.000              0.000              0.000
 Translational            0.889              2.981             41.571
 Rotational               0.889              2.981             32.340
 Vibrational            237.151             57.989             59.890
 Vibration     1          0.594              1.983              5.719
 Vibration     2          0.595              1.979              4.947
 Vibration     3          0.597              1.972              4.342
 Vibration     4          0.598              1.967              4.089
 Vibration     5          0.599              1.964              3.945
 Vibration     6          0.605              1.945              3.364
 Vibration     7          0.606              1.941              3.264
 Vibration     8          0.613              1.919              2.875
 Vibration     9          0.637              1.844              2.158
 Vibration    10          0.640              1.832              2.081
 Vibration    11          0.649              1.804              1.925
 Vibration    12          0.651              1.800              1.903
 Vibration    13          0.663              1.763              1.731
 Vibration    14          0.665              1.756              1.701
 Vibration    15          0.682              1.706              1.518
 Vibration    16          0.689              1.683              1.445
 Vibration    17          0.696              1.662              1.383
 Vibration    18          0.704              1.641              1.326
 Vibration    19          0.717              1.604              1.231
 Vibration    20          0.736              1.551              1.114
 Vibration    21          0.783              1.426              0.890
 Vibration    22          0.786              1.419              0.880
 Vibration    23          0.806              1.369              0.806
 Vibration    24          0.827              1.318              0.739
 Vibration    25          0.876              1.203              0.607
 Vibration    26          0.916              1.118              0.524

 Optimization completed.
    -- Stationary point found.
 Normal termination of Gaussian 16 at Tue May 23 09:38:44 2023.
