 Gaussian 16, Revision A.03,
 Gaussian 16:  ES64L-G16RevA.03 25-Dec-2016

 -----------------------------
 # opt freq b3lyp/6-31g(2df,p)
 -----------------------------

 -------------------
 Title Card Required
 -------------------
 Symbolic Z-matrix:
 Charge =  0 Multiplicity = 1

 SCF Done:  E(RB3LYP) =  -353.836450245     A.U. after   12 cycles
 SCF Done:  E(RB3LYP) =  -353.839008415     A.U. after   10 cycles
 SCF Done:  E(RB3LYP) =  -353.839160039     A.U. after    9 cycles
 SCF Done:  E(RB3LYP) =  -353.839181116     A.U. after    8 cycles
 SCF Done:  E(RB3LYP) =  -353.839195239     A.U. after    8 cycles
 SCF Done:  E(RB3LYP) =  -353.839196283     A.U. after    6 cycles
 SCF Done:  E(RB3LYP) =  -353.839196892     A.U. after    6 cycles
 SCF Done:  E(RB3LYP) =  -353.839197682     A.U. after    6 cycles
 SCF Done:  E(RB3LYP) =  -353.839197407     A.U. after    6 cycles
 SCF Done:  E(RB3LYP) =  -353.839199978     A.U. after    6 cycles
 SCF Done:  E(RB3LYP) =  -353.839196902     A.U. after    9 cycles
 SCF Done:  E(RB3LYP) =  -353.839251944     A.U. after    6 cycles
 SCF Done:  E(RB3LYP) =  -353.838828659     A.U. after    9 cycles
 SCF Done:  E(RB3LYP) =  -353.839288970     A.U. after    9 cycles
 SCF Done:  E(RB3LYP) =  -353.839305505     A.U. after    9 cycles
 SCF Done:  E(RB3LYP) =  -353.839309637     A.U. after    8 cycles
 SCF Done:  E(RB3LYP) =  -353.839312994     A.U. after    8 cycles
 SCF Done:  E(RB3LYP) =  -353.839313292     A.U. after    6 cycles
 SCF Done:  E(RB3LYP) =  -353.839313314     A.U. after    5 cycles
 Optimization completed.
    -- Stationary point found.
 Normal termination of Gaussian 16 at Sun May 28 09:05:58 2023.

 ----------------------------------------------------------------------
 #N Geom=AllCheck Guess=TCheck SCRF=Check GenChk RB3LYP/6-31G(2df,p) Fr
 eq
 ----------------------------------------------------------------------

 Structure from the checkpoint file:  "CCCqCrC1CCCC1.chk"
 -------------------
 Title Card Required
 -------------------
 Charge =  0 Multiplicity = 1

                         Standard orientation:
 ---------------------------------------------------------------------
 Center     Atomic      Atomic             Coordinates (Angstroms)
 Number     Number       Type             X           Y           Z
 ---------------------------------------------------------------------
      1          6           0       -3.368541   -0.714864   -0.323387
      2          6           0       -1.952300   -0.800386    0.257301
      3          6           0       -0.998705    0.328687   -0.183272
      4          6           0       -1.523467    1.708693    0.244995
      5          6           0        0.433738    0.099552    0.337291
      6          6           0        1.080462   -1.247462   -0.048282
      7          6           0        2.575765   -1.018914    0.208251
      8          6           0        2.826399    0.413940   -0.307246
      9          6           0        1.466599    1.154133   -0.156336
     10          1           0       -3.956926   -1.594123   -0.042076
     11          1           0       -3.344445   -0.670339   -1.418442
     12          1           0       -3.910227    0.166542    0.032072
     13          1           0       -1.519281   -1.763739   -0.032919
     14          1           0       -2.007543   -0.811031    1.355291
     15          1           0       -0.950333    0.311329   -1.284189
     16          1           0       -1.611413    1.768315    1.337128
     17          1           0       -2.509555    1.917675   -0.178653
     18          1           0       -0.854224    2.510941   -0.077686
     19          1           0        0.399100    0.143327    1.436620
     20          1           0        0.907727   -1.450408   -1.114920
     21          1           0        0.680859   -2.096257    0.513148
     22          1           0        3.216894   -1.763769   -0.272358
     23          1           0        2.772415   -1.073078    1.286199
     24          1           0        3.125245    0.385918   -1.360331
     25          1           0        3.636312    0.912074    0.232952
     26          1           0        1.149061    1.566620   -1.120827
     27          1           0        1.536627    1.999732    0.533099
 ---------------------------------------------------------------------

 SCF Done:  E(RB3LYP) =  -353.839313314     A.U. after    1 cycles

 The electronic state is 1-A.
 Alpha  occ. eigenvalues --  -10.17801 -10.17442 -10.17169 -10.17102 -10.17082
 Alpha  occ. eigenvalues --  -10.16935 -10.16922 -10.16795 -10.16496  -0.83297
 Alpha  occ. eigenvalues --   -0.78730  -0.72419  -0.69979  -0.68349  -0.62984
 Alpha  occ. eigenvalues --   -0.57137  -0.55738  -0.54164  -0.47228  -0.46399
 Alpha  occ. eigenvalues --   -0.45109  -0.41744  -0.40803  -0.40104  -0.39808
 Alpha  occ. eigenvalues --   -0.37582  -0.36733  -0.35098  -0.33816  -0.32633
 Alpha  occ. eigenvalues --   -0.32407  -0.31981  -0.31250  -0.30204  -0.29835
 Alpha  occ. eigenvalues --   -0.29448
 Alpha virt. eigenvalues --    0.08233   0.09624   0.09921   0.12613   0.13474
 Alpha virt. eigenvalues --    0.13507   0.14941   0.15845   0.16715   0.17067
 Alpha virt. eigenvalues --    0.17526   0.17870   0.17931   0.18810   0.19674

 Mulliken charges:
               1
     1  C   -0.391952
     2  C   -0.171288
     3  C    0.022836
     4  C   -0.400082
     5  C    0.072090
     6  C   -0.218209
     7  C   -0.206372
     8  C   -0.207866
     9  C   -0.221339
    10  H    0.109274
    11  H    0.111133
    12  H    0.117127
    13  H    0.096098
    14  H    0.088109
    15  H    0.061033
    16  H    0.107503
    17  H    0.111531
    18  H    0.114178
    19  H    0.060349
    20  H    0.088939
    21  H    0.093407
    22  H    0.089023
    23  H    0.093949
    24  H    0.096569
    25  H    0.093085
    26  H    0.093947
    27  H    0.096928
 Sum of Mulliken charges =  -0.00000

 Dipole moment (field-independent basis, Debye):
    X=              0.0691    Y=             -0.0561    Z=              0.0241  Tot=              0.0922
 Quadrupole moment (field-independent basis, Debye-Ang):
   XX=            -60.6860   YY=            -60.1012   ZZ=            -58.7837
   XY=              0.1721   XZ=             -0.0248   YZ=              0.1093

  Exact polarizability: 112.005   0.236  93.291  -0.078  -0.018  82.430
 Approx polarizability: 133.436   0.202 130.882  -0.161   0.168 132.334

                      1                      2                      3
                      A                      A                      A
 Frequencies --     34.2473                79.0452                93.8824
 Red. masses --      2.0655                 1.7856                 2.3657
 Frc consts  --      0.0014                 0.0066                 0.0123
 IR Inten    --      0.0040                 0.0075                 0.0012

                      4                      5                      6
                      A                      A                      A
 Frequencies --    163.0073               177.5086               212.4670
 Red. masses --      2.9784                 1.7281                 1.0451
 Frc consts  --      0.0466                 0.0321                 0.0278
 IR Inten    --      0.0226                 0.0018                 0.0459

                      7                      8                      9
                      A                      A                      A
 Frequencies --    243.8475               305.0580               324.9798
 Red. masses --      1.4487                 1.9147                 2.7387
 Frc consts  --      0.0508                 0.1050                 0.1704
 IR Inten    --      0.0152                 0.0859                 0.0466

                     10                     11                     12
                      A                      A                      A
 Frequencies --    374.5409               402.3079               480.5098
 Red. masses --      2.1420                 2.9268                 2.0954
 Frc consts  --      0.1770                 0.2791                 0.2851
 IR Inten    --      0.1738                 0.0292                 0.0757

                     13                     14                     15
                      A                      A                      A
 Frequencies --    566.4556               625.3654               768.6497
 Red. masses --      1.9445                 2.7595                 1.3383
 Frc consts  --      0.3676                 0.6358                 0.4659
 IR Inten    --      0.6019                 0.3793                 0.6959

                     16                     17                     18
                      A                      A                      A
 Frequencies --    784.5172               821.8590               848.2162
 Red. masses --      1.2064                 1.7773                 2.2090
 Frc consts  --      0.4375                 0.7073                 0.9364
 IR Inten    --      1.9858                 0.2355                 0.0944

                     19                     20                     21
                      A                      A                      A
 Frequencies --    868.3659               905.3950               934.2888
 Red. masses --      2.3135                 2.6567                 1.5670
 Frc consts  --      1.0279                 1.2831                 0.8059
 IR Inten    --      0.8050                 0.9557                 0.5523

                     22                     23                     24
                      A                      A                      A
 Frequencies --    952.9171               968.7815               979.2673
 Red. masses --      1.7428                 1.7430                 1.2710
 Frc consts  --      0.9324                 0.9638                 0.7181
 IR Inten    --      2.7278                 0.1860                 1.0248

                     25                     26                     27
                      A                      A                      A
 Frequencies --    994.6107              1013.6723              1043.0858
 Red. masses --      1.5099                 1.5543                 2.3285
 Frc consts  --      0.8800                 0.9410                 1.4927
 IR Inten    --      2.1126                 1.6935                 0.7818

                     28                     29                     30
                      A                      A                      A
 Frequencies --   1050.6945              1080.5990              1110.2074
 Red. masses --      1.9507                 2.9198                 1.5120
 Frc consts  --      1.2688                 2.0088                 1.0980
 IR Inten    --      0.5191                 0.0566                 0.1450

                     31                     32                     33
                      A                      A                      A
 Frequencies --   1157.8192              1180.3782              1199.6922
 Red. masses --      2.3261                 1.8176                 1.4362
 Frc consts  --      1.8373                 1.4921                 1.2178
 IR Inten    --      0.1886                 5.6460                 0.8785

                     34                     35                     36
                      A                      A                      A
 Frequencies --   1214.1593              1229.1285              1267.5799
 Red. masses --      1.7574                 1.5064                 1.2950
 Frc consts  --      1.5264                 1.3409                 1.2259
 IR Inten    --      1.1605                 0.2070                 4.0644

                     37                     38                     39
                      A                      A                      A
 Frequencies --   1291.4704              1294.1151              1307.4442
 Red. masses --      1.2073                 1.3280                 1.2478
 Frc consts  --      1.1864                 1.3104                 1.2568
 IR Inten    --      0.4963                 2.1395                 1.3525

                     40                     41                     42
                      A                      A                      A
 Frequencies --   1323.5837              1341.8539              1345.5823
 Red. masses --      1.2503                 1.2552                 1.2491
 Frc consts  --      1.2905                 1.3316                 1.3325
 IR Inten    --      1.1428                 1.0906                 1.1245

                     43                     44                     45
                      A                      A                      A
 Frequencies --   1348.9623              1358.5911              1377.0946
 Red. masses --      1.3777                 1.3729                 1.4581
 Frc consts  --      1.4771                 1.4930                 1.6292
 IR Inten    --      0.7095                 0.9966                 0.8432

                     46                     47                     48
                      A                      A                      A
 Frequencies --   1391.8787              1408.5297              1413.9388
 Red. masses --      1.5180                 1.2711                 1.2172
 Frc consts  --      1.7327                 1.4858                 1.4338
 IR Inten    --      0.2107                 3.6982                 2.5122

                     49                     50                     51
                      A                      A                      A
 Frequencies --   1483.5838              1488.9465              1491.1827
 Red. masses --      1.0652                 1.0764                 1.0894
 Frc consts  --      1.3814                 1.4059                 1.4272
 IR Inten    --      0.2876                 0.3001                 1.1034

                     52                     53                     54
                      A                      A                      A
 Frequencies --   1494.7570              1497.0690              1499.7559
 Red. masses --      1.0742                 1.0577                 1.0557
 Frc consts  --      1.4141                 1.3967                 1.3990
 IR Inten    --      5.4455                 1.9913                 1.4421

                     55                     56                     57
                      A                      A                      A
 Frequencies --   1506.6435              1514.4308              1517.9220
 Red. masses --      1.0663                 1.0571                 1.0913
 Frc consts  --      1.4262                 1.4284                 1.4815
 IR Inten    --      5.3582                 2.1517                 0.8315

                     58                     59                     60
                      A                      A                      A
 Frequencies --   2969.4484              2984.8588              3009.5556
 Red. masses --      1.0791                 1.0830                 1.0685
 Frc consts  --      5.6064                 5.6852                 5.7018
 IR Inten    --      3.2410                18.8166                17.0091

                     61                     62                     63
                      A                      A                      A
 Frequencies --   3011.6123              3028.5781              3029.2870
 Red. masses --      1.0677                 1.0415                 1.0632
 Frc consts  --      5.7055                 5.6285                 5.7486
 IR Inten    --     38.5902                24.1970                55.1837

                     64                     65                     66
                      A                      A                      A
 Frequencies --   3031.3764              3033.2496              3048.6317
 Red. masses --      1.0387                 1.0641                 1.0643
 Frc consts  --      5.6239                 5.7681                 5.8283
 IR Inten    --     17.1793                25.9080                44.4707

                     67                     68                     69
                      A                      A                      A
 Frequencies --   3061.6079              3073.0302              3083.8771
 Red. masses --      1.0941                 1.0968                 1.0972
 Frc consts  --      6.0422                 6.1025                 6.1480
 IR Inten    --     14.4659                24.1963                18.2161

                     70                     71                     72
                      A                      A                      A
 Frequencies --   3088.4282              3094.2513              3096.4782
 Red. masses --      1.0958                 1.1004                 1.0954
 Frc consts  --      6.1584                 6.2074                 6.1883
 IR Inten    --     32.7436                29.4671                37.2143

                     73                     74                     75
                      A                      A                      A
 Frequencies --   3098.8582              3106.5045              3115.0245
 Red. masses --      1.1038                 1.1001                 1.1001
 Frc consts  --      6.2450                 6.2551                 6.2896
 IR Inten    --     74.2758                53.2327                32.2481

 - Thermochemistry -
 -------------------
 Temperature   298.150 Kelvin.  Pressure   1.00000 Atm.
 Atom     1 has atomic number  6 and mass  12.00000

 Molecular mass:   126.14085 amu.
 Principal axes and moments of inertia in atomic units:
                           1         2         3
     Eigenvalues --   573.719172027.930972439.46197
           X            1.00000   0.00037   0.00081
           Y           -0.00037   1.00000   0.00218
           Z           -0.00081  -0.00218   1.00000
 This molecule is an asymmetric top.
 Rotational symmetry number  1.
 Warning -- assumption of classical behavior for rotation
           may cause significant error
 Rotational temperatures (Kelvin)      0.15097     0.04271     0.03551
 Rotational constants (GHZ):           3.14569     0.88994     0.73981
 Zero-point vibrational energy     664639.8 (Joules/Mol)
                                  158.85273 (Kcal/Mol)
 Warning -- explicit consideration of  13 degrees of freedom as
           vibrations may cause significant error
 Vibrational temperatures:     49.27   113.73   135.08   234.53   255.40
          (Kelvin)            305.69   350.84   438.91   467.57   538.88
                              578.83   691.35   815.00   899.76  1105.92
                             1128.75  1182.47  1220.39  1249.38  1302.66
                             1344.23  1371.04  1393.86  1408.95  1431.02
                             1458.45  1500.77  1511.71  1554.74  1597.34
                             1665.84  1698.30  1726.09  1746.90  1768.44
                             1823.76  1858.14  1861.94  1881.12  1904.34
                             1930.63  1935.99  1940.86  1954.71  1981.33
                             2002.60  2026.56  2034.34  2134.55  2142.26
                             2145.48  2150.62  2153.95  2157.81  2167.72
                             2178.93  2183.95  4272.37  4294.55  4330.08
                             4333.04  4357.45  4358.47  4361.47  4364.17
                             4386.30  4404.97  4421.41  4437.01  4443.56
                             4451.94  4455.14  4458.57  4469.57  4481.83

 Zero-point correction=                           0.253148 (Hartree/Particle)
 Thermal correction to Energy=                    0.263670
 Thermal correction to Enthalpy=                  0.264614
 Thermal correction to Gibbs Free Energy=         0.216853
 Sum of electronic and zero-point Energies=           -353.586165
 Sum of electronic and thermal Energies=              -353.575643
 Sum of electronic and thermal Enthalpies=            -353.574699
 Sum of electronic and thermal Free Energies=         -353.622460

                     E (Thermal)             CV                S
                      KCal/Mol        Cal/Mol-Kelvin    Cal/Mol-Kelvin
 Total                  165.455             39.546            100.520
 Electronic               0.000              0.000              0.000
 Translational            0.889              2.981             40.410
 Rotational               0.889              2.981             29.430
 Vibrational            163.678             33.584             30.680
 Vibration     1          0.594              1.983              5.567
 Vibration     2          0.600              1.963              3.914
 Vibration     3          0.603              1.954              3.578
 Vibration     4          0.623              1.888              2.515
 Vibration     5          0.628              1.870              2.354
 Vibration     6          0.644              1.822              2.022
 Vibration     7          0.659              1.773              1.775
 Vibration     8          0.696              1.664              1.389
 Vibration     9          0.709              1.626              1.285
 Vibration    10          0.746              1.524              1.061
 Vibration    11          0.768              1.465              0.954
 Vibration    12          0.837              1.293              0.709
 Vibration    13          0.922              1.104              0.511

 Optimization completed.
    -- Stationary point found.
 Normal termination of Gaussian 16 at Sun May 28 09:59:08 2023.
