 Gaussian 16, Revision A.03,
 Gaussian 16:  ES64L-G16RevA.03 25-Dec-2016

 -----------------------------
 # opt freq b3lyp/6-31g(2df,p)
 -----------------------------

 -------------------
 Title Card Required
 -------------------
 Symbolic Z-matrix:
 Charge =  0 Multiplicity = 1

 SCF Done:  E(RB3LYP) =  -508.898915630     A.U. after   12 cycles
 SCF Done:  E(RB3LYP) =  -508.904128085     A.U. after   10 cycles
 SCF Done:  E(RB3LYP) =  -508.905093402     A.U. after   10 cycles
 SCF Done:  E(RB3LYP) =  -508.905325365     A.U. after    9 cycles
 SCF Done:  E(RB3LYP) =  -508.905458974     A.U. after    9 cycles
 SCF Done:  E(RB3LYP) =  -508.905481011     A.U. after    8 cycles
 SCF Done:  E(RB3LYP) =  -508.905486162     A.U. after    8 cycles
 SCF Done:  E(RB3LYP) =  -508.905488109     A.U. after    7 cycles
 SCF Done:  E(RB3LYP) =  -508.905488662     A.U. after    7 cycles
 Optimization completed.
    -- Stationary point found.
 Normal termination of Gaussian 16 at Tue May 23 23:43:09 2023.

 ----------------------------------------------------------------------
 #N Geom=AllCheck Guess=TCheck SCRF=Check GenChk RB3LYP/6-31G(2df,p) Fr
 eq
 ----------------------------------------------------------------------

 Structure from the checkpoint file:  "CCCqCrCCCqOrCqCrCC.chk"
 -------------------
 Title Card Required
 -------------------
 Charge =  0 Multiplicity = 1

                         Standard orientation:
 ---------------------------------------------------------------------
 Center     Atomic      Atomic             Coordinates (Angstroms)
 Number     Number       Type             X           Y           Z
 ---------------------------------------------------------------------
      1          6           0       -5.206603   -0.423775   -0.405977
      2          6           0       -3.863666   -0.705175    0.275993
      3          6           0       -2.688290    0.166671   -0.208314
      4          6           0       -2.910250    1.653017    0.109380
      5          6           0       -1.367688   -0.361788    0.382800
      6          6           0       -0.095967    0.294125   -0.170764
      7          6           0        1.191416   -0.388014    0.316812
      8          8           0        1.162587   -1.786264    0.015231
      9          6           0        2.493551    0.259213   -0.212353
     10          6           0        2.565868    1.762880    0.095381
     11          6           0        3.724317   -0.488788    0.340692
     12          6           0        5.032947   -0.199926   -0.401360
     13          1           0       -5.971629   -1.129108   -0.066010
     14          1           0       -5.125479   -0.523353   -1.494596
     15          1           0       -5.575547    0.583969   -0.192333
     16          1           0       -3.600662   -1.758504    0.115646
     17          1           0       -3.972159   -0.584663    1.363078
     18          1           0       -2.628849    0.060309   -1.303122
     19          1           0       -2.966867    1.813185    1.193391
     20          1           0       -3.839062    2.027210   -0.330419
     21          1           0       -2.098308    2.276386   -0.276222
     22          1           0       -1.301494   -1.440262    0.204602
     23          1           0       -1.388687   -0.237062    1.475532
     24          1           0       -0.067879    1.351637    0.106870
     25          1           0       -0.112649    0.265283   -1.272259
     26          1           0        1.212599   -0.353735    1.415406
     27          1           0        1.133115   -1.871767   -0.944820
     28          1           0        2.486731    0.133946   -1.308404
     29          1           0        2.435006    1.946750    1.168885
     30          1           0        1.803119    2.335326   -0.438312
     31          1           0        3.537154    2.175502   -0.191117
     32          1           0        3.516451   -1.561633    0.301649
     33          1           0        3.840811   -0.236194    1.404059
     34          1           0        4.951218   -0.462974   -1.462430
     35          1           0        5.856314   -0.785219    0.020297
     36          1           0        5.322238    0.854450   -0.344968
 ---------------------------------------------------------------------

 SCF Done:  E(RB3LYP) =  -508.905488662     A.U. after    1 cycles

 The electronic state is 1-A.
 Alpha  occ. eigenvalues --  -19.13143 -10.22400 -10.18274 -10.17967 -10.17467
 Alpha  occ. eigenvalues --  -10.17241 -10.17221 -10.16950 -10.16890 -10.16850
 Alpha  occ. eigenvalues --  -10.16845 -10.16711  -1.01260  -0.81193  -0.80046
 Alpha  occ. eigenvalues --   -0.75653  -0.72434  -0.70701  -0.66908  -0.64485
 Alpha  occ. eigenvalues --   -0.61392  -0.58279  -0.56570  -0.54850  -0.48096
 Alpha  occ. eigenvalues --   -0.46379  -0.45821  -0.45437  -0.43838  -0.42286
 Alpha  occ. eigenvalues --   -0.41571  -0.41254  -0.40118  -0.39132  -0.38231
 Alpha  occ. eigenvalues --   -0.37526  -0.37293  -0.35818  -0.35051  -0.34910
 Alpha  occ. eigenvalues --   -0.34338  -0.32864  -0.32287  -0.31943  -0.31277
 Alpha  occ. eigenvalues --   -0.31027  -0.30131  -0.29671  -0.25933
 Alpha virt. eigenvalues --    0.07240   0.08969   0.09253   0.10985   0.11951
 Alpha virt. eigenvalues --    0.12617   0.12844   0.13872   0.14371   0.15007
 Alpha virt. eigenvalues --    0.15864   0.16100   0.16757   0.17120   0.17318

 Mulliken charges:
               1
     1  C   -0.392051
     2  C   -0.164496
     3  C    0.041961
     4  C   -0.389594
     5  C   -0.177051
     6  C   -0.236855
     7  C    0.116867
     8  O   -0.427457
     9  C    0.025808
    10  C   -0.406128
    11  C   -0.170387
    12  C   -0.392152
    13  H    0.110689
    14  H    0.110637
    15  H    0.116745
    16  H    0.091093
    17  H    0.090508
    18  H    0.061131
    19  H    0.108754
    20  H    0.112288
    21  H    0.111630
    22  H    0.102791
    23  H    0.086404
    24  H    0.104076
    25  H    0.077404
    26  H    0.082459
    27  H    0.273519
    28  H    0.052475
    29  H    0.113516
    30  H    0.116168
    31  H    0.115057
    32  H    0.111949
    33  H    0.086996
    34  H    0.109200
    35  H    0.111958
    36  H    0.114089
 Sum of Mulliken charges =  -0.00000

 Dipole moment (field-independent basis, Debye):
    X=             -0.0171    Y=              0.8347    Z=             -0.9544  Tot=              1.2680
 Quadrupole moment (field-independent basis, Debye-Ang):
   XX=            -80.8754   YY=            -82.1666   ZZ=            -77.1780
   XY=              1.2769   XZ=             -1.0262   YZ=              2.8904

  Exact polarizability: 157.126   0.655 116.395   0.195   0.969 107.117
 Approx polarizability: 173.208   0.123 170.656   0.230   2.062 172.955

                      1                      2                      3
                      A                      A                      A
 Frequencies --     28.9850                37.9742                61.7326
 Red. masses --      2.4752                 3.3267                 3.5770
 Frc consts  --      0.0012                 0.0028                 0.0080
 IR Inten    --      0.1117                 0.0061                 0.2729

                      4                      5                      6
                      A                      A                      A
 Frequencies --     74.5046                81.8655               103.4384
 Red. masses --      2.2620                 1.8333                 2.3871
 Frc consts  --      0.0074                 0.0072                 0.0150
 IR Inten    --      0.0673                 0.2839                 0.3821

                      7                      8                      9
                      A                      A                      A
 Frequencies --    126.8622               178.8077               203.2274
 Red. masses --      1.8264                 2.5413                 1.5998
 Frc consts  --      0.0173                 0.0479                 0.0389
 IR Inten    --      0.1183                 0.7403                 0.3007

                     10                     11                     12
                      A                      A                      A
 Frequencies --    216.1675               224.1434               231.6927
 Red. masses --      1.1639                 1.3852                 1.5530
 Frc consts  --      0.0320                 0.0410                 0.0491
 IR Inten    --      0.0252                 0.9525                 0.3799

                     13                     14                     15
                      A                      A                      A
 Frequencies --    255.9669               271.8816               302.4468
 Red. masses --      1.2512                 2.9957                 1.1125
 Frc consts  --      0.0483                 0.1305                 0.0600
 IR Inten    --      0.2983                 5.9309                84.0317

                     16                     17                     18
                      A                      A                      A
 Frequencies --    308.6502               329.6905               381.7650
 Red. masses --      2.1159                 2.5324                 2.1152
 Frc consts  --      0.1188                 0.1622                 0.1816
 IR Inten    --      0.2443                37.9326                 1.9405

                     19                     20                     21
                      A                      A                      A
 Frequencies --    398.7047               417.7569               455.3515
 Red. masses --      2.7414                 2.0684                 2.5127
 Frc consts  --      0.2568                 0.2127                 0.3070
 IR Inten    --      3.1677                 3.2663                 0.7491

                     22                     23                     24
                      A                      A                      A
 Frequencies --    477.7750               517.7335               565.2057
 Red. masses --      3.3105                 2.4151                 2.6793
 Frc consts  --      0.4452                 0.3814                 0.5043
 IR Inten    --      7.1748                 1.1566                11.1874

                     25                     26                     27
                      A                      A                      A
 Frequencies --    763.1716               772.7269               778.2424
 Red. masses --      1.3242                 1.3667                 1.2767
 Frc consts  --      0.4544                 0.4808                 0.4556
 IR Inten    --      0.2947                 0.3953                 4.7808

                     28                     29                     30
                      A                      A                      A
 Frequencies --    831.7448               841.1864               877.7494
 Red. masses --      1.7168                 1.8272                 2.3523
 Frc consts  --      0.6998                 0.7618                 1.0678
 IR Inten    --      0.6315                 1.5626                12.6406

                     31                     32                     33
                      A                      A                      A
 Frequencies --    913.7806               929.6249               969.7043
 Red. masses --      2.2936                 1.4031                 1.2390
 Frc consts  --      1.1284                 0.7144                 0.6865
 IR Inten    --      1.7687                 2.1920                 3.2718

                     34                     35                     36
                      A                      A                      A
 Frequencies --    980.7896               988.4581               997.5674
 Red. masses --      1.2258                 1.7991                 1.9407
 Frc consts  --      0.6948                 1.0357                 1.1379
 IR Inten    --      1.4562                11.5752                20.3852

                     37                     38                     39
                      A                      A                      A
 Frequencies --   1024.5750              1029.3910              1050.2540
 Red. masses --      2.0212                 2.1633                 2.2974
 Frc consts  --      1.2501                 1.3506                 1.4931
 IR Inten    --      0.0595                 3.5521                 6.6337

                     40                     41                     42
                      A                      A                      A
 Frequencies --   1062.7353              1081.7119              1112.6881
 Red. masses --      2.8210                 3.0987                 1.5020
 Frc consts  --      1.8772                 2.1363                 1.0956
 IR Inten    --      4.3277                34.0621                13.3577

                     43                     44                     45
                      A                      A                      A
 Frequencies --   1116.2304              1147.9168              1168.1385
 Red. masses --      1.5327                 2.0856                 2.5420
 Frc consts  --      1.1251                 1.6192                 2.0437
 IR Inten    --      7.3181                 5.6271                 4.6205

                     46                     47                     48
                      A                      A                      A
 Frequencies --   1178.0035              1186.1101              1216.7202
 Red. masses --      1.8028                 1.8393                 1.6652
 Frc consts  --      1.4740                 1.5246                 1.4524
 IR Inten    --     11.5921                 0.9582                 7.5583

                     49                     50                     51
                      A                      A                      A
 Frequencies --   1247.5941              1275.9236              1286.5191
 Red. masses --      1.4296                 1.2555                 1.2904
 Frc consts  --      1.3110                 1.2043                 1.2584
 IR Inten    --      6.7893                 4.8289                 0.5201

                     52                     53                     54
                      A                      A                      A
 Frequencies --   1297.5064              1311.6383              1328.3260
 Red. masses --      1.2262                 1.2418                 1.1980
 Frc consts  --      1.2163                 1.2588                 1.2455
 IR Inten    --      2.4480                 3.5668                 1.9978

                     55                     56                     57
                      A                      A                      A
 Frequencies --   1346.5460              1359.6521              1369.3539
 Red. masses --      1.2356                 1.3505                 1.3818
 Frc consts  --      1.3200                 1.4710                 1.5266
 IR Inten    --      2.8611                 6.4317                 1.3505

                     58                     59                     60
                      A                      A                      A
 Frequencies --   1379.0059              1382.6958              1387.0898
 Red. masses --      1.3606                 1.4563                 1.4583
 Frc consts  --      1.5245                 1.6404                 1.6532
 IR Inten    --      1.7501                 0.3870                 1.2892

                     61                     62                     63
                      A                      A                      A
 Frequencies --   1393.9119              1407.7804              1410.9860
 Red. masses --      1.5069                 1.2610                 1.2919
 Frc consts  --      1.7250                 1.4725                 1.5153
 IR Inten    --      2.3746                 0.8606                 9.5097

                     64                     65                     66
                      A                      A                      A
 Frequencies --   1413.6854              1414.1879              1419.5437
 Red. masses --      1.2136                 1.2266                 1.2140
 Frc consts  --      1.4290                 1.4454                 1.4414
 IR Inten    --     11.1126                 1.6764                30.2379

                     67                     68                     69
                      A                      A                      A
 Frequencies --   1475.8206              1484.1895              1489.2794
 Red. masses --      1.0794                 1.0741                 1.0626
 Frc consts  --      1.3852                 1.3940                 1.3886
 IR Inten    --      0.8443                 0.5789                 0.4472

                     70                     71                     72
                      A                      A                      A
 Frequencies --   1495.4186              1495.9063              1497.7195
 Red. masses --      1.0530                 1.0412                 1.0541
 Frc consts  --      1.3875                 1.3728                 1.3931
 IR Inten    --      2.6502                 2.2458                 3.8853

                     73                     74                     75
                      A                      A                      A
 Frequencies --   1500.4876              1501.6154              1508.4276
 Red. masses --      1.0703                 1.0616                 1.0705
 Frc consts  --      1.4198                 1.4104                 1.4351
 IR Inten    --      2.3453                 0.9033                 5.9017

                     76                     77                     78
                      A                      A                      A
 Frequencies --   1509.5246              1513.8103              1513.9703
 Red. masses --      1.0704                 1.0465                 1.0444
 Frc consts  --      1.4370                 1.4129                 1.4104
 IR Inten    --      4.5821                 5.4685                 7.0247

                     79                     80                     81
                      A                      A                      A
 Frequencies --   2960.0736              2975.8779              2982.7321
 Red. masses --      1.0804                 1.0802                 1.0709
 Frc consts  --      5.5776                 5.6361                 5.6133
 IR Inten    --     15.9583                 6.9463                14.2335

                     82                     83                     84
                      A                      A                      A
 Frequencies --   3003.7607              3010.4006              3012.4809
 Red. masses --      1.0665                 1.0674                 1.0680
 Frc consts  --      5.6694                 5.6992                 5.7106
 IR Inten    --      2.9516                30.5450                 7.6694

                     85                     86                     87
                      A                      A                      A
 Frequencies --   3019.7027              3027.8511              3029.1420
 Red. masses --      1.0772                 1.0401                 1.0370
 Frc consts  --      5.7873                 5.6180                 5.6065
 IR Inten    --     72.8948                25.0034                43.1650

                     88                     89                     90
                      A                      A                      A
 Frequencies --   3031.0590              3032.4964              3043.4921
 Red. masses --      1.0385                 1.0418                 1.0987
 Frc consts  --      5.6212                 5.6447                 5.9959
 IR Inten    --     26.4118                21.6011                20.0681

                     91                     92                     93
                      A                      A                      A
 Frequencies --   3066.8194              3080.1940              3087.2535
 Red. masses --      1.0899                 1.0933                 1.0942
 Frc consts  --      6.0398                 6.1113                 6.1445
 IR Inten    --      3.1731                 2.9514                38.5467

                     94                     95                     96
                      A                      A                      A
 Frequencies --   3094.9375              3095.2538              3095.4249
 Red. masses --      1.1004                 1.0984                 1.0984
 Frc consts  --      6.2100                 6.2004                 6.2008
 IR Inten    --     34.0659                58.8968                 6.4222

                     97                     98                     99
                      A                      A                      A
 Frequencies --   3099.3267              3103.2390              3105.5314
 Red. masses --      1.0960                 1.1003                 1.0976
 Frc consts  --      6.2030                 6.2431                 6.2366
 IR Inten    --     29.6274                49.3532                76.2737

                    100                    101                    102
                      A                      A                      A
 Frequencies --   3110.7380              3116.5604              3788.5782
 Red. masses --      1.0997                 1.0995                 1.0657
 Frc consts  --      6.2698                 6.2923                 9.0122
 IR Inten    --     38.9372                23.7746                10.6241

 - Thermochemistry -
 -------------------
 Temperature   298.150 Kelvin.  Pressure   1.00000 Atm.
 Atom     1 has atomic number  6 and mass  12.00000

 Molecular mass:   172.18272 amu.
 Principal axes and moments of inertia in atomic units:
                           1         2         3
     Eigenvalues --   767.029196136.423866668.95523
           X            1.00000   0.00292  -0.00050
           Y           -0.00291   0.99997   0.00771
           Z            0.00052  -0.00771   0.99997
 This molecule is an asymmetric top.
 Rotational symmetry number  1.
 Warning -- assumption of classical behavior for rotation
           may cause significant error
 Rotational temperatures (Kelvin)      0.11292     0.01411     0.01299
 Rotational constants (GHZ):           2.35290     0.29410     0.27062
 Zero-point vibrational energy     877237.1 (Joules/Mol)
                                  209.66470 (Kcal/Mol)
 Warning -- explicit consideration of  24 degrees of freedom as
           vibrations may cause significant error
 Vibrational temperatures:     41.70    54.64    88.82   107.20   117.79
          (Kelvin)            148.82   182.53   257.26   292.40   311.02
                              322.49   333.35   368.28   391.18   435.15
                              444.08   474.35   549.27   573.65   601.06
                              655.15   687.41   744.90   813.20  1098.03
                             1111.78  1119.72  1196.70  1210.28  1262.89
                             1314.73  1337.52  1395.19  1411.14  1422.17
                             1435.28  1474.13  1481.06  1511.08  1529.04
                             1556.34  1600.91  1606.01  1651.60  1680.69
                             1694.88  1706.55  1750.59  1795.01  1835.77
                             1851.01  1866.82  1887.15  1911.16  1937.38
                             1956.24  1970.19  1984.08  1989.39  1995.71
                             2005.53  2025.48  2030.09  2033.98  2034.70
                             2042.41  2123.38  2135.42  2142.74  2151.57
                             2152.28  2154.88  2158.87  2160.49  2170.29
                             2171.87  2178.04  2178.27  4258.89  4281.62
                             4291.49  4321.74  4331.29  4334.29  4344.68
                             4356.40  4358.26  4361.02  4363.09  4378.91
                             4412.47  4431.71  4441.87  4452.92  4453.38
                             4453.63  4459.24  4464.87  4468.17  4475.66
                             4484.04  5450.92

 Zero-point correction=                           0.334122 (Hartree/Particle)
 Thermal correction to Energy=                    0.350390
 Thermal correction to Enthalpy=                  0.351334
 Thermal correction to Gibbs Free Energy=         0.289917
 Sum of electronic and zero-point Energies=           -508.571367
 Sum of electronic and thermal Energies=              -508.555099
 Sum of electronic and thermal Enthalpies=            -508.554155
 Sum of electronic and thermal Free Energies=         -508.615571

                     E (Thermal)             CV                S
                      KCal/Mol        Cal/Mol-Kelvin    Cal/Mol-Kelvin
 Total                  219.873             59.357            129.262
 Electronic               0.000              0.000              0.000
 Translational            0.889              2.981             41.338
 Rotational               0.889              2.981             31.818
 Vibrational            218.095             53.395             56.106
 Vibration     1          0.593              1.984              5.898
 Vibration     2          0.594              1.982              5.362
 Vibration     3          0.597              1.973              4.401
 Vibration     4          0.599              1.966              4.031
 Vibration     5          0.600              1.962              3.846
 Vibration     6          0.605              1.946              3.388
 Vibration     7          0.611              1.926              2.993
 Vibration     8          0.629              1.868              2.341
 Vibration     9          0.639              1.835              2.104
 Vibration    10          0.645              1.816              1.991
 Vibration    11          0.649              1.804              1.925
 Vibration    12          0.653              1.793              1.866
 Vibration    13          0.666              1.753              1.689
 Vibration    14          0.675              1.725              1.584
 Vibration    15          0.694              1.669              1.403
 Vibration    16          0.698              1.657              1.370
 Vibration    17          0.712              1.616              1.262
 Vibration    18          0.751              1.509              1.032
 Vibration    19          0.765              1.473              0.967
 Vibration    20          0.781              1.432              0.900
 Vibration    21          0.814              1.349              0.780
 Vibration    22          0.834              1.299              0.716
 Vibration    23          0.873              1.211              0.615
 Vibration    24          0.921              1.107              0.514

                           ! Non-Optimized Parameters !
 Normal termination of Gaussian 16 at Wed May 24 01:15:22 2023.
