 Gaussian 16, Revision A.03,
 Gaussian 16:  ES64L-G16RevA.03 25-Dec-2016

 -----------------------------
 # opt freq b3lyp/6-31g(2df,p)
 -----------------------------

 -------------------
 Title Card Required
 -------------------
 Symbolic Z-matrix:
 Charge =  0 Multiplicity = 1

 SCF Done:  E(RB3LYP) =  -710.403637397     A.U. after   18 cycles
 SCF Done:  E(RB3LYP) =  -710.474275685     A.U. after   15 cycles
 SCF Done:  E(RB3LYP) =  -710.538413852     A.U. after   16 cycles
 SCF Done:  E(RB3LYP) =  -710.596769976     A.U. after   14 cycles
 SCF Done:  E(RB3LYP) =  -710.650433897     A.U. after   16 cycles
 SCF Done:  E(RB3LYP) =  -710.678317560     A.U. after   14 cycles
 SCF Done:  E(RB3LYP) =  -710.720306016     A.U. after   14 cycles
 SCF Done:  E(RB3LYP) =  -710.736873142     A.U. after   13 cycles
 SCF Done:  E(RB3LYP) =  -710.746048444     A.U. after   12 cycles
 SCF Done:  E(RB3LYP) =  -710.748950380     A.U. after   12 cycles
 SCF Done:  E(RB3LYP) =  -710.759366020     A.U. after   12 cycles
 SCF Done:  E(RB3LYP) =  -710.759390634     A.U. after   12 cycles
 SCF Done:  E(RB3LYP) =  -710.759443082     A.U. after   11 cycles
 SCF Done:  E(RB3LYP) =  -710.759475899     A.U. after   11 cycles
 SCF Done:  E(RB3LYP) =  -710.759483805     A.U. after   11 cycles
 SCF Done:  E(RB3LYP) =  -710.759487605     A.U. after    9 cycles
 SCF Done:  E(RB3LYP) =  -710.759487696     A.U. after    7 cycles
 SCF Done:  E(RB3LYP) =  -710.759487714     A.U. after    7 cycles
 SCF Done:  E(RB3LYP) =  -710.759487710     A.U. after    6 cycles
 Optimization completed.
    -- Stationary point found.
 Normal termination of Gaussian 16 at Mon May 29 23:20:20 2023.

 ----------------------------------------------------------------------
 #N Geom=AllCheck Guess=TCheck SCRF=Check GenChk RB3LYP/6-31G(2df,p) Fr
 eq
 ----------------------------------------------------------------------

 Structure from the checkpoint file:  "CCCqOCOCrC1dCqCrc2ccncc21.chk"
 -------------------
 Title Card Required
 -------------------
 Charge =  0 Multiplicity = 1

                         Standard orientation:
 ---------------------------------------------------------------------
 Center     Atomic      Atomic             Coordinates (Angstroms)
 Number     Number       Type             X           Y           Z
 ---------------------------------------------------------------------
      1          6           0       -3.344944    2.292443   -0.766727
      2          6           0       -1.851839    2.072282   -0.515572
      3          6           0       -1.540774    0.707148    0.120577
      4          8           0       -2.005412   -0.286927   -0.799558
      5          6           0       -2.222786   -1.548778   -0.274584
      6          8           0       -0.995696   -2.195534   -0.046800
      7          6           0       -1.150145   -3.472475    0.528055
      8          6           0       -0.083283    0.557338    0.400929
      9          6           0        0.709622    0.667663    1.497623
     10          6           0        0.501551    0.918240    2.944989
     11          6           0        1.949639    0.422159    0.649656
     12          6           0        3.297836    0.291702    0.553799
     13          6           0        3.767587    0.026674   -0.777023
     14          7           0        3.014845   -0.090492   -1.846455
     15          6           0        1.649362    0.049021   -1.716665
     16          6           0        1.120370    0.302763   -0.494537
     17          1           0       -3.520044    3.268306   -1.229081
     18          1           0       -3.913562    2.260421    0.169787
     19          1           0       -3.743853    1.521773   -1.430070
     20          1           0       -1.454964    2.847622    0.148878
     21          1           0       -1.292503    2.145204   -1.455005
     22          1           0       -2.105109    0.614030    1.063608
     23          1           0       -2.815948   -2.098502   -1.022344
     24          1           0       -2.797973   -1.495504    0.672102
     25          1           0       -0.150161   -3.887428    0.667369
     26          1           0       -1.726585   -4.147661   -0.123757
     27          1           0       -1.656569   -3.424759    1.505468
     28          1           0       -0.560555    1.008525    3.189778
     29          1           0        1.003451    1.840589    3.264751
     30          1           0        0.925575    0.105968    3.548867
     31          1           0        3.993977    0.372033    1.381134
     32          1           0        4.839275   -0.091964   -0.933366
     33          1           0        1.067318   -0.062603   -2.625204
 ---------------------------------------------------------------------

 SCF Done:  E(RB3LYP) =  -710.759487710     A.U. after    1 cycles

 The electronic state is 1-A.
 Alpha  occ. eigenvalues --  -19.15535 -19.14613 -14.30275 -10.27882 -10.24735
 Alpha  occ. eigenvalues --  -10.23091 -10.20807 -10.20424 -10.20422 -10.19673
 Alpha  occ. eigenvalues --  -10.19561 -10.19446 -10.18831 -10.18287 -10.18108
 Alpha  occ. eigenvalues --  -10.17562  -1.07485  -1.01755  -0.92014  -0.87358
 Alpha  occ. eigenvalues --   -0.79723  -0.75580  -0.74827  -0.72364  -0.70491
 Alpha  occ. eigenvalues --   -0.68287  -0.63726  -0.60938  -0.59928  -0.57257
 Alpha  occ. eigenvalues --   -0.53435  -0.51907  -0.50176  -0.49590  -0.48378
 Alpha  occ. eigenvalues --   -0.47802  -0.44591  -0.44014  -0.43934  -0.43680
 Alpha  occ. eigenvalues --   -0.43010  -0.41809  -0.40895  -0.39956  -0.38825
 Alpha  occ. eigenvalues --   -0.37540  -0.37353  -0.35631  -0.34751  -0.34595
 Alpha  occ. eigenvalues --   -0.33568  -0.32668  -0.32005  -0.31112  -0.28252
 Alpha  occ. eigenvalues --   -0.26294  -0.25383  -0.23233  -0.19473
 Alpha virt. eigenvalues --   -0.04916   0.01730   0.04797   0.07598   0.09100
 Alpha virt. eigenvalues --    0.09919   0.11455   0.12503   0.13011   0.13994
 Alpha virt. eigenvalues --    0.14484   0.14700   0.15299   0.15780   0.16030

 Mulliken charges:
               1
     1  C   -0.389666
     2  C   -0.187618
     3  C   -0.063162
     4  O   -0.238990
     5  C    0.042301
     6  O   -0.219461
     7  C   -0.232010
     8  C    0.143765
     9  C    0.020313
    10  C   -0.513744
    11  C    0.272514
    12  C   -0.339629
    13  C    0.035705
    14  N   -0.284688
    15  C   -0.165812
    16  C    0.241516
    17  H    0.114622
    18  H    0.108721
    19  H    0.135019
    20  H    0.103133
    21  H    0.119767
    22  H    0.071037
    23  H    0.099035
    24  H    0.068522
    25  H    0.138819
    26  H    0.109086
    27  H    0.103963
    28  H    0.130044
    29  H    0.139964
    30  H    0.139206
    31  H    0.091780
    32  H    0.099607
    33  H    0.106341
 Sum of Mulliken charges =  -0.00000

 Dipole moment (field-independent basis, Debye):
    X=             -2.7613    Y=             -0.1328    Z=              3.9307  Tot=              4.8055
 Quadrupole moment (field-independent basis, Debye-Ang):
   XX=            -94.3584   YY=            -88.1060   ZZ=            -95.0641
   XY=              2.7342   XZ=              6.8615   YZ=             -0.6074

  Exact polarizability: 187.568  -8.401 119.535  -0.545   7.565 153.974
 Approx polarizability: 276.209 -11.114 164.276  -0.040  17.979 265.244

                      1                      2                      3
                      A                      A                      A
 Frequencies --     22.6443                30.4966                52.9255
 Red. masses --      4.4661                 3.1093                 3.3619
 Frc consts  --      0.0013                 0.0017                 0.0055
 IR Inten    --      0.4197                 1.1556                 0.4886

                      4                      5                      6
                      A                      A                      A
 Frequencies --     67.5122                73.9635                99.2083
 Red. masses --      2.9552                 3.2720                 2.4424
 Frc consts  --      0.0079                 0.0105                 0.0142
 IR Inten    --      0.7905                 0.4174                 2.2154

                      7                      8                      9
                      A                      A                      A
 Frequencies --    127.0952               136.1611               162.3683
 Red. masses --      2.9642                 3.1954                 1.0669
 Frc consts  --      0.0282                 0.0349                 0.0166
 IR Inten    --      0.6286                 0.3198                 0.0860

                     10                     11                     12
                      A                      A                      A
 Frequencies --    180.9707               197.6894               213.0213
 Red. masses --      2.2323                 2.9761                 1.6505
 Frc consts  --      0.0431                 0.0685                 0.0441
 IR Inten    --      0.3502                 0.6219                 0.5616

                     13                     14                     15
                      A                      A                      A
 Frequencies --    227.3544               244.8636               308.2167
 Red. masses --      1.3113                 2.5109                 3.3988
 Frc consts  --      0.0399                 0.0887                 0.1902
 IR Inten    --      2.6312                 2.3414                 0.5590

                     16                     17                     18
                      A                      A                      A
 Frequencies --    317.6433               339.8253               367.5759
 Red. masses --      2.7429                 3.3818                 3.1692
 Frc consts  --      0.1631                 0.2301                 0.2523
 IR Inten    --      1.9410                 4.5880                 0.6786

                     19                     20                     21
                      A                      A                      A
 Frequencies --    413.9892               438.6200               503.8585
 Red. masses --      3.7992                 3.5233                 5.6355
 Frc consts  --      0.3836                 0.3994                 0.8429
 IR Inten    --      0.5911                 1.6931                 2.0657

                     22                     23                     24
                      A                      A                      A
 Frequencies --    533.1394               596.7747               611.4829
 Red. masses --      5.9660                 4.6171                 3.7495
 Frc consts  --      0.9991                 0.9688                 0.8260
 IR Inten    --      2.7782                 0.8514                 0.8022

                     25                     26                     27
                      A                      A                      A
 Frequencies --    632.0931               672.9372               737.8649
 Red. masses --      4.8461                 5.0808                 4.2513
 Frc consts  --      1.1408                 1.3556                 1.3637
 IR Inten    --      3.9608                 5.6409                 9.2250

                     28                     29                     30
                      A                      A                      A
 Frequencies --    758.6113               783.5752               802.9366
 Red. masses --      1.9985                 2.2488                 5.1879
 Frc consts  --      0.6776                 0.8135                 1.9706
 IR Inten    --      1.6603                 2.2034                 3.1013

                     31                     32                     33
                      A                      A                      A
 Frequencies --    848.8807               906.6572               930.8055
 Red. masses --      1.2609                 1.7955                 1.3486
 Frc consts  --      0.5353                 0.8696                 0.6884
 IR Inten    --     19.6169                 7.4989                 0.3967

                     34                     35                     36
                      A                      A                      A
 Frequencies --    942.2671               963.6779               966.8269
 Red. masses --      2.1648                 1.4490                 4.7876
 Frc consts  --      1.1324                 0.7928                 2.6367
 IR Inten    --     32.8492                 0.8978                 7.6903

                     37                     38                     39
                      A                      A                      A
 Frequencies --    989.0103               995.3271              1044.5236
 Red. masses --      2.8409                 3.9644                 1.5716
 Frc consts  --      1.6372                 2.3140                 1.0103
 IR Inten    --      0.1111                61.1211                 0.2710

                     40                     41                     42
                      A                      A                      A
 Frequencies --   1051.7564              1054.8816              1082.5447
 Red. masses --      2.5650                 5.6288                 1.7714
 Frc consts  --      1.6717                 3.6904                 1.2231
 IR Inten    --      3.3667                15.5397                11.9587

                     43                     44                     45
                      A                      A                      A
 Frequencies --   1101.0902              1123.8402              1125.6567
 Red. masses --      2.0813                 2.4680                 1.7556
 Frc consts  --      1.4867                 1.8366                 1.3106
 IR Inten    --     10.0366                10.9479                 3.5766

                     46                     47                     48
                      A                      A                      A
 Frequencies --   1134.2827              1167.5229              1169.9745
 Red. masses --      6.7483                 2.4118                 3.7141
 Frc consts  --      5.1155                 1.9370                 2.9954
 IR Inten    --    243.4834                13.1771               198.9248

                     49                     50                     51
                      A                      A                      A
 Frequencies --   1173.5164              1200.6425              1237.9902
 Red. masses --      1.5521                 1.6379                 1.9334
 Frc consts  --      1.2594                 1.3911                 1.7459
 IR Inten    --     15.1306                19.2947                31.5463

                     52                     53                     54
                      A                      A                      A
 Frequencies --   1277.0031              1291.2608              1293.2780
 Red. masses --      1.1894                 3.3241                 1.2898
 Frc consts  --      1.1428                 3.2655                 1.2710
 IR Inten    --      2.6997                10.5510                10.1785

                     55                     56                     57
                      A                      A                      A
 Frequencies --   1312.5669              1319.3041              1368.1429
 Red. masses --      1.2102                 1.4767                 1.2524
 Frc consts  --      1.2284                 1.5144                 1.3812
 IR Inten    --      2.8415                 1.0679                24.3218

                     58                     59                     60
                      A                      A                      A
 Frequencies --   1377.8641              1403.7028              1406.0129
 Red. masses --      1.5085                 1.6807                 1.2424
 Frc consts  --      1.6873                 1.9512                 1.4471
 IR Inten    --      0.4343                11.2939                 0.5980

                     61                     62                     63
                      A                      A                      A
 Frequencies --   1408.9982              1444.3636              1447.0038
 Red. masses --      1.3656                 2.1821                 1.2079
 Frc consts  --      1.5974                 2.6822                 1.4901
 IR Inten    --      3.6954                12.6868                34.8546

                     64                     65                     66
                      A                      A                      A
 Frequencies --   1469.6802              1473.0958              1477.3255
 Red. masses --      1.0444                 1.6876                 1.0778
 Frc consts  --      1.3292                 2.1577                 1.3859
 IR Inten    --      5.6993                 3.4625                 0.6436

                     67                     68                     69
                      A                      A                      A
 Frequencies --   1483.7223              1488.0685              1491.0779
 Red. masses --      1.1451                 1.0584                 1.7272
 Frc consts  --      1.4852                 1.3809                 2.2625
 IR Inten    --      6.5495                 4.6986                 9.4260

                     70                     71                     72
                      A                      A                      A
 Frequencies --   1495.2227              1508.4773              1508.9477
 Red. masses --      1.0426                 1.0895                 1.0546
 Frc consts  --      1.3734                 1.4606                 1.4148
 IR Inten    --      5.5038                 3.6611                 4.0859

                     73                     74                     75
                      A                      A                      A
 Frequencies --   1527.0536              1634.5201              1671.8279
 Red. masses --      1.0922                 7.4727                 8.1091
 Frc consts  --      1.5006                11.7627                13.3538
 IR Inten    --      1.7823                16.5087                15.4923

                     76                     77                     78
                      A                      A                      A
 Frequencies --   1721.3570              2895.3822              2963.4123
 Red. masses --      9.5964                 1.0671                 1.0812
 Frc consts  --     16.7533                 5.2707                 5.5943
 IR Inten    --     14.3771                63.7765                27.1410

                     79                     80                     81
                      A                      A                      A
 Frequencies --   2969.7580              2995.0669              3013.9361
 Red. masses --      1.0399                 1.0902                 1.1023
 Frc consts  --      5.4036                 5.7622                 5.8993
 IR Inten    --     71.6977                80.4850                44.5594

                     82                     83                     84
                      A                      A                      A
 Frequencies --   3015.2537              3035.9007              3042.7056
 Red. masses --      1.0380                 1.0394                 1.0594
 Frc consts  --      5.5605                 5.6444                 5.7784
 IR Inten    --     35.9415                30.1038                18.4596

                     85                     86                     87
                      A                      A                      A
 Frequencies --   3061.1183              3080.4057              3102.7120
 Red. masses --      1.0984                 1.1005                 1.1002
 Frc consts  --      6.0641                 6.1523                 6.2404
 IR Inten    --     12.3562                 8.4120                33.8701

                     88                     89                     90
                      A                      A                      A
 Frequencies --   3108.0086              3126.1628              3128.1777
 Red. masses --      1.0989                 1.0954                 1.0878
 Frc consts  --      6.2540                 6.3074                 6.2715
 IR Inten    --     14.8037                16.7975                39.3406

                     91                     92                     93
                      A                      A                      A
 Frequencies --   3129.9864              3180.4537              3189.0571
 Red. masses --      1.1006                 1.0917                 1.0929
 Frc consts  --      6.3527                 6.5060                 6.5487
 IR Inten    --     21.0101                19.2796                13.6633

 - Thermochemistry -
 -------------------
 Temperature   298.150 Kelvin.  Pressure   1.00000 Atm.
 Atom     1 has atomic number  6 and mass  12.00000

 Molecular mass:   219.12593 amu.
 Principal axes and moments of inertia in atomic units:
                           1         2         3
     Eigenvalues --  2846.964154707.814245311.70655
           X            0.99978  -0.01564   0.01410
           Y            0.01594   0.99964  -0.02157
           Z           -0.01376   0.02179   0.99967
 This molecule is an asymmetric top.
 Rotational symmetry number  1.
 Warning -- assumption of classical behavior for rotation
           may cause significant error
 Rotational temperatures (Kelvin)      0.03042     0.01840     0.01631
 Rotational constants (GHZ):           0.63392     0.38335     0.33977
 Zero-point vibrational energy     724963.7 (Joules/Mol)
                                  173.27049 (Kcal/Mol)
 Warning -- explicit consideration of  24 degrees of freedom as
           vibrations may cause significant error
 Vibrational temperatures:     32.58    43.88    76.15    97.13   106.42
          (Kelvin)            142.74   182.86   195.91   233.61   260.38
                              284.43   306.49   327.11   352.30   443.46
                              457.02   488.93   528.86   595.64   631.08
                              724.94   767.07   858.63   879.79   909.44
                              968.21  1061.62  1091.47  1127.39  1155.25
                             1221.35  1304.48  1339.22  1355.71  1386.52
                             1391.05  1422.97  1432.05  1502.84  1513.24
                             1517.74  1557.54  1584.22  1616.96  1619.57
                             1631.98  1679.81  1683.33  1688.43  1727.46
                             1781.19  1837.32  1857.84  1860.74  1888.49
                             1898.18  1968.45  1982.44  2019.62  2022.94
                             2027.23  2078.12  2081.92  2114.54  2119.46
                             2125.54  2134.75  2141.00  2145.33  2151.29
                             2170.36  2171.04  2197.09  2351.71  2405.39
                             2476.65  4165.81  4263.69  4272.82  4309.23
                             4336.38  4338.28  4367.98  4377.77  4404.27
                             4432.02  4464.11  4471.73  4497.85  4500.75
                             4503.35  4575.96  4588.34

 Zero-point correction=                           0.276124 (Hartree/Particle)
 Thermal correction to Energy=                    0.292841
 Thermal correction to Enthalpy=                  0.293786
 Thermal correction to Gibbs Free Energy=         0.229896
 Sum of electronic and zero-point Energies=           -710.483364
 Sum of electronic and thermal Energies=              -710.466646
 Sum of electronic and thermal Enthalpies=            -710.465702
 Sum of electronic and thermal Free Energies=         -710.529592

                     E (Thermal)             CV                S
                      KCal/Mol        Cal/Mol-Kelvin    Cal/Mol-Kelvin
 Total                  183.761             60.317            134.467
 Electronic               0.000              0.000              0.000
 Translational            0.889              2.981             42.056
 Rotational               0.889              2.981             32.632
 Vibrational            181.983             54.355             59.779
 Vibration     1          0.593              1.985              6.388
 Vibration     2          0.594              1.984              5.797
 Vibration     3          0.596              1.976              4.705
 Vibration     4          0.598              1.970              4.225
 Vibration     5          0.599              1.966              4.045
 Vibration     6          0.604              1.950              3.470
 Vibration     7          0.611              1.926              2.990
 Vibration     8          0.614              1.917              2.857
 Vibration     9          0.622              1.889              2.522
 Vibration    10          0.630              1.866              2.318
 Vibration    11          0.637              1.843              2.154
 Vibration    12          0.644              1.821              2.018
 Vibration    13          0.651              1.799              1.900
 Vibration    14          0.660              1.771              1.767
 Vibration    15          0.698              1.658              1.372
 Vibration    16          0.704              1.640              1.322
 Vibration    17          0.720              1.596              1.213
 Vibration    18          0.740              1.539              1.090
 Vibration    19          0.778              1.440              0.913
 Vibration    20          0.799              1.386              0.831
 Vibration    21          0.859              1.241              0.649
 Vibration    22          0.888              1.177              0.580
 Vibration    23          0.955              1.039              0.455
 Vibration    24          0.971              1.008              0.430

 Optimization completed.
    -- Stationary point found.
 Normal termination of Gaussian 16 at Tue May 30 02:20:42 2023.
