 Gaussian 16, Revision A.03,
 Gaussian 16:  ES64L-G16RevA.03 25-Dec-2016

 -----------------------------
 # opt freq b3lyp/6-31g(2df,p)
 -----------------------------

 -------------------
 Title Card Required
 -------------------
 Symbolic Z-matrix:
 Charge =  0 Multiplicity = 1

 SCF Done:  E(RB3LYP) =  -687.452674862     A.U. after   13 cycles
 SCF Done:  E(RB3LYP) =  -687.466900665     A.U. after   11 cycles
 SCF Done:  E(RB3LYP) =  -687.471543911     A.U. after   11 cycles
 SCF Done:  E(RB3LYP) =  -687.474645799     A.U. after   11 cycles
 SCF Done:  E(RB3LYP) =  -687.476789854     A.U. after   11 cycles
 SCF Done:  E(RB3LYP) =  -687.478430855     A.U. after   11 cycles
 SCF Done:  E(RB3LYP) =  -687.479934475     A.U. after   10 cycles
 SCF Done:  E(RB3LYP) =  -687.481064931     A.U. after   11 cycles
 SCF Done:  E(RB3LYP) =  -687.481366176     A.U. after   10 cycles
 SCF Done:  E(RB3LYP) =  -687.481625862     A.U. after   10 cycles
 SCF Done:  E(RB3LYP) =  -687.487567151     A.U. after   10 cycles
 SCF Done:  E(RB3LYP) =  -687.487602039     A.U. after    9 cycles
 SCF Done:  E(RB3LYP) =  -687.487608219     A.U. after    9 cycles
 SCF Done:  E(RB3LYP) =  -687.487609216     A.U. after    7 cycles
 SCF Done:  E(RB3LYP) =  -687.487609644     A.U. after    7 cycles
 SCF Done:  E(RB3LYP) =  -687.487609956     A.U. after    7 cycles
 SCF Done:  E(RB3LYP) =  -687.487610189     A.U. after    7 cycles
 SCF Done:  E(RB3LYP) =  -687.487610364     A.U. after    7 cycles
 SCF Done:  E(RB3LYP) =  -687.487610432     A.U. after    6 cycles
 Optimization completed.
    -- Stationary point found.
 Normal termination of Gaussian 16 at Mon May 22 12:28:31 2023.

 ----------------------------------------------------------------------
 #N Geom=AllCheck Guess=TCheck SCRF=Check GenChk RB3LYP/6-31G(2df,p) Fr
 eq
 ----------------------------------------------------------------------

 Structure from the checkpoint file:  "CCCqCrNNCCqOCrNqOrCN.chk"
 -------------------
 Title Card Required
 -------------------
 Charge =  0 Multiplicity = 1

                         Standard orientation:
 ---------------------------------------------------------------------
 Center     Atomic      Atomic             Coordinates (Angstroms)
 Number     Number       Type             X           Y           Z
 ---------------------------------------------------------------------
      1          6           0        5.134029   -1.439809    0.394243
      2          6           0        4.199029   -0.690211   -0.558505
      3          6           0        2.979673   -0.052357    0.121551
      4          6           0        3.353816    1.031372    1.133683
      5          7           0        2.140109    0.541467   -0.930465
      6          7           0        0.842486    0.888862   -0.451836
      7          6           0       -0.151131   -0.173984   -0.585838
      8          6           0       -1.467072    0.279609    0.048245
      9          8           0       -1.876012    1.506019   -0.530182
     10          6           0       -1.933187    2.598743    0.371160
     11          7           0       -2.517197   -0.700888   -0.228970
     12          8           0       -2.067685   -1.908312    0.427461
     13          6           0       -3.804642   -0.362762    0.368973
     14          7           0       -4.727702   -1.441129    0.020778
     15          1           0        5.943589   -1.926333   -0.158552
     16          1           0        4.596680   -2.217526    0.948489
     17          1           0        5.592975   -0.767832    1.125501
     18          1           0        3.842518   -1.390424   -1.327370
     19          1           0        4.751931    0.094134   -1.090677
     20          1           0        2.435468   -0.850859    0.659489
     21          1           0        3.992273    1.788317    0.664989
     22          1           0        3.881080    0.610177    1.994492
     23          1           0        2.446301    1.521953    1.492305
     24          1           0        2.056084   -0.124485   -1.700850
     25          1           0        0.533037    1.691381   -0.987959
     26          1           0        0.201014   -1.065123   -0.062736
     27          1           0       -0.349414   -0.452575   -1.635551
     28          1           0       -1.320711    0.404492    1.135894
     29          1           0       -2.236737    3.471245   -0.213023
     30          1           0       -0.956188    2.794917    0.830004
     31          1           0       -2.671630    2.434138    1.168949
     32          1           0       -2.801211   -2.505132    0.211600
     33          1           0       -4.087121    0.622880   -0.017840
     34          1           0       -3.737649   -0.320003    1.469083
     35          1           0       -5.047819   -1.332090   -0.936250
     36          1           0       -5.541854   -1.424692    0.624149
 ---------------------------------------------------------------------

 SCF Done:  E(RB3LYP) =  -687.487610432     A.U. after    1 cycles

 The electronic state is 1-A.
 Alpha  occ. eigenvalues --  -19.14775 -19.14770 -14.36156 -14.32681 -14.32472
 Alpha  occ. eigenvalues --  -14.32337 -10.25457 -10.23271 -10.22835 -10.19553
 Alpha  occ. eigenvalues --  -10.19182 -10.17226 -10.16807 -10.15363  -1.05905
 Alpha  occ. eigenvalues --   -1.03288  -0.95380  -0.89576  -0.83320  -0.81309
 Alpha  occ. eigenvalues --   -0.75463  -0.71728  -0.69541  -0.67170  -0.63529
 Alpha  occ. eigenvalues --   -0.61178  -0.58050  -0.55247  -0.52796  -0.50865
 Alpha  occ. eigenvalues --   -0.50248  -0.48521  -0.48098  -0.46206  -0.45128
 Alpha  occ. eigenvalues --   -0.44813  -0.43560  -0.43425  -0.41925  -0.40570
 Alpha  occ. eigenvalues --   -0.40015  -0.38696  -0.38054  -0.37164  -0.36463
 Alpha  occ. eigenvalues --   -0.36151  -0.35240  -0.33765  -0.32693  -0.31923
 Alpha  occ. eigenvalues --   -0.31109  -0.30491  -0.27183  -0.25589  -0.22860
 Alpha  occ. eigenvalues --   -0.21617  -0.21029
 Alpha virt. eigenvalues --    0.07045   0.08277   0.09050   0.10612   0.11035
 Alpha virt. eigenvalues --    0.11884   0.12290   0.13608   0.14214   0.14659
 Alpha virt. eigenvalues --    0.14786   0.15146   0.15703   0.16343   0.16707

 Mulliken charges:
               1
     1  C   -0.388971
     2  C   -0.185245
     3  C    0.111552
     4  C   -0.364446
     5  N   -0.302730
     6  N   -0.286087
     7  C   -0.156082
     8  C    0.182875
     9  O   -0.266571
    10  C   -0.248333
    11  N   -0.032727
    12  O   -0.432392
    13  C   -0.087568
    14  N   -0.518884
    15  H    0.111002
    16  H    0.114336
    17  H    0.120565
    18  H    0.084139
    19  H    0.103093
    20  H    0.054048
    21  H    0.108098
    22  H    0.103360
    23  H    0.121375
    24  H    0.200219
    25  H    0.232373
    26  H    0.131271
    27  H    0.088050
    28  H    0.067656
    29  H    0.127110
    30  H    0.130170
    31  H    0.107773
    32  H    0.299699
    33  H    0.111912
    34  H    0.086443
    35  H    0.237638
    36  H    0.235279
 Sum of Mulliken charges =  -0.00000

 Dipole moment (field-independent basis, Debye):
    X=             -2.8729    Y=              0.3136    Z=              0.3430  Tot=              2.9102
 Quadrupole moment (field-independent basis, Debye-Ang):
   XX=            -71.1030   YY=            -86.4006   ZZ=            -87.6997
   XY=             -3.3767   XZ=             -2.5181   YZ=              2.5433

  Exact polarizability: 160.002  -2.306 125.864   0.021   2.747 107.273
 Approx polarizability: 183.816  -2.190 179.940   0.481   0.506 168.066

                      1                      2                      3
                      A                      A                      A
 Frequencies --     25.0159                34.4123                45.1494
 Red. masses --      3.3715                 3.8167                 2.9002
 Frc consts  --      0.0012                 0.0027                 0.0035
 IR Inten    --      1.8761                 0.4220                 0.3353

                      4                      5                      6
                      A                      A                      A
 Frequencies --     67.7752                73.4876                90.0971
 Red. masses --      3.3447                 2.8331                 2.3279
 Frc consts  --      0.0091                 0.0090                 0.0111
 IR Inten    --      0.6596                 3.4636                 0.8000

                      7                      8                      9
                      A                      A                      A
 Frequencies --    111.4891               130.9577               147.6307
 Red. masses --      2.7259                 3.0570                 2.3219
 Frc consts  --      0.0200                 0.0309                 0.0298
 IR Inten    --      0.8222                 4.8871                13.9625

                     10                     11                     12
                      A                      A                      A
 Frequencies --    178.0181               213.4865               217.4764
 Red. masses --      1.1769                 1.4529                 1.5239
 Frc consts  --      0.0220                 0.0390                 0.0425
 IR Inten    --      2.5134                 0.0342                 0.0367

                     13                     14                     15
                      A                      A                      A
 Frequencies --    239.1088               250.3688               257.1044
 Red. masses --      1.7225                 2.0220                 2.0112
 Frc consts  --      0.0580                 0.0747                 0.0783
 IR Inten    --      7.2907                 1.4455                 9.1315

                     16                     17                     18
                      A                      A                      A
 Frequencies --    272.4526               286.6912               333.8007
 Red. masses --      1.6883                 2.3420                 3.0534
 Frc consts  --      0.0738                 0.1134                 0.2005
 IR Inten    --      0.6611                 9.7683                 0.7944

                     19                     20                     21
                      A                      A                      A
 Frequencies --    346.5732               374.0039               416.1008
 Red. masses --      2.9693                 3.7582                 1.8779
 Frc consts  --      0.2101                 0.3097                 0.1916
 IR Inten    --      5.3515                 2.1263                44.3202

                     22                     23                     24
                      A                      A                      A
 Frequencies --    420.6446               461.8543               478.0305
 Red. masses --      2.6408                 1.8011                 3.6810
 Frc consts  --      0.2753                 0.2264                 0.4956
 IR Inten    --      1.6441                74.6363                 0.7729

                     25                     26                     27
                      A                      A                      A
 Frequencies --    482.9316               508.3697               582.4024
 Red. masses --      2.6688                 3.1698                 2.5026
 Frc consts  --      0.3667                 0.4827                 0.5001
 IR Inten    --      5.6726                 7.8232                 0.5501

                     28                     29                     30
                      A                      A                      A
 Frequencies --    643.4671               774.6931               790.1136
 Red. masses --      3.6736                 1.4105                 1.6305
 Frc consts  --      0.8962                 0.4988                 0.5997
 IR Inten    --     36.5062                 8.0123                28.1300

                     31                     32                     33
                      A                      A                      A
 Frequencies --    836.6731               843.3897               864.7487
 Red. masses --      1.6778                 1.7130                 1.7047
 Frc consts  --      0.6920                 0.7179                 0.7511
 IR Inten    --      8.9649                58.3998                14.8313

                     34                     35                     36
                      A                      A                      A
 Frequencies --    894.1403               907.1355               941.2342
 Red. masses --      2.6304                 2.0619                 1.7784
 Frc consts  --      1.2390                 0.9997                 0.9283
 IR Inten    --     79.9266                30.1402                29.5895

                     37                     38                     39
                      A                      A                      A
 Frequencies --    974.8863               981.7692              1023.3899
 Red. masses --      1.1917                 1.8626                 2.0480
 Frc consts  --      0.6673                 1.0577                 1.2638
 IR Inten    --      7.7646                 9.1423                 2.2701

                     40                     41                     42
                      A                      A                      A
 Frequencies --   1037.3835              1051.4107              1062.5728
 Red. masses --      2.1756                 2.4276                 2.5378
 Frc consts  --      1.3794                 1.5812                 1.6882
 IR Inten    --      1.0124                 3.2269                 8.3611

                     43                     44                     45
                      A                      A                      A
 Frequencies --   1081.2540              1108.9018              1119.9983
 Red. masses --      2.7451                 3.5670                 2.4035
 Frc consts  --      1.8909                 2.5843                 1.7763
 IR Inten    --      6.0814                43.9477                 8.1609

                     46                     47                     48
                      A                      A                      A
 Frequencies --   1132.5972              1142.3340              1156.8512
 Red. masses --      2.4802                 3.9248                 3.2263
 Frc consts  --      1.8745                 3.0176                 2.5439
 IR Inten    --     27.1746                93.9267               113.8008

                     49                     50                     51
                      A                      A                      A
 Frequencies --   1174.1007              1183.0505              1186.7387
 Red. masses --      2.1387                 1.2825                 2.0476
 Frc consts  --      1.7371                 1.0576                 1.6991
 IR Inten    --     27.3661                 2.4198                 4.8639

                     52                     53                     54
                      A                      A                      A
 Frequencies --   1194.7504              1227.4884              1234.7936
 Red. masses --      1.9719                 1.5991                 1.3918
 Frc consts  --      1.6584                 1.4196                 1.2503
 IR Inten    --      5.8305                52.7285                 5.5574

                     55                     56                     57
                      A                      A                      A
 Frequencies --   1275.2099              1290.4928              1318.9298
 Red. masses --      1.3539                 1.2662                 1.3023
 Frc consts  --      1.2972                 1.2424                 1.3348
 IR Inten    --     28.4641                 1.1065                18.2059

                     58                     59                     60
                      A                      A                      A
 Frequencies --   1329.1789              1333.5692              1376.3297
 Red. masses --      1.1953                 1.2024                 1.3799
 Frc consts  --      1.2442                 1.2599                 1.5401
 IR Inten    --      6.2112                11.4669                23.3016

                     61                     62                     63
                      A                      A                      A
 Frequencies --   1380.6361              1381.9634              1399.0249
 Red. masses --      1.4389                 1.2792                 1.3120
 Frc consts  --      1.6160                 1.4394                 1.5130
 IR Inten    --      8.1926                 9.4337                29.3601

                     64                     65                     66
                      A                      A                      A
 Frequencies --   1406.6812              1412.1528              1427.2180
 Red. masses --      1.3657                 1.2343                 1.3560
 Frc consts  --      1.5922                 1.4503                 1.6274
 IR Inten    --     22.0208                 2.0649                13.0183

                     67                     68                     69
                      A                      A                      A
 Frequencies --   1457.1913              1478.1381              1482.0573
 Red. masses --      1.3431                 1.1462                 1.0884
 Frc consts  --      1.6803                 1.4755                 1.4085
 IR Inten    --     51.0214                 1.3143                 1.5719

                     70                     71                     72
                      A                      A                      A
 Frequencies --   1485.2220              1488.6342              1490.2348
 Red. masses --      1.0583                 1.0738                 1.1102
 Frc consts  --      1.3755                 1.4020                 1.4527
 IR Inten    --      0.9352                 1.2097                 9.0756

                     73                     74                     75
                      A                      A                      A
 Frequencies --   1496.0988              1499.8446              1499.9012
 Red. masses --      1.1100                 1.0871                 1.0497
 Frc consts  --      1.4638                 1.4408                 1.3913
 IR Inten    --      2.1919                 1.5863                 4.2732

                     76                     77                     78
                      A                      A                      A
 Frequencies --   1509.0398              1510.9881              1513.1226
 Red. masses --      1.0749                 1.0488                 1.0635
 Frc consts  --      1.4422                 1.4108                 1.4346
 IR Inten    --      4.0561                 2.1621                 5.1177

                     79                     80                     81
                      A                      A                      A
 Frequencies --   1526.4097              1644.2126              2920.8073
 Red. masses --      1.1750                 1.0973                 1.0804
 Frc consts  --      1.6130                 1.7479                 5.4304
 IR Inten    --      5.1734                27.5199                44.2150

                     82                     83                     84
                      A                      A                      A
 Frequencies --   2941.5340              2958.4180              2963.4262
 Red. masses --      1.0787                 1.0731                 1.0656
 Frc consts  --      5.4992                 5.5337                 5.5137
 IR Inten    --      4.9983                43.9758                74.3268

                     85                     86                     87
                      A                      A                      A
 Frequencies --   2994.9642              3004.1242              3033.4071
 Red. masses --      1.0381                 1.0637                 1.0372
 Frc consts  --      5.4862                 5.6560                 5.6230
 IR Inten    --     69.0831                36.2097                19.1605

                     88                     89                     90
                      A                      A                      A
 Frequencies --   3037.7464              3049.3476              3057.1906
 Red. masses --      1.0371                 1.0953                 1.0948
 Frc consts  --      5.6385                 6.0004                 6.0290
 IR Inten    --     25.6482                21.7578                34.3550

                     91                     92                     93
                      A                      A                      A
 Frequencies --   3058.0939              3098.8741              3105.1712
 Red. masses --      1.0996                 1.1006                 1.1015
 Frc consts  --      6.0588                 6.2271                 6.2576
 IR Inten    --     35.9168                38.7052                36.1649

                     94                     95                     96
                      A                      A                      A
 Frequencies --   3110.6675              3113.4065              3115.3404
 Red. masses --      1.1000                 1.0892                 1.1001
 Frc consts  --      6.2712                 6.2206                 6.2904
 IR Inten    --     28.9424                10.0608                29.5340

                     97                     98                     99
                      A                      A                      A
 Frequencies --   3128.4586              3398.8333              3509.9415
 Red. masses --      1.0997                 1.0733                 1.0496
 Frc consts  --      6.3416                 7.3051                 7.6187
 IR Inten    --     18.2584                13.9080                 0.7662

                    100                    101                    102
                      A                      A                      A
 Frequencies --   3529.8490              3598.5231              3711.2728
 Red. masses --      1.0745                 1.0930                 1.0658
 Frc consts  --      7.8878                 8.3388                 8.6493
 IR Inten    --      1.6998                 3.2134                91.3479

 - Thermochemistry -
 -------------------
 Temperature   298.150 Kelvin.  Pressure   1.00000 Atm.
 Atom     1 has atomic number  6 and mass  12.00000

 Molecular mass:   206.17428 amu.
 Principal axes and moments of inertia in atomic units:
                           1         2         3
     Eigenvalues --  1461.608437055.700147964.84696
           X            0.99995  -0.01032   0.00095
           Y            0.01029   0.99960   0.02640
           Z           -0.00122  -0.02639   0.99965
 This molecule is an asymmetric top.
 Rotational symmetry number  1.
 Warning -- assumption of classical behavior for rotation
           may cause significant error
 Rotational temperatures (Kelvin)      0.05926     0.01228     0.01087
 Rotational constants (GHZ):           1.23476     0.25578     0.22659
 Zero-point vibrational energy     846161.6 (Joules/Mol)
                                  202.23749 (Kcal/Mol)
 Warning -- explicit consideration of  27 degrees of freedom as
           vibrations may cause significant error
 Vibrational temperatures:     35.99    49.51    64.96    97.51   105.73
          (Kelvin)            129.63   160.41   188.42   212.41   256.13
                              307.16   312.90   344.02   360.22   369.92
                              392.00   412.48   480.26   498.64   538.11
                              598.68   605.21   664.51   687.78   694.83
                              731.43   837.95   925.81  1114.61  1136.80
                             1203.79  1213.45  1244.18  1286.47  1305.17
                             1354.23  1402.64  1412.55  1472.43  1492.56
                             1512.75  1528.81  1555.68  1595.46  1611.43
                             1629.55  1643.56  1664.45  1689.27  1702.15
                             1707.45  1718.98  1766.08  1776.59  1834.74
                             1856.73  1897.65  1912.39  1918.71  1980.23
                             1986.43  1988.34  2012.88  2023.90  2031.77
                             2053.45  2096.57  2126.71  2132.35  2136.90
                             2141.81  2144.12  2152.55  2157.94  2158.02
                             2171.17  2173.97  2177.05  2196.16  2365.66
                             4202.39  4232.21  4256.50  4263.71  4309.09
                             4322.26  4364.40  4370.64  4387.33  4398.62
                             4399.91  4458.59  4467.65  4475.56  4479.50
                             4482.28  4501.15  4890.16  5050.02  5078.67
                             5177.47  5339.69

 Zero-point correction=                           0.322286 (Hartree/Particle)
 Thermal correction to Energy=                    0.340180
 Thermal correction to Enthalpy=                  0.341124
 Thermal correction to Gibbs Free Energy=         0.275220
 Sum of electronic and zero-point Energies=           -687.165324
 Sum of electronic and thermal Energies=              -687.147431
 Sum of electronic and thermal Enthalpies=            -687.146487
 Sum of electronic and thermal Free Energies=         -687.212391

                     E (Thermal)             CV                S
                      KCal/Mol        Cal/Mol-Kelvin    Cal/Mol-Kelvin
 Total                  213.466             64.493            138.707
 Electronic               0.000              0.000              0.000
 Translational            0.889              2.981             41.875
 Rotational               0.889              2.981             32.774
 Vibrational            211.688             58.532             64.058
 Vibration     1          0.593              1.985              6.190
 Vibration     2          0.594              1.983              5.557
 Vibration     3          0.595              1.979              5.019
 Vibration     4          0.598              1.970              4.217
 Vibration     5          0.599              1.967              4.058
 Vibration     6          0.602              1.956              3.658
 Vibration     7          0.607              1.940              3.243
 Vibration     8          0.612              1.922              2.932
 Vibration     9          0.617              1.905              2.703
 Vibration    10          0.628              1.869              2.349
 Vibration    11          0.644              1.820              2.014
 Vibration    12          0.646              1.814              1.980
 Vibration    13          0.657              1.781              1.810
 Vibration    14          0.663              1.762              1.728
 Vibration    15          0.667              1.751              1.681
 Vibration    16          0.675              1.724              1.581
 Vibration    17          0.684              1.698              1.493
 Vibration    18          0.715              1.608              1.242
 Vibration    19          0.725              1.582              1.182
 Vibration    20          0.745              1.525              1.063
 Vibration    21          0.779              1.435              0.905
 Vibration    22          0.783              1.425              0.890
 Vibration    23          0.820              1.335              0.761
 Vibration    24          0.835              1.299              0.715
 Vibration    25          0.839              1.288              0.702
 Vibration    26          0.864              1.231              0.638
 Vibration    27          0.939              1.069              0.481

                           ! Non-Optimized Parameters !
 Normal termination of Gaussian 16 at Mon May 22 14:35:02 2023.
