 Gaussian 16, Revision A.03,
 Gaussian 16:  ES64L-G16RevA.03 25-Dec-2016

 -----------------------------
 # opt freq b3lyp/6-31g(2df,p)
 -----------------------------

 -------------------
 Title Card Required
 -------------------
 Symbolic Z-matrix:
 Charge =  0 Multiplicity = 1

 SCF Done:  E(RB3LYP) =  -352.504798297     A.U. after   12 cycles
 SCF Done:  E(RB3LYP) =  -352.525020410     A.U. after   11 cycles
 SCF Done:  E(RB3LYP) =  -352.531821423     A.U. after   11 cycles
 SCF Done:  E(RB3LYP) =  -352.533778462     A.U. after   10 cycles
 SCF Done:  E(RB3LYP) =  -352.534086211     A.U. after    9 cycles
 SCF Done:  E(RB3LYP) =  -352.534183592     A.U. after    9 cycles
 SCF Done:  E(RB3LYP) =  -352.534193048     A.U. after    8 cycles
 SCF Done:  E(RB3LYP) =  -352.534196330     A.U. after    7 cycles
 SCF Done:  E(RB3LYP) =  -352.534197313     A.U. after    7 cycles
 SCF Done:  E(RB3LYP) =  -352.534197453     A.U. after    6 cycles
 Optimization completed.
    -- Stationary point found.
 Normal termination of Gaussian 16 at Sun May 28 14:20:00 2023.

 ----------------------------------------------------------------------
 #N Geom=AllCheck Guess=TCheck SCRF=Check GenChk RB3LYP/6-31G(2df,p) Fr
 eq
 ----------------------------------------------------------------------

 Structure from the checkpoint file:  "CCCqCrC1C2CC1C2.chk"
 -------------------
 Title Card Required
 -------------------
 Charge =  0 Multiplicity = 1

                         Standard orientation:
 ---------------------------------------------------------------------
 Center     Atomic      Atomic             Coordinates (Angstroms)
 Number     Number       Type             X           Y           Z
 ---------------------------------------------------------------------
      1          6           0        3.356154   -0.506830   -0.073059
      2          6           0        1.861260   -0.771864   -0.279530
      3          6           0        0.915337    0.184131    0.480851
      4          6           0        1.107884    1.642651    0.036625
      5          6           0       -0.503552   -0.415373    0.465418
      6          6           0       -1.835190    0.353747    0.758976
      7          6           0       -2.571333   -0.903264    0.205320
      8          6           0       -1.413722   -0.617418   -0.797057
      9          6           0       -1.835189    0.878233   -0.709725
     10          1           0        3.959795   -1.267874   -0.577804
     11          1           0        3.617965   -0.528948    0.991196
     12          1           0        3.661136    0.466330   -0.469415
     13          1           0        1.639798   -1.800799    0.031568
     14          1           0        1.624821   -0.724063   -1.351236
     15          1           0        1.214159    0.149565    1.540487
     16          1           0        0.999144    1.765329   -1.046196
     17          1           0        2.113442    1.984490    0.299878
     18          1           0        0.400006    2.314105    0.530596
     19          1           0       -0.438430   -1.342797    1.050232
     20          1           0       -2.089177    0.915136    1.660475
     21          1           0       -3.585487   -0.742363   -0.170178
     22          1           0       -2.501194   -1.819972    0.797499
     23          1           0       -1.178678   -1.184864   -1.699468
     24          1           0       -2.819027    1.117836   -1.124888
     25          1           0       -1.108172    1.634799   -0.989648
 ---------------------------------------------------------------------

 SCF Done:  E(RB3LYP) =  -352.534197453     A.U. after    1 cycles

 The electronic state is 1-A.
 Alpha  occ. eigenvalues --  -10.19310 -10.19251 -10.18389 -10.18182 -10.17987
 Alpha  occ. eigenvalues --  -10.17646 -10.17470 -10.16969 -10.16840  -0.90200
 Alpha  occ. eigenvalues --   -0.79617  -0.71984  -0.67501  -0.65195  -0.62109
 Alpha  occ. eigenvalues --   -0.61245  -0.56322  -0.51341  -0.48843  -0.46081
 Alpha  occ. eigenvalues --   -0.44565  -0.43790  -0.41650  -0.39126  -0.37585
 Alpha  occ. eigenvalues --   -0.36793  -0.36217  -0.33404  -0.33195  -0.32073
 Alpha  occ. eigenvalues --   -0.31685  -0.30410  -0.29919  -0.28601  -0.28357
 Alpha virt. eigenvalues --    0.08451   0.11441   0.11903   0.12270   0.13294
 Alpha virt. eigenvalues --    0.14124   0.14793   0.14933   0.15628   0.16202
 Alpha virt. eigenvalues --    0.17189   0.17279   0.17970   0.18041   0.19692

 Mulliken charges:
               1
     1  C   -0.393053
     2  C   -0.155872
     3  C   -0.020161
     4  C   -0.408155
     5  C    0.075639
     6  C   -0.084691
     7  C   -0.214814
     8  C   -0.057164
     9  C   -0.213297
    10  H    0.110559
    11  H    0.111593
    12  H    0.117418
    13  H    0.090433
    14  H    0.094531
    15  H    0.069993
    16  H    0.117461
    17  H    0.109448
    18  H    0.117249
    19  H    0.059036
    20  H    0.062962
    21  H    0.085479
    22  H    0.085102
    23  H    0.063827
    24  H    0.082040
    25  H    0.094438
 Sum of Mulliken charges =  -0.00000

 Dipole moment (field-independent basis, Debye):
    X=              0.2116    Y=             -0.0166    Z=              0.0609  Tot=              0.2208
 Quadrupole moment (field-independent basis, Debye-Ang):
   XX=            -58.7890   YY=            -58.3002   ZZ=            -57.8663
   XY=             -0.1205   XZ=              0.0444   YZ=             -0.0209

  Exact polarizability: 110.007   0.146  88.648   0.867  -1.012  81.858
 Approx polarizability: 136.325  -0.469 131.532   1.163  -1.212 130.680

                      1                      2                      3
                      A                      A                      A
 Frequencies --     48.2563                89.9816               140.8098
 Red. masses --      2.8462                 1.8235                 2.9366
 Frc consts  --      0.0039                 0.0087                 0.0343
 IR Inten    --      0.0036                 0.0022                 0.0133

                      4                      5                      6
                      A                      A                      A
 Frequencies --    227.9147               264.7602               296.5370
 Red. masses --      1.2423                 2.5619                 2.4794
 Frc consts  --      0.0380                 0.1058                 0.1285
 IR Inten    --      0.0292                 0.2007                 0.0253

                      7                      8                      9
                      A                      A                      A
 Frequencies --    323.9693               353.0122               366.8419
 Red. masses --      1.3096                 2.7348                 1.9024
 Frc consts  --      0.0810                 0.2008                 0.1508
 IR Inten    --      0.1636                 0.0814                 0.2450

                     10                     11                     12
                      A                      A                      A
 Frequencies --    442.5997               573.1338               658.0533
 Red. masses --      2.2439                 1.9527                 2.3292
 Frc consts  --      0.2590                 0.3779                 0.5943
 IR Inten    --      0.2959                 1.1802                 0.6445

                     13                     14                     15
                      A                      A                      A
 Frequencies --    765.2284               777.3796               797.6022
 Red. masses --      2.9316                 1.2895                 2.6289
 Frc consts  --      1.0114                 0.4591                 0.9854
 IR Inten    --      0.2068                 1.5182                 0.6014

                     16                     17                     18
                      A                      A                      A
 Frequencies --    816.3028               857.3214               881.7687
 Red. masses --      2.5745                 2.2050                 2.2765
 Frc consts  --      1.0107                 0.9549                 1.0429
 IR Inten    --      0.8928                 0.2044                 1.5767

                     19                     20                     21
                      A                      A                      A
 Frequencies --    895.9416               903.4001               961.3530
 Red. masses --      2.3223                 2.3995                 1.6317
 Frc consts  --      1.0983                 1.1538                 0.8885
 IR Inten    --      0.0430                 0.3576                 1.5093

                     22                     23                     24
                      A                      A                      A
 Frequencies --    976.3491              1006.2398              1010.1638
 Red. masses --      1.2826                 1.4804                 1.0712
 Frc consts  --      0.7203                 0.8832                 0.6440
 IR Inten    --      2.0344                 4.2927                 1.2494

                     25                     26                     27
                      A                      A                      A
 Frequencies --   1031.3074              1041.2398              1060.6263
 Red. masses --      1.0302                 2.0383                 1.8352
 Frc consts  --      0.6456                 1.3020                 1.2163
 IR Inten    --      0.4361                 0.9616                 2.2267

                     28                     29                     30
                      A                      A                      A
 Frequencies --   1073.7073              1102.8230              1114.0918
 Red. masses --      1.3531                 1.7194                 2.4560
 Frc consts  --      0.9191                 1.2321                 1.7961
 IR Inten    --      0.8058                 3.4787                 0.6963

                     31                     32                     33
                      A                      A                      A
 Frequencies --   1141.2230              1148.5494              1168.3732
 Red. masses --      1.6658                 1.5955                 1.9459
 Frc consts  --      1.2782                 1.2400                 1.5651
 IR Inten    --      0.2679                 0.2478                 0.7651

                     34                     35                     36
                      A                      A                      A
 Frequencies --   1190.1097              1211.0665              1220.1004
 Red. masses --      1.4319                 2.1070                 1.4244
 Frc consts  --      1.1949                 1.8208                 1.2493
 IR Inten    --      0.0192                 0.8376                 0.4757

                     37                     38                     39
                      A                      A                      A
 Frequencies --   1244.3469              1246.9343              1281.5890
 Red. masses --      1.6789                 1.6245                 1.9248
 Frc consts  --      1.5316                 1.4882                 1.8626
 IR Inten    --      1.1736                11.6548                 0.8500

                     40                     41                     42
                      A                      A                      A
 Frequencies --   1292.5024              1329.4435              1370.5774
 Red. masses --      1.3666                 1.1894                 1.3353
 Frc consts  --      1.3451                 1.2386                 1.4778
 IR Inten    --      4.0541                 3.9235                 1.1021

                     43                     44                     45
                      A                      A                      A
 Frequencies --   1379.6919              1403.5927              1413.0691
 Red. masses --      1.4507                 1.2327                 1.2190
 Frc consts  --      1.6271                 1.4309                 1.4342
 IR Inten    --      0.2395                 3.1233                 0.8471

                     46                     47                     48
                      A                      A                      A
 Frequencies --   1448.1405              1483.7555              1497.2111
 Red. masses --      1.2570                 1.0683                 1.0415
 Frc consts  --      1.5531                 1.3858                 1.3756
 IR Inten    --      8.2141                 0.9622                 6.1492

                     49                     50                     51
                      A                      A                      A
 Frequencies --   1497.9918              1506.7922              1511.7808
 Red. masses --      1.0788                 1.0659                 1.0775
 Frc consts  --      1.4263                 1.4259                 1.4509
 IR Inten    --      4.6766                 6.0439                 2.4207

                     52                     53                     54
                      A                      A                      A
 Frequencies --   1515.3526              1548.0075              2971.0165
 Red. masses --      1.0460                 1.1323                 1.0810
 Frc consts  --      1.4151                 1.5986                 5.6221
 IR Inten    --      2.2274                 2.3160                12.4317

                     55                     56                     57
                      A                      A                      A
 Frequencies --   3004.3979              3012.7123              3030.2993
 Red. masses --      1.0833                 1.0603                 1.0373
 Frc consts  --      5.7614                 5.6703                 5.6122
 IR Inten    --     48.1441                27.3448                26.2180

                     58                     59                     60
                      A                      A                      A
 Frequencies --   3034.8697              3045.2385              3046.4614
 Red. masses --      1.0369                 1.0691                 1.0838
 Frc consts  --      5.6266                 5.8413                 5.9266
 IR Inten    --     17.2569                26.2347                56.4887

                     61                     62                     63
                      A                      A                      A
 Frequencies --   3057.4509              3086.1368              3093.5854
 Red. masses --      1.0671                 1.0895                 1.0942
 Frc consts  --      5.8773                 6.1140                 6.1697
 IR Inten    --     47.7883               105.8716                13.6018

                     64                     65                     66
                      A                      A                      A
 Frequencies --   3095.1904              3096.7300              3106.0755
 Red. masses --      1.0997                 1.1003                 1.1006
 Frc consts  --      6.2070                 6.2167                 6.2559
 IR Inten    --     47.4146                37.7285                39.6603

                     67                     68                     69
                      A                      A                      A
 Frequencies --   3109.6583              3112.0487              3179.4529
 Red. masses --      1.1010                 1.1106                 1.0946
 Frc consts  --      6.2726                 6.3375                 6.5193
 IR Inten    --     31.2305                52.5950                23.5308

 - Thermochemistry -
 -------------------
 Temperature   298.150 Kelvin.  Pressure   1.00000 Atm.
 Atom     1 has atomic number  6 and mass  12.00000

 Molecular mass:   124.12520 amu.
 Principal axes and moments of inertia in atomic units:
                           1         2         3
     Eigenvalues --   517.955861865.731812066.20281
           X            1.00000   0.00020   0.00009
           Y           -0.00020   0.99985  -0.01704
           Z           -0.00009   0.01704   0.99985
 This molecule is an asymmetric top.
 Rotational symmetry number  1.
 Warning -- assumption of classical behavior for rotation
           may cause significant error
 Rotational temperatures (Kelvin)      0.16722     0.04642     0.04192
 Rotational constants (GHZ):           3.48435     0.96731     0.87346
 Zero-point vibrational energy     604055.8 (Joules/Mol)
                                  144.37280 (Kcal/Mol)
 Warning -- explicit consideration of  11 degrees of freedom as
           vibrations may cause significant error
 Vibrational temperatures:     69.43   129.46   202.59   327.92   380.93
          (Kelvin)            426.65   466.12   507.91   527.80   636.80
                              824.61   946.79  1100.99  1118.48  1147.57
                             1174.48  1233.49  1268.67  1289.06  1299.79
                             1383.17  1404.75  1447.75  1453.40  1483.82
                             1498.11  1526.00  1544.83  1586.72  1602.93
                             1641.97  1652.51  1681.03  1712.30  1742.45
                             1755.45  1790.34  1794.06  1843.92  1859.62
                             1912.77  1971.96  1985.07  2019.46  2033.09
                             2083.55  2134.79  2154.15  2155.28  2167.94
                             2175.12  2180.25  2227.24  4274.63  4322.66
                             4334.62  4359.92  4366.50  4381.42  4383.18
                             4398.99  4440.26  4450.98  4453.29  4455.50
                             4468.95  4474.10  4477.54  4574.52

 Zero-point correction=                           0.230073 (Hartree/Particle)
 Thermal correction to Energy=                    0.239356
 Thermal correction to Enthalpy=                  0.240300
 Thermal correction to Gibbs Free Energy=         0.195719
 Sum of electronic and zero-point Energies=           -352.304125
 Sum of electronic and thermal Energies=              -352.294842
 Sum of electronic and thermal Enthalpies=            -352.293897
 Sum of electronic and thermal Free Energies=         -352.338479

                     E (Thermal)             CV                S
                      KCal/Mol        Cal/Mol-Kelvin    Cal/Mol-Kelvin
 Total                  150.198             36.460             93.830
 Electronic               0.000              0.000              0.000
 Translational            0.889              2.981             40.362
 Rotational               0.889              2.981             29.081
 Vibrational            148.421             30.498             24.387
 Vibration     1          0.595              1.978              4.888
 Vibration     2          0.602              1.956              3.660
 Vibration     3          0.615              1.912              2.793
 Vibration     4          0.651              1.798              1.895
 Vibration     5          0.671              1.738              1.630
 Vibration     6          0.690              1.680              1.436
 Vibration     7          0.709              1.628              1.290
 Vibration     8          0.729              1.569              1.153
 Vibration     9          0.740              1.540              1.093
 Vibration    10          0.802              1.377              0.818
 Vibration    11          0.929              1.089              0.498

 Optimization completed.
    -- Stationary point found.
 Normal termination of Gaussian 16 at Sun May 28 15:03:33 2023.
