 Gaussian 16, Revision A.03,
 Gaussian 16:  ES64L-G16RevA.03 25-Dec-2016

 -----------------------------
 # opt freq b3lyp/6-31g(2df,p)
 -----------------------------

 -------------------
 Title Card Required
 -------------------
 Symbolic Z-matrix:
 Charge =  0 Multiplicity = 1

 SCF Done:  E(RB3LYP) =  -893.807303348     A.U. after   14 cycles
 SCF Done:  E(RB3LYP) =  -893.827588451     A.U. after   12 cycles
 SCF Done:  E(RB3LYP) =  -893.830062398     A.U. after   12 cycles
 SCF Done:  E(RB3LYP) =  -893.835354249     A.U. after   12 cycles
 SCF Done:  E(RB3LYP) =  -893.839151083     A.U. after   12 cycles
 SCF Done:  E(RB3LYP) =  -893.845777607     A.U. after   14 cycles
 SCF Done:  E(RB3LYP) =  -893.851046403     A.U. after   14 cycles
 SCF Done:  E(RB3LYP) =  -893.855010905     A.U. after   13 cycles
 SCF Done:  E(RB3LYP) =  -893.856168705     A.U. after   13 cycles
 SCF Done:  E(RB3LYP) =  -893.857513282     A.U. after   13 cycles
 SCF Done:  E(RB3LYP) =  -893.858832387     A.U. after   11 cycles
 SCF Done:  E(RB3LYP) =  -893.859001109     A.U. after   10 cycles
 SCF Done:  E(RB3LYP) =  -893.859103442     A.U. after   12 cycles
 SCF Done:  E(RB3LYP) =  -893.859135783     A.U. after   10 cycles
 SCF Done:  E(RB3LYP) =  -893.859148107     A.U. after    9 cycles
 SCF Done:  E(RB3LYP) =  -893.859154641     A.U. after    9 cycles
 SCF Done:  E(RB3LYP) =  -893.859157942     A.U. after    9 cycles
 SCF Done:  E(RB3LYP) =  -893.859158760     A.U. after    8 cycles
 SCF Done:  E(RB3LYP) =  -893.859158947     A.U. after    7 cycles
 Optimization completed.
    -- Stationary point found.
 Normal termination of Gaussian 16 at Mon May 22 20:31:19 2023.

 ----------------------------------------------------------------------
 #N Geom=AllCheck Guess=TCheck SCRF=Check GenChk RB3LYP/6-31G(2df,p) Fr
 eq
 ----------------------------------------------------------------------

 Structure from the checkpoint file:  "CCCqCOOOrCCqCrC1CCCqCrCqCrqCrCC1.chk"
 -------------------
 Title Card Required
 -------------------
 Charge =  0 Multiplicity = 1

                         Standard orientation:
 ---------------------------------------------------------------------
 Center     Atomic      Atomic             Coordinates (Angstroms)
 Number     Number       Type             X           Y           Z
 ---------------------------------------------------------------------
      1          6           0       -4.678622    2.222083    1.062229
      2          6           0       -3.297743    2.040541    0.423669
      3          6           0       -2.807474    0.583658    0.289456
      4          6           0       -3.782341   -0.278791   -0.528042
      5          8           0       -4.773119   -0.776787    0.383250
      6          8           0       -5.742989   -1.505293   -0.357398
      7          8           0       -6.688695   -0.566114   -0.872221
      8          6           0       -1.380959    0.541410   -0.321622
      9          6           0       -0.413027   -0.469930    0.335090
     10          6           0       -0.981167   -1.899534    0.277654
     11          6           0        1.032441   -0.428468   -0.256677
     12          6           0        1.505681    0.995299   -0.606150
     13          6           0        2.953735    1.148807   -1.107895
     14          6           0        4.049894    0.977024   -0.029777
     15          6           0        5.200596    1.965239   -0.292589
     16          6           0        4.538998   -0.496899    0.161161
     17          6           0        5.158603   -0.640111    1.566506
     18          6           0        5.599378   -0.888022   -0.887435
     19          6           0        3.372452   -1.513016    0.029139
     20          6           0        2.025314   -1.147934    0.684110
     21          1           0       -4.916676    3.286158    1.161002
     22          1           0       -4.713746    1.775528    2.061747
     23          1           0       -5.466149    1.753120    0.467488
     24          1           0       -2.556051    2.592155    1.015137
     25          1           0       -3.291203    2.503624   -0.573136
     26          1           0       -2.767193    0.149247    1.297672
     27          1           0       -3.283219   -1.130175   -0.999255
     28          1           0       -4.275211    0.315245   -1.306927
     29          1           0       -7.263625   -0.432718   -0.101984
     30          1           0       -0.954725    1.542931   -0.229940
     31          1           0       -1.446355    0.342852   -1.401370
     32          1           0       -0.335182   -0.180948    1.395316
     33          1           0       -1.102714   -2.225672   -0.762530
     34          1           0       -1.956669   -1.970758    0.766030
     35          1           0       -0.328155   -2.623089    0.771057
     36          1           0        1.007062   -1.000919   -1.197723
     37          1           0        1.380978    1.643441    0.274485
     38          1           0        0.847793    1.405720   -1.378637
     39          1           0        3.039067    2.161599   -1.519506
     40          1           0        3.135906    0.475943   -1.955811
     41          1           0        3.598372    1.277130    0.925747
     42          1           0        5.620285    1.837418   -1.295829
     43          1           0        6.018168    1.858795    0.426564
     44          1           0        4.834570    2.994788   -0.221641
     45          1           0        5.961811    0.084078    1.734229
     46          1           0        5.584764   -1.640096    1.703766
     47          1           0        4.408996   -0.488024    2.350796
     48          1           0        6.536311   -0.340508   -0.751377
     49          1           0        5.246315   -0.702894   -1.908041
     50          1           0        5.829926   -1.956394   -0.810464
     51          1           0        3.729015   -2.461228    0.449627
     52          1           0        3.193335   -1.720935   -1.032948
     53          1           0        2.181692   -0.535044    1.581810
     54          1           0        1.566381   -2.072967    1.042623
 ---------------------------------------------------------------------

 SCF Done:  E(RB3LYP) =  -893.859158947     A.U. after    1 cycles

 The electronic state is 1-A.
 Alpha  occ. eigenvalues --  -19.24755 -19.20185 -19.19807 -10.22530 -10.18991
 Alpha  occ. eigenvalues --  -10.18738 -10.18532 -10.18038 -10.17964 -10.17856
 Alpha  occ. eigenvalues --  -10.17788 -10.17327 -10.17251 -10.17190 -10.17011
 Alpha  occ. eigenvalues --  -10.16895 -10.16807 -10.16770 -10.16589 -10.16581
 Alpha  occ. eigenvalues --   -1.17109  -1.02370  -0.85362  -0.83806  -0.81527
 Alpha  occ. eigenvalues --   -0.78918  -0.76666  -0.75089  -0.71573  -0.70727
 Alpha  occ. eigenvalues --   -0.67967  -0.67613  -0.66685  -0.62819  -0.61532
 Alpha  occ. eigenvalues --   -0.60133  -0.57715  -0.56640  -0.55422  -0.54334
 Alpha  occ. eigenvalues --   -0.51152  -0.49650  -0.48542  -0.46764  -0.46362
 Alpha  occ. eigenvalues --   -0.45787  -0.44730  -0.44431  -0.43760  -0.42637
 Alpha  occ. eigenvalues --   -0.42406  -0.41439  -0.40841  -0.40371  -0.40241
 Alpha  occ. eigenvalues --   -0.39457  -0.39224  -0.38511  -0.37986  -0.37222
 Alpha  occ. eigenvalues --   -0.36946  -0.36155  -0.35962  -0.35363  -0.35131
 Alpha  occ. eigenvalues --   -0.34408  -0.34111  -0.33426  -0.32947  -0.32846
 Alpha  occ. eigenvalues --   -0.32202  -0.30953  -0.30532  -0.29908  -0.29814
 Alpha  occ. eigenvalues --   -0.29304  -0.28793  -0.28632  -0.28071  -0.27626
 Alpha virt. eigenvalues --    0.02102   0.05900   0.07607   0.08312   0.08431
 Alpha virt. eigenvalues --    0.08961   0.10305   0.10990   0.11631   0.11953
 Alpha virt. eigenvalues --    0.12282   0.12733   0.13364   0.13527   0.13707

 Mulliken charges:
               1
     1  C   -0.390522
     2  C   -0.188915
     3  C    0.006682
     4  C   -0.040391
     5  O   -0.156653
     6  O   -0.105434
     7  O   -0.276235
     8  C   -0.246360
     9  C    0.020720
    10  C   -0.411479
    11  C    0.034048
    12  C   -0.211574
    13  C   -0.243014
    14  C    0.047348
    15  C   -0.424686
    16  C    0.280167
    17  C   -0.421041
    18  C   -0.418497
    19  C   -0.224677
    20  C   -0.223965
    21  H    0.105536
    22  H    0.114845
    23  H    0.122565
    24  H    0.093664
    25  H    0.094994
    26  H    0.086766
    27  H    0.109482
    28  H    0.113758
    29  H    0.316441
    30  H    0.100068
    31  H    0.091208
    32  H    0.066545
    33  H    0.111943
    34  H    0.128515
    35  H    0.115318
    36  H    0.061654
    37  H    0.088356
    38  H    0.094220
    39  H    0.086450
    40  H    0.091634
    41  H    0.062057
    42  H    0.116440
    43  H    0.110791
    44  H    0.107538
    45  H    0.109905
    46  H    0.105859
    47  H    0.110049
    48  H    0.109352
    49  H    0.109048
    50  H    0.106170
    51  H    0.084405
    52  H    0.085976
    53  H    0.091725
    54  H    0.091199
 Sum of Mulliken charges =  -0.00000

 Dipole moment (field-independent basis, Debye):
    X=              0.5653    Y=              1.0904    Z=              0.4477  Tot=              1.3073
 Quadrupole moment (field-independent basis, Debye-Ang):
   XX=           -127.9083   YY=           -129.4915   ZZ=           -128.8190
   XY=             -6.1155   XZ=             -4.3930   YZ=             -0.2198

  Exact polarizability: 256.474  -1.047 185.620   1.805  -1.424 162.512
 Approx polarizability: 294.121  -0.292 274.124   7.218   0.550 271.785

                      1                      2                      3
                      A                      A                      A
 Frequencies --     20.8474                23.8955                32.7860
 Red. masses --      3.8741                 4.4833                 3.7487
 Frc consts  --      0.0010                 0.0015                 0.0024
 IR Inten    --      0.1016                 0.0123                 0.2413

                      4                      5                      6
                      A                      A                      A
 Frequencies --     53.3720                72.7878                78.4937
 Red. masses --      5.6885                 2.7821                 3.7190
 Frc consts  --      0.0095                 0.0087                 0.0135
 IR Inten    --      0.6659                 0.1290                 0.2487

                      7                      8                      9
                      A                      A                      A
 Frequencies --     89.1920               105.4659               119.7299
 Red. masses --      3.1978                 3.4394                 2.9699
 Frc consts  --      0.0150                 0.0225                 0.0251
 IR Inten    --      0.1994                 0.5862                 0.6950

                     10                     11                     12
                      A                      A                      A
 Frequencies --    151.3042               168.1839               191.4385
 Red. masses --      2.1396                 3.2934                 3.5361
 Frc consts  --      0.0289                 0.0549                 0.0764
 IR Inten    --      1.9619                 0.2320                 2.8717

                     13                     14                     15
                      A                      A                      A
 Frequencies --    215.8594               224.7212               234.2439
 Red. masses --      2.3568                 1.7593                 1.3377
 Frc consts  --      0.0647                 0.0523                 0.0432
 IR Inten    --      1.1546                 1.5292                 0.5685

                     16                     17                     18
                      A                      A                      A
 Frequencies --    250.0727               251.2053               260.1295
 Red. masses --      1.3971                 1.1821                 2.0392
 Frc consts  --      0.0515                 0.0439                 0.0813
 IR Inten    --      1.9225                 0.0214                 2.9069

                     19                     20                     21
                      A                      A                      A
 Frequencies --    267.3371               276.9432               288.2987
 Red. masses --      1.2928                 1.7641                 2.4671
 Frc consts  --      0.0544                 0.0797                 0.1208
 IR Inten    --      1.6034                 1.4252                 1.0301

                     22                     23                     24
                      A                      A                      A
 Frequencies --    298.0074               310.2113               317.2381
 Red. masses --      1.4507                 1.7870                 2.6709
 Frc consts  --      0.0759                 0.1013                 0.1584
 IR Inten    --      0.2097                 0.2209                 0.6670

                     25                     26                     27
                      A                      A                      A
 Frequencies --    325.7469               333.9798               357.8388
 Red. masses --      2.3587                 2.5687                 2.0108
 Frc consts  --      0.1475                 0.1688                 0.1517
 IR Inten    --      0.0238                 0.8035                 2.2623

                     28                     29                     30
                      A                      A                      A
 Frequencies --    376.4160               387.9545               405.6137
 Red. masses --      2.4277                 2.0970                 1.4438
 Frc consts  --      0.2027                 0.1860                 0.1400
 IR Inten    --     12.8354                21.4351                62.7987

                     31                     32                     33
                      A                      A                      A
 Frequencies --    425.0141               443.0197               458.2973
 Red. masses --      1.8913                 2.7975                 2.6059
 Frc consts  --      0.2013                 0.3235                 0.3225
 IR Inten    --     22.4521                 0.0338                 0.5445

                     34                     35                     36
                      A                      A                      A
 Frequencies --    466.2304               482.6745               491.9147
 Red. masses --      2.3371                 2.0252                 2.3595
 Frc consts  --      0.2993                 0.2780                 0.3364
 IR Inten    --      0.6121                 2.5842                 0.5252

                     37                     38                     39
                      A                      A                      A
 Frequencies --    535.4090               539.3326               574.7813
 Red. masses --      3.1395                 2.7587                 3.0073
 Frc consts  --      0.5303                 0.4728                 0.5854
 IR Inten    --      6.8143                 0.1846                 3.5884

                     40                     41                     42
                      A                      A                      A
 Frequencies --    610.9339               683.3852               779.0426
 Red. masses --      3.5447                 2.6570                 5.4600
 Frc consts  --      0.7795                 0.7311                 1.9524
 IR Inten    --      3.7158                 0.4198                55.3175

                     43                     44                     45
                      A                      A                      A
 Frequencies --    787.6607               796.0271               809.4692
 Red. masses --      2.3229                 1.3925                 1.8013
 Frc consts  --      0.8491                 0.5199                 0.6954
 IR Inten    --      3.4085                25.4451                 0.1447

                     46                     47                     48
                      A                      A                      A
 Frequencies --    829.9589               860.7845               869.0196
 Red. masses --      2.3662                 1.9248                 2.0788
 Frc consts  --      0.9603                 0.8403                 0.9250
 IR Inten    --      0.5128                 1.9866                 3.7669

                     49                     50                     51
                      A                      A                      A
 Frequencies --    884.3710               896.1801               900.4167
 Red. masses --      1.4674                 2.1024                 1.7594
 Frc consts  --      0.6762                 0.9949                 0.8404
 IR Inten    --      0.7084                 0.6076                 3.1852

                     52                     53                     54
                      A                      A                      A
 Frequencies --    936.8094               941.3302               944.3028
 Red. masses --      1.9633                 5.8583                 1.6369
 Frc consts  --      1.0152                 3.0585                 0.8600
 IR Inten    --      1.3553                 8.2052                 0.6264

                     55                     56                     57
                      A                      A                      A
 Frequencies --    952.8475               966.9879               969.5321
 Red. masses --      1.8043                 1.5658                 1.5054
 Frc consts  --      0.9652                 0.8627                 0.8337
 IR Inten    --      1.2861                 3.7419                 4.5264

                     58                     59                     60
                      A                      A                      A
 Frequencies --    992.2006              1009.4152              1013.1485
 Red. masses --      2.4250                 1.5222                 2.3198
 Frc consts  --      1.4065                 0.9138                 1.4029
 IR Inten    --      7.8100                 4.5877                 4.7539

                     61                     62                     63
                      A                      A                      A
 Frequencies --   1017.9144              1029.7441              1041.1531
 Red. masses --      1.6462                 2.7355                 2.6063
 Frc consts  --      1.0050                 1.7090                 1.6646
 IR Inten    --      6.2707                 1.7146                 2.3452

                     64                     65                     66
                      A                      A                      A
 Frequencies --   1047.3646              1061.2192              1072.4772
 Red. masses --      2.5270                 1.9350                 2.1557
 Frc consts  --      1.6332                 1.2840                 1.4609
 IR Inten    --      2.3194                 1.1491                 0.7140

                     67                     68                     69
                      A                      A                      A
 Frequencies --   1078.2570              1091.1442              1108.5073
 Red. masses --      2.3537                 2.0018                 1.3938
 Frc consts  --      1.6123                 1.4042                 1.0091
 IR Inten    --      0.2904                 1.8719                 0.9761

                     70                     71                     72
                      A                      A                      A
 Frequencies --   1121.2114              1130.8549              1152.2531
 Red. masses --      2.1030                 1.9823                 2.0702
 Frc consts  --      1.5576                 1.4936                 1.6195
 IR Inten    --      3.6107                 3.0188                 0.6978

                     73                     74                     75
                      A                      A                      A
 Frequencies --   1160.0667              1170.0355              1178.7952
 Red. masses --      2.0404                 2.1167                 2.0777
 Frc consts  --      1.6178                 1.7073                 1.7010
 IR Inten    --      0.4137                 5.5923                 5.3156

                     76                     77                     78
                      A                      A                      A
 Frequencies --   1201.0888              1219.4033              1227.6574
 Red. masses --      1.6763                 1.5070                 2.1259
 Frc consts  --      1.4248                 1.3203                 1.8877
 IR Inten    --      0.4703                 8.7061                 9.7427

                     79                     80                     81
                      A                      A                      A
 Frequencies --   1245.5065              1252.9554              1255.6749
 Red. masses --      1.2795                 1.8040                 1.4942
 Frc consts  --      1.1694                 1.6686                 1.3881
 IR Inten    --      0.7365                 0.9269                 0.9292

                     82                     83                     84
                      A                      A                      A
 Frequencies --   1290.5999              1293.5436              1304.2018
 Red. masses --      1.2019                 1.2499                 1.2677
 Frc consts  --      1.1795                 1.2322                 1.2705
 IR Inten    --      0.2684                 0.5027                 2.0384

                     85                     86                     87
                      A                      A                      A
 Frequencies --   1311.4695              1313.7646              1338.5669
 Red. masses --      1.1778                 1.2131                 1.2538
 Frc consts  --      1.1935                 1.2336                 1.3236
 IR Inten    --      0.6607                 6.3663                 0.6870

                     88                     89                     90
                      A                      A                      A
 Frequencies --   1348.2039              1349.0852              1357.1375
 Red. masses --      1.2914                 1.2426                 1.2814
 Frc consts  --      1.3830                 1.3325                 1.3905
 IR Inten    --      1.2120                 3.7053                 1.0226

                     91                     92                     93
                      A                      A                      A
 Frequencies --   1366.4888              1372.4751              1376.9944
 Red. masses --      1.3260                 1.3943                 1.3697
 Frc consts  --      1.4589                 1.5475                 1.5302
 IR Inten    --      1.4013                 0.8489                 1.0677

                     94                     95                     96
                      A                      A                      A
 Frequencies --   1379.5932              1384.3302              1387.5279
 Red. masses --      1.3852                 1.4439                 1.4005
 Frc consts  --      1.5533                 1.6304                 1.5886
 IR Inten    --      0.6199                 0.1101                 0.9267

                     97                     98                     99
                      A                      A                      A
 Frequencies --   1388.9526              1400.1470              1402.0821
 Red. masses --      1.3860                 1.2462                 1.1159
 Frc consts  --      1.5753                 1.4395                 1.2924
 IR Inten    --      1.2140                 6.9173                41.1191

                    100                    101                    102
                      A                      A                      A
 Frequencies --   1405.7122              1408.9664              1412.1685
 Red. masses --      1.3632                 1.2655                 1.3419
 Frc consts  --      1.5870                 1.4802                 1.5766
 IR Inten    --      2.4034                 3.8850                 2.6222

                    103                    104                    105
                      A                      A                      A
 Frequencies --   1417.9702              1420.5710              1428.2032
 Red. masses --      1.2267                 1.2623                 1.2231
 Frc consts  --      1.4532                 1.5009                 1.4699
 IR Inten    --      4.5524                 2.4670                 7.1687

                    106                    107                    108
                      A                      A                      A
 Frequencies --   1480.7895              1483.8024              1484.6967
 Red. masses --      1.0774                 1.0731                 1.0663
 Frc consts  --      1.3919                 1.3921                 1.3849
 IR Inten    --      1.0725                 0.3360                 2.3216

                    109                    110                    111
                      A                      A                      A
 Frequencies --   1485.1593              1486.2134              1490.4179
 Red. masses --      1.0641                 1.0545                 1.0785
 Frc consts  --      1.3829                 1.3723                 1.4115
 IR Inten    --      0.1940                 1.1615                 3.0294

                    112                    113                    114
                      A                      A                      A
 Frequencies --   1496.2552              1496.8863              1499.5577
 Red. masses --      1.0621                 1.0561                 1.0555
 Frc consts  --      1.4010                 1.3943                 1.3984
 IR Inten    --      1.7387                 4.4177                 0.1677

                    115                    116                    117
                      A                      A                      A
 Frequencies --   1502.0923              1503.8045              1506.4933
 Red. masses --      1.0608                 1.0622                 1.0702
 Frc consts  --      1.4102                 1.4152                 1.4310
 IR Inten    --      7.6041                 2.1158                 4.6996

                    118                    119                    120
                      A                      A                      A
 Frequencies --   1507.9571              1510.3625              1512.6158
 Red. masses --      1.0659                 1.0476                 1.0584
 Frc consts  --      1.4281                 1.4080                 1.4268
 IR Inten    --      5.1441                 6.1731                13.3454

                    121                    122                    123
                      A                      A                      A
 Frequencies --   1514.9490              1525.8339              2968.1395
 Red. masses --      1.0631                 1.0685                 1.0792
 Frc consts  --      1.4375                 1.4657                 5.6017
 IR Inten    --      2.6348                10.8403                 0.6946

                    124                    125                    126
                      A                      A                      A
 Frequencies --   2978.9042              2994.6578              2998.5878
 Red. masses --      1.0815                 1.0745                 1.0766
 Frc consts  --      5.6545                 5.6773                 5.7035
 IR Inten    --     13.0301                 8.0108                28.0902

                    127                    128                    129
                      A                      A                      A
 Frequencies --   3003.7858              3005.6615              3015.4739
 Red. masses --      1.0735                 1.0641                 1.0604
 Frc consts  --      5.7067                 5.6641                 5.6812
 IR Inten    --     13.0680                 8.4416                18.2550

                    130                    131                    132
                      A                      A                      A
 Frequencies --   3015.9659              3020.2052              3023.8380
 Red. masses --      1.0743                 1.0594                 1.0574
 Frc consts  --      5.7572                 5.6937                 5.6966
 IR Inten    --     19.5164                15.5988                 6.1126

                    133                    134                    135
                      A                      A                      A
 Frequencies --   3025.8062              3029.5777              3031.6180
 Red. masses --      1.0460                 1.0387                 1.0441
 Frc consts  --      5.6423                 5.6170                 5.6537
 IR Inten    --     56.4079                13.7814                19.3711

                    136                    137                    138
                      A                      A                      A
 Frequencies --   3035.1301              3035.4984              3036.6111
 Red. masses --      1.0384                 1.0575                 1.0434
 Frc consts  --      5.6361                 5.7410                 5.6684
 IR Inten    --     41.2023                29.1062                12.7075

                    139                    140                    141
                      A                      A                      A
 Frequencies --   3046.6923              3047.2842              3054.7049
 Red. masses --      1.0939                 1.1018                 1.1003
 Frc consts  --      5.9824                 6.0280                 6.0493
 IR Inten    --     35.8828                39.8115                37.7250

                    142                    143                    144
                      A                      A                      A
 Frequencies --   3067.3465              3080.1488              3087.4791
 Red. masses --      1.0928                 1.0933                 1.1012
 Frc consts  --      6.0577                 6.1112                 6.1846
 IR Inten    --     53.6911                34.7578                12.8666

                    145                    146                    147
                      A                      A                      A
 Frequencies --   3089.3760              3092.0421              3092.3822
 Red. masses --      1.0972                 1.1002                 1.0979
 Frc consts  --      6.1699                 6.1972                 6.1856
 IR Inten    --     16.2313                17.9623                66.6208

                    148                    149                    150
                      A                      A                      A
 Frequencies --   3095.6986              3098.3835              3098.7559
 Red. masses --      1.1010                 1.1008                 1.1015
 Frc consts  --      6.2168                 6.2261                 6.2317
 IR Inten    --     54.2328                26.9668                39.9596

                    151                    152                    153
                      A                      A                      A
 Frequencies --   3103.1491              3105.7120              3108.1487
 Red. masses --      1.0934                 1.1002                 1.0992
 Frc consts  --      6.2037                 6.2525                 6.2565
 IR Inten    --     32.7910                11.6907                65.5516

                    154                    155                    156
                      A                      A                      A
 Frequencies --   3118.6923              3123.6919              3716.5212
 Red. masses --      1.0988                 1.0995                 1.0685
 Frc consts  --      6.2970                 6.3207                 8.6953
 IR Inten    --     33.3112                26.0189                35.7254

 - Thermochemistry -
 -------------------
 Temperature   298.150 Kelvin.  Pressure   1.00000 Atm.
 Atom     1 has atomic number  6 and mass  12.00000

 Molecular mass:   286.25080 amu.
 Principal axes and moments of inertia in atomic units:
                           1         2         3
     Eigenvalues --  2211.59562********************
           X            0.99996  -0.00808  -0.00280
           Y            0.00808   0.99996  -0.00278
           Z            0.00282   0.00275   0.99999
 This molecule is an asymmetric top.
 Rotational symmetry number  1.
 Warning -- assumption of classical behavior for rotation
           may cause significant error
 Rotational temperatures (Kelvin)      0.03916     0.00506     0.00475
 Rotational constants (GHZ):           0.81604     0.10536     0.09906
 Zero-point vibrational energy    1291939.4 (Joules/Mol)
                                  308.78094 (Kcal/Mol)
 Warning -- explicit consideration of  40 degrees of freedom as
           vibrations may cause significant error
 Vibrational temperatures:     29.99    34.38    47.17    76.79   104.73
          (Kelvin)            112.93   128.33   151.74   172.26   217.69
                              241.98   275.44   310.57   323.32   337.02
                              359.80   361.43   374.27   384.64   398.46
                              414.80   428.77   446.32   456.43   468.68
                              480.52   514.85   541.58   558.18   583.59
                              611.50   637.41   659.39   670.80   694.46
                              707.76   770.33   775.98   826.98   879.00
                              983.24  1120.87  1133.27  1145.31  1164.65
                             1194.13  1238.48  1250.33  1272.41  1289.40
                             1295.50  1347.86  1354.36  1358.64  1370.93
                             1391.28  1394.94  1427.56  1452.32  1457.69
                             1464.55  1481.57  1497.99  1506.92  1526.86
                             1543.06  1551.37  1569.91  1594.89  1613.17
                             1627.05  1657.84  1669.08  1683.42  1696.02
                             1728.10  1754.45  1766.33  1792.01  1802.72
                             1806.64  1856.89  1861.12  1876.46  1886.91
                             1890.21  1925.90  1939.76  1941.03  1952.62
                             1966.07  1974.69  1981.19  1984.93  1991.74
                             1996.34  1998.39  2014.50  2017.28  2022.51
                             2027.19  2031.80  2040.14  2043.88  2054.87
                             2130.53  2134.86  2136.15  2136.81  2138.33
                             2144.38  2152.78  2153.69  2157.53  2161.18
                             2163.64  2167.51  2169.61  2173.07  2176.32
                             2179.67  2195.33  4270.49  4285.98  4308.64
                             4314.30  4321.78  4324.48  4338.59  4339.30
                             4345.40  4350.63  4353.46  4358.89  4361.82
                             4366.88  4367.41  4369.01  4383.51  4384.36
                             4395.04  4413.23  4431.65  4442.19  4444.92
                             4448.76  4449.25  4454.02  4457.88  4458.42
                             4464.74  4468.43  4471.93  4487.10  4494.30
                             5347.25

 Zero-point correction=                           0.492074 (Hartree/Particle)
 Thermal correction to Energy=                    0.515824
 Thermal correction to Enthalpy=                  0.516768
 Thermal correction to Gibbs Free Energy=         0.438710
 Sum of electronic and zero-point Energies=           -893.367085
 Sum of electronic and thermal Energies=              -893.343335
 Sum of electronic and thermal Enthalpies=            -893.342391
 Sum of electronic and thermal Free Energies=         -893.420449

                     E (Thermal)             CV                S
                      KCal/Mol        Cal/Mol-Kelvin    Cal/Mol-Kelvin
 Total                  323.684             91.761            164.287
 Electronic               0.000              0.000              0.000
 Translational            0.889              2.981             42.853
 Rotational               0.889              2.981             34.889
 Vibrational            321.907             85.800             86.546
 Vibration     1          0.593              1.986              6.552
 Vibration     2          0.593              1.985              6.281
 Vibration     3          0.594              1.983              5.653
 Vibration     4          0.596              1.976              4.688
 Vibration     5          0.599              1.967              4.077
 Vibration     6          0.600              1.964              3.928
 Vibration     7          0.602              1.957              3.678
 Vibration     8          0.605              1.945              3.351
 Vibration     9          0.609              1.933              3.105
 Vibration    10          0.619              1.901              2.656
 Vibration    11          0.625              1.882              2.456
 Vibration    12          0.634              1.852              2.214
 Vibration    13          0.645              1.817              1.994
 Vibration    14          0.649              1.803              1.921
 Vibration    15          0.654              1.788              1.846
 Vibration    16          0.663              1.763              1.730
 Vibration    17          0.663              1.761              1.722
 Vibration    18          0.668              1.746              1.661
 Vibration    19          0.672              1.733              1.613
 Vibration    20          0.678              1.716              1.552
 Vibration    21          0.685              1.695              1.484
 Vibration    22          0.691              1.677              1.428
 Vibration    23          0.699              1.654              1.361
 Vibration    24          0.704              1.641              1.324
 Vibration    25          0.710              1.624              1.281
 Vibration    26          0.716              1.608              1.241
 Vibration    27          0.733              1.559              1.131
 Vibration    28          0.747              1.520              1.054
 Vibration    29          0.756              1.496              1.008
 Vibration    30          0.771              1.458              0.942
 Vibration    31          0.787              1.416              0.875
 Vibration    32          0.803              1.376              0.817
 Vibration    33          0.816              1.343              0.771
 Vibration    34          0.824              1.325              0.748
 Vibration    35          0.839              1.288              0.703
 Vibration    36          0.848              1.268              0.679
 Vibration    37          0.890              1.172              0.575
 Vibration    38          0.894              1.163              0.567
 Vibration    39          0.931              1.086              0.495
 Vibration    40          0.970              1.009              0.431

                           ! Non-Optimized Parameters !
 Normal termination of Gaussian 16 at Tue May 23 06:10:49 2023.
