 Gaussian 16, Revision A.03,
 Gaussian 16:  ES64L-G16RevA.03 25-Dec-2016

 -----------------------------
 # opt freq b3lyp/6-31g(2df,p)
 -----------------------------

 -------------------
 Title Card Required
 -------------------
 Symbolic Z-matrix:
 Charge =  0 Multiplicity = 1

 SCF Done:  E(RB3LYP) =  -600.845812368     A.U. after   13 cycles
 SCF Done:  E(RB3LYP) =  -600.865359215     A.U. after   11 cycles
 SCF Done:  E(RB3LYP) =  -600.872094822     A.U. after   11 cycles
 SCF Done:  E(RB3LYP) =  -600.875139846     A.U. after   11 cycles
 SCF Done:  E(RB3LYP) =  -600.878218213     A.U. after   12 cycles
 SCF Done:  E(RB3LYP) =  -600.880424291     A.U. after   12 cycles
 SCF Done:  E(RB3LYP) =  -600.882824341     A.U. after   14 cycles
 SCF Done:  E(RB3LYP) =  -600.882917420     A.U. after   12 cycles
 SCF Done:  E(RB3LYP) =  -600.883457804     A.U. after   12 cycles
 SCF Done:  E(RB3LYP) =  -600.883488988     A.U. after   12 cycles
 SCF Done:  E(RB3LYP) =  -600.883535002     A.U. after   10 cycles
 SCF Done:  E(RB3LYP) =  -600.883539267     A.U. after    9 cycles
 SCF Done:  E(RB3LYP) =  -600.883541460     A.U. after    8 cycles
 SCF Done:  E(RB3LYP) =  -600.883541874     A.U. after    7 cycles
 SCF Done:  E(RB3LYP) =  -600.883541981     A.U. after    7 cycles
 SCF Done:  E(RB3LYP) =  -600.883541993     A.U. after    6 cycles
 Optimization completed.
    -- Stationary point found.
 Normal termination of Gaussian 16 at Sun May 28 10:30:16 2023.

 ----------------------------------------------------------------------
 #N Geom=AllCheck Guess=TCheck SCRF=Check GenChk RB3LYP/6-31G(2df,p) Fr
 eq
 ----------------------------------------------------------------------

 Structure from the checkpoint file:  "CCCqNrCdCC1CC2dCCdCCC2C1.chk"
 -------------------
 Title Card Required
 -------------------
 Charge =  0 Multiplicity = 1

                         Standard orientation:
 ---------------------------------------------------------------------
 Center     Atomic      Atomic             Coordinates (Angstroms)
 Number     Number       Type             X           Y           Z
 ---------------------------------------------------------------------
      1          6           0        5.627615    0.924859    0.915878
      2          6           0        4.107642    0.947868    0.739078
      3          6           0        3.586720    0.004544   -0.373574
      4          7           0        3.895765   -1.414421   -0.173183
      5          6           0        2.102805    0.212409   -0.570970
      6          6           0        1.195399   -0.751549   -0.711049
      7          6           0       -0.284596   -0.579541   -0.894821
      8          6           0       -0.858822    0.852818   -0.787555
      9          6           0       -2.307471    0.650666   -0.407448
     10          6           0       -3.304836    1.537101   -0.308727
     11          6           0       -4.617270    1.097455    0.173451
     12          6           0       -4.769079   -0.078296    0.800168
     13          6           0       -3.578051   -0.984598    1.036514
     14          6           0       -2.555694   -0.816471   -0.088761
     15          6           0       -1.142684   -1.382748    0.118802
     16          1           0        5.945328    1.627210    1.692373
     17          1           0        6.138993    1.203133   -0.013065
     18          1           0        5.986261   -0.067571    1.209095
     19          1           0        3.786226    1.971898    0.508327
     20          1           0        3.614980    0.678313    1.683436
     21          1           0        4.094462    0.300215   -1.306464
     22          1           0        3.543657   -1.713499    0.733398
     23          1           0        4.900570   -1.553329   -0.154433
     24          1           0        1.796298    1.256526   -0.593880
     25          1           0        1.546594   -1.781934   -0.714763
     26          1           0       -0.541093   -0.969886   -1.892652
     27          1           0       -0.725719    1.438450   -1.702863
     28          1           0       -0.339890    1.398482    0.012714
     29          1           0       -3.164120    2.583693   -0.565304
     30          1           0       -5.463832    1.765826    0.044842
     31          1           0       -5.734736   -0.374418    1.198341
     32          1           0       -3.892932   -2.030539    1.117263
     33          1           0       -3.117128   -0.727307    2.005741
     34          1           0       -2.980411   -1.276374   -0.998713
     35          1           0       -1.077196   -2.463764   -0.036347
     36          1           0       -0.796741   -1.171278    1.139323
 ---------------------------------------------------------------------

 SCF Done:  E(RB3LYP) =  -600.883541993     A.U. after    1 cycles

 The electronic state is 1-A.
 Alpha  occ. eigenvalues --  -14.30625 -10.20992 -10.18531 -10.18042 -10.17879
 Alpha  occ. eigenvalues --  -10.17830 -10.17790 -10.17701 -10.17629 -10.17528
 Alpha  occ. eigenvalues --  -10.17266 -10.17164 -10.16988 -10.16891 -10.16631
 Alpha  occ. eigenvalues --   -0.88480  -0.85434  -0.80338  -0.76814  -0.75289
 Alpha  occ. eigenvalues --   -0.74498  -0.70533  -0.67929  -0.66107  -0.60963
 Alpha  occ. eigenvalues --   -0.58494  -0.57088  -0.55655  -0.52170  -0.49954
 Alpha  occ. eigenvalues --   -0.49551  -0.47979  -0.45697  -0.44762  -0.44364
 Alpha  occ. eigenvalues --   -0.42789  -0.42382  -0.41890  -0.39895  -0.39186
 Alpha  occ. eigenvalues --   -0.38471  -0.38164  -0.36758  -0.36253  -0.35733
 Alpha  occ. eigenvalues --   -0.34933  -0.33689  -0.33054  -0.32426  -0.31433
 Alpha  occ. eigenvalues --   -0.30798  -0.30099  -0.28959  -0.24196  -0.23020
 Alpha  occ. eigenvalues --   -0.19748
 Alpha virt. eigenvalues --   -0.01359   0.03082   0.07737   0.07830   0.10604
 Alpha virt. eigenvalues --    0.11239   0.11355   0.12316   0.13310   0.13640
 Alpha virt. eigenvalues --    0.14142   0.14811   0.15576   0.16089   0.16157

 Mulliken charges:
               1
     1  C   -0.392776
     2  C   -0.163957
     3  C   -0.009589
     4  N   -0.508884
     5  C   -0.066461
     6  C   -0.089789
     7  C   -0.027893
     8  C   -0.354806
     9  C    0.363159
    10  C   -0.262637
    11  C   -0.043923
    12  C   -0.109284
    13  C   -0.285150
    14  C   -0.053480
    15  C   -0.249595
    16  H    0.115436
    17  H    0.114534
    18  H    0.106537
    19  H    0.093671
    20  H    0.091396
    21  H    0.086800
    22  H    0.220880
    23  H    0.226907
    24  H    0.078481
    25  H    0.096725
    26  H    0.083998
    27  H    0.109841
    28  H    0.114313
    29  H    0.077071
    30  H    0.082927
    31  H    0.086182
    32  H    0.099208
    33  H    0.100994
    34  H    0.080478
    35  H    0.094121
    36  H    0.094565
 Sum of Mulliken charges =  -0.00000

 Dipole moment (field-independent basis, Debye):
    X=              1.2240    Y=              0.1242    Z=              0.7994  Tot=              1.4672
 Quadrupole moment (field-independent basis, Debye-Ang):
   XX=            -87.3829   YY=            -90.5768   ZZ=            -93.2735
   XY=              2.3020   XZ=              2.5196   YZ=             -3.0389

  Exact polarizability: 213.258   2.489 146.355  -7.080  -7.591 113.135
 Approx polarizability: 256.433   9.046 237.005 -12.863 -14.200 183.596

                      1                      2                      3
                      A                      A                      A
 Frequencies --     31.4288                40.8537                66.6914
 Red. masses --      3.2271                 3.6704                 3.0811
 Frc consts  --      0.0019                 0.0036                 0.0081
 IR Inten    --      0.2231                 0.1470                 0.0007

                      4                      5                      6
                      A                      A                      A
 Frequencies --     88.3952               117.1914               139.4691
 Red. masses --      2.7005                 2.6684                 2.3147
 Frc consts  --      0.0124                 0.0216                 0.0265
 IR Inten    --      0.0852                 0.5739                 0.1055

                      7                      8                      9
                      A                      A                      A
 Frequencies --    175.4155               198.0161               219.0486
 Red. masses --      2.5985                 2.7687                 2.1685
 Frc consts  --      0.0471                 0.0640                 0.0613
 IR Inten    --      0.1861                 0.1329                 2.6935

                     10                     11                     12
                      A                      A                      A
 Frequencies --    234.4498               261.6388               281.5088
 Red. masses --      1.2826                 1.7317                 3.1465
 Frc consts  --      0.0415                 0.0698                 0.1469
 IR Inten    --      2.7458                19.0845                 0.8998

                     13                     14                     15
                      A                      A                      A
 Frequencies --    300.3167               324.5529               384.8933
 Red. masses --      1.6582                 2.1786                 3.0973
 Frc consts  --      0.0881                 0.1352                 0.2703
 IR Inten    --     26.8520                 1.7191                 4.1466

                     16                     17                     18
                      A                      A                      A
 Frequencies --    422.4118               452.1771               475.4811
 Red. masses --      2.3352                 2.7793                 2.6575
 Frc consts  --      0.2455                 0.3348                 0.3540
 IR Inten    --      0.0847                 9.6220                 1.4931

                     19                     20                     21
                      A                      A                      A
 Frequencies --    488.7943               494.0084               529.3356
 Red. masses --      3.0324                 2.8181                 3.4753
 Frc consts  --      0.4269                 0.4052                 0.5737
 IR Inten    --      0.3782                 1.0032                 1.7099

                     22                     23                     24
                      A                      A                      A
 Frequencies --    568.0518               583.5450               694.8485
 Red. masses --      3.6198                 2.4973                 2.6914
 Frc consts  --      0.6882                 0.5010                 0.7656
 IR Inten    --      4.2744                 2.5127                 4.8826

                     25                     26                     27
                      A                      A                      A
 Frequencies --    729.5668               758.6680               783.2033
 Red. masses --      1.3433                 2.6338                 1.4930
 Frc consts  --      0.4213                 0.8932                 0.5396
 IR Inten    --     32.0781                 1.7933                 1.5985

                     28                     29                     30
                      A                      A                      A
 Frequencies --    798.8807               810.5226               848.1670
 Red. masses --      2.3727                 2.1351                 2.3480
 Frc consts  --      0.8922                 0.8264                 0.9952
 IR Inten    --     11.3433                14.0951                30.5748

                     31                     32                     33
                      A                      A                      A
 Frequencies --    864.6821               879.0481               899.2768
 Red. masses --      1.7287                 2.0069                 1.4353
 Frc consts  --      0.7615                 0.9137                 0.6839
 IR Inten    --      9.6498                10.4927                 3.5308

                     34                     35                     36
                      A                      A                      A
 Frequencies --    918.0037               937.9785               945.7276
 Red. masses --      1.5242                 2.5598                 2.3052
 Frc consts  --      0.7568                 1.3269                 1.2147
 IR Inten    --     72.4974                 7.7490                11.9796

                     37                     38                     39
                      A                      A                      A
 Frequencies --    961.4059               980.6376              1000.6487
 Red. masses --      1.7262                 1.3100                 2.3495
 Frc consts  --      0.9401                 0.7422                 1.3861
 IR Inten    --      1.9167                 0.1206                 0.5072

                     40                     41                     42
                      A                      A                      A
 Frequencies --   1011.2260              1032.4582              1037.8126
 Red. masses --      1.6281                 1.6424                 1.1166
 Frc consts  --      0.9809                 1.0315                 0.7086
 IR Inten    --      0.6777                 6.4093                17.1393

                     43                     44                     45
                      A                      A                      A
 Frequencies --   1052.9066              1064.1348              1077.2299
 Red. masses --      2.1635                 2.4973                 2.0670
 Frc consts  --      1.4132                 1.6662                 1.4132
 IR Inten    --      4.2469                 1.4502                 7.1415

                     46                     47                     48
                      A                      A                      A
 Frequencies --   1086.6384              1097.2172              1129.1297
 Red. masses --      2.5840                 1.9690                 2.0128
 Frc consts  --      1.7977                 1.3966                 1.5119
 IR Inten    --      0.6896                 4.4980                 3.4282

                     49                     50                     51
                      A                      A                      A
 Frequencies --   1134.9516              1152.2502              1156.5125
 Red. masses --      1.6856                 1.4560                 1.4813
 Frc consts  --      1.2792                 1.1389                 1.1674
 IR Inten    --      1.3932                 3.6537                 0.8258

                     52                     53                     54
                      A                      A                      A
 Frequencies --   1200.1389              1204.4783              1212.7727
 Red. masses --      1.5332                 1.3524                 1.6007
 Frc consts  --      1.3011                 1.1560                 1.3872
 IR Inten    --     10.7131                 3.5985                10.1134

                     55                     56                     57
                      A                      A                      A
 Frequencies --   1230.0283              1259.9581              1262.3118
 Red. masses --      1.5041                 1.4548                 1.2662
 Frc consts  --      1.3408                 1.3607                 1.1887
 IR Inten    --      2.4108                 6.7088                 1.2425

                     58                     59                     60
                      A                      A                      A
 Frequencies --   1281.4588              1294.6134              1309.7575
 Red. masses --      1.3419                 1.2110                 1.3260
 Frc consts  --      1.2983                 1.1959                 1.3402
 IR Inten    --     11.5806                 0.2713                 2.0477

                     61                     62                     63
                      A                      A                      A
 Frequencies --   1319.0153              1322.0015              1338.2803
 Red. masses --      1.2673                 1.3194                 1.3880
 Frc consts  --      1.2991                 1.3586                 1.4646
 IR Inten    --      0.9473                 0.4865                 3.4970

                     64                     65                     66
                      A                      A                      A
 Frequencies --   1351.3378              1359.4702              1366.7339
 Red. masses --      1.2790                 1.6717                 1.4083
 Frc consts  --      1.3761                 1.8203                 1.5500
 IR Inten    --      3.1852                16.1918                 1.1917

                     67                     68                     69
                      A                      A                      A
 Frequencies --   1375.7249              1383.1993              1401.9353
 Red. masses --      1.6801                 1.6886                 1.2766
 Frc consts  --      1.8734                 1.9035                 1.4783
 IR Inten    --      3.7686                 0.3699                 8.2749

                     70                     71                     72
                      A                      A                      A
 Frequencies --   1414.0953              1417.6698              1472.2583
 Red. masses --      1.6559                 1.3650                 1.0967
 Frc consts  --      1.9509                 1.6163                 1.4006
 IR Inten    --      0.3084                 3.6190                 1.6130

                     73                     74                     75
                      A                      A                      A
 Frequencies --   1472.9667              1481.3762              1497.1883
 Red. masses --      1.0865                 1.0772                 1.0986
 Frc consts  --      1.3889                 1.3927                 1.4510
 IR Inten    --      1.0896                 0.7899                 2.7083

                     76                     77                     78
                      A                      A                      A
 Frequencies --   1499.4154              1507.5883              1647.8696
 Red. masses --      1.0475                 1.0531                 1.1036
 Frc consts  --      1.3876                 1.4102                 1.7657
 IR Inten    --      5.0819                 3.8925                25.1037

                     79                     80                     81
                      A                      A                      A
 Frequencies --   1650.3263              1722.6875              1736.5804
 Red. masses --      7.6768                 6.8810                 6.1922
 Frc consts  --     12.3189                12.0314                11.0023
 IR Inten    --      7.9052                 5.3004                 2.4222

                     82                     83                     84
                      A                      A                      A
 Frequencies --   2939.3407              2963.7048              2968.9807
 Red. masses --      1.0787                 1.0725                 1.0811
 Frc consts  --      5.4910                 5.5501                 5.6150
 IR Inten    --     10.6963                40.4703                27.3383

                     85                     86                     87
                      A                      A                      A
 Frequencies --   2972.6963              3010.1894              3010.7804
 Red. masses --      1.0809                 1.0665                 1.0601
 Frc consts  --      5.6276                 5.6939                 5.6620
 IR Inten    --     20.2702                17.8138                27.0485

                     88                     89                     90
                      A                      A                      A
 Frequencies --   3024.3034              3028.3870              3046.8920
 Red. masses --      1.0640                 1.0365                 1.1012
 Frc consts  --      5.7337                 5.6010                 6.0232
 IR Inten    --     34.6062                33.8985                19.6127

                     91                     92                     93
                      A                      A                      A
 Frequencies --   3060.0371              3068.0835              3085.4582
 Red. masses --      1.0884                 1.0944                 1.0999
 Frc consts  --      6.0047                 6.0695                 6.1695
 IR Inten    --     25.4822                21.8106                37.5438

                     94                     95                     96
                      A                      A                      A
 Frequencies --   3093.4854              3102.4859              3142.9808
 Red. masses --      1.1014                 1.1001                 1.0894
 Frc consts  --      6.2101                 6.2388                 6.3407
 IR Inten    --     43.5126                29.0643                 7.3835

                     97                     98                     99
                      A                      A                      A
 Frequencies --   3148.7917              3153.0851              3163.7682
 Red. masses --      1.0848                 1.0855                 1.0881
 Frc consts  --      6.3368                 6.3585                 6.4172
 IR Inten    --     18.0091                 8.1530                22.3395

                    100                    101                    102
                      A                      A                      A
 Frequencies --   3183.0472              3481.4364              3572.6255
 Red. masses --      1.0978                 1.0505                 1.0903
 Frc consts  --      6.5535                 7.5018                 8.1995
 IR Inten    --     41.5625                 0.5287                 0.1973

 - Thermochemistry -
 -------------------
 Temperature   298.150 Kelvin.  Pressure   1.00000 Atm.
 Atom     1 has atomic number  6 and mass  12.00000

 Molecular mass:   203.16740 amu.
 Principal axes and moments of inertia in atomic units:
                           1         2         3
     Eigenvalues --  1084.783828582.882998978.30051
           X            0.99997   0.00694   0.00356
           Y           -0.00687   0.99979  -0.01927
           Z           -0.00369   0.01924   0.99981
 This molecule is an asymmetric top.
 Rotational symmetry number  1.
 Warning -- assumption of classical behavior for rotation
           may cause significant error
 Rotational temperatures (Kelvin)      0.07984     0.01009     0.00965
 Rotational constants (GHZ):           1.66369     0.21027     0.20101
 Zero-point vibrational energy     842979.7 (Joules/Mol)
                                  201.47699 (Kcal/Mol)
 Warning -- explicit consideration of  23 degrees of freedom as
           vibrations may cause significant error
 Vibrational temperatures:     45.22    58.78    95.95   127.18   168.61
          (Kelvin)            200.66   252.38   284.90   315.16   337.32
                              376.44   405.03   432.09   466.96   553.78
                              607.76   650.58   684.11   703.27   710.77
                              761.60   817.30   839.59   999.73  1049.68
                             1091.55  1126.85  1149.41  1166.16  1220.32
                             1244.08  1264.75  1293.86  1320.80  1349.54
                             1360.69  1383.25  1410.92  1439.71  1454.93
                             1485.48  1493.18  1514.90  1531.05  1549.89
                             1563.43  1578.65  1624.57  1632.94  1657.83
                             1663.96  1726.73  1732.98  1744.91  1769.74
                             1812.80  1816.19  1843.73  1862.66  1884.45
                             1897.77  1902.07  1925.49  1944.27  1955.97
                             1966.43  1979.36  1990.12  2017.07  2034.57
                             2039.71  2118.25  2119.27  2131.37  2154.12
                             2157.32  2169.08  2370.92  2374.45  2478.56
                             2498.55  4229.06  4264.11  4271.70  4277.05
                             4330.99  4331.84  4351.30  4357.17  4383.80
                             4402.71  4414.29  4439.29  4450.84  4463.79
                             4522.05  4530.41  4536.59  4551.96  4579.69
                             5009.01  5140.21

 Zero-point correction=                           0.321074 (Hartree/Particle)
 Thermal correction to Energy=                    0.336241
 Thermal correction to Enthalpy=                  0.337185
 Thermal correction to Gibbs Free Energy=         0.278158
 Sum of electronic and zero-point Energies=           -600.562468
 Sum of electronic and thermal Energies=              -600.547301
 Sum of electronic and thermal Enthalpies=            -600.546357
 Sum of electronic and thermal Free Energies=         -600.605384

                     E (Thermal)             CV                S
                      KCal/Mol        Cal/Mol-Kelvin    Cal/Mol-Kelvin
 Total                  210.994             59.303            124.232
 Electronic               0.000              0.000              0.000
 Translational            0.889              2.981             41.831
 Rotational               0.889              2.981             32.791
 Vibrational            209.217             53.341             49.610
 Vibration     1          0.594              1.983              5.737
 Vibration     2          0.594              1.981              5.217
 Vibration     3          0.598              1.970              4.249
 Vibration     4          0.601              1.957              3.695
 Vibration     5          0.608              1.935              3.146
 Vibration     6          0.615              1.914              2.811
 Vibration     7          0.627              1.873              2.377
 Vibration     8          0.637              1.843              2.151
 Vibration     9          0.647              1.812              1.967
 Vibration    10          0.654              1.788              1.845
 Vibration    11          0.669              1.743              1.651
 Vibration    12          0.681              1.708              1.524
 Vibration    13          0.693              1.673              1.415
 Vibration    14          0.709              1.626              1.287
 Vibration    15          0.754              1.502              1.020
 Vibration    16          0.785              1.422              0.884
 Vibration    17          0.811              1.356              0.789
 Vibration    18          0.832              1.304              0.722
 Vibration    19          0.845              1.275              0.687
 Vibration    20          0.850              1.263              0.673
 Vibration    21          0.884              1.185              0.589
 Vibration    22          0.924              1.100              0.508
 Vibration    23          0.940              1.067              0.479

 Optimization completed.
    -- Stationary point found.
 Normal termination of Gaussian 16 at Sun May 28 13:11:34 2023.
