 Gaussian 16, Revision A.03,
 Gaussian 16:  ES64L-G16RevA.03 25-Dec-2016

 -----------------------------
 # opt freq b3lyp/6-31g(2df,p)
 -----------------------------

 -------------------
 Title Card Required
 -------------------
 Symbolic Z-matrix:
 Charge =  0 Multiplicity = 1

 SCF Done:  E(RB3LYP) =  -737.874520473     A.U. after   13 cycles
 SCF Done:  E(RB3LYP) =  -737.885596846     A.U. after   12 cycles
 SCF Done:  E(RB3LYP) =  -737.890591493     A.U. after   11 cycles
 SCF Done:  E(RB3LYP) =  -737.893136204     A.U. after   11 cycles
 SCF Done:  E(RB3LYP) =  -737.896339467     A.U. after   14 cycles
 SCF Done:  E(RB3LYP) =  -737.898262135     A.U. after   11 cycles
 SCF Done:  E(RB3LYP) =  -737.898777897     A.U. after   12 cycles
 SCF Done:  E(RB3LYP) =  -737.900155153     A.U. after   12 cycles
 SCF Done:  E(RB3LYP) =  -737.900421813     A.U. after   10 cycles
 SCF Done:  E(RB3LYP) =  -737.900532667     A.U. after    9 cycles
 SCF Done:  E(RB3LYP) =  -737.900818987     A.U. after   10 cycles
 SCF Done:  E(RB3LYP) =  -737.900874593     A.U. after   10 cycles
 SCF Done:  E(RB3LYP) =  -737.900907449     A.U. after   11 cycles
 SCF Done:  E(RB3LYP) =  -737.900928181     A.U. after   10 cycles
 SCF Done:  E(RB3LYP) =  -737.900949426     A.U. after    9 cycles
 SCF Done:  E(RB3LYP) =  -737.900951835     A.U. after    9 cycles
 SCF Done:  E(RB3LYP) =  -737.900952302     A.U. after    7 cycles
 SCF Done:  E(RB3LYP) =  -737.900952338     A.U. after    7 cycles
 SCF Done:  E(RB3LYP) =  -737.900952384     A.U. after    7 cycles
 Optimization completed.
    -- Stationary point found.
 Normal termination of Gaussian 16 at Mon May 22 12:38:15 2023.

 ----------------------------------------------------------------------
 #N Geom=AllCheck Guess=TCheck SCRF=Check GenChk RB3LYP/6-31G(2df,p) Fr
 eq
 ----------------------------------------------------------------------

 Structure from the checkpoint file:  "CCCqOCCCCqCrCrOOCCqCrC.chk"
 -------------------
 Title Card Required
 -------------------
 Charge =  0 Multiplicity = 1

                         Standard orientation:
 ---------------------------------------------------------------------
 Center     Atomic      Atomic             Coordinates (Angstroms)
 Number     Number       Type             X           Y           Z
 ---------------------------------------------------------------------
      1          6           0        0.585059    4.401563    0.376693
      2          6           0        1.619689    3.415920   -0.169183
      3          6           0        1.314080    1.969573    0.218434
      4          8           0        0.072989    1.625918   -0.319824
      5          6           0       -0.591404    0.501529    0.242660
      6          6           0       -2.059826    0.562722   -0.158715
      7          6           0       -2.854711   -0.639952    0.361910
      8          6           0       -4.367152   -0.592980    0.075151
      9          6           0       -4.681870   -0.627849   -1.427058
     10          6           0       -5.085739   -1.737870    0.802071
     11          8           0        2.388599    1.214044   -0.305677
     12          8           0        2.433127   -0.051962    0.419194
     13          6           0        2.909274   -1.008348   -0.512525
     14          6           0        3.138658   -2.320592    0.242133
     15          6           0        1.843488   -2.860844    0.862163
     16          6           0        3.779784   -3.347010   -0.701305
     17          1           0        0.828194    5.423795    0.072553
     18          1           0        0.553249    4.378940    1.471800
     19          1           0       -0.412853    4.158161    0.005150
     20          1           0        2.620776    3.656550    0.200323
     21          1           0        1.655701    3.466629   -1.262908
     22          1           0        1.305934    1.833202    1.311466
     23          1           0       -0.487927    0.514815    1.339056
     24          1           0       -0.134768   -0.431023   -0.113521
     25          1           0       -2.111978    0.620525   -1.251376
     26          1           0       -2.492173    1.495352    0.225435
     27          1           0       -2.710084   -0.717248    1.448427
     28          1           0       -2.440676   -1.566030   -0.063169
     29          1           0       -4.751519    0.355300    0.478840
     30          1           0       -4.293663   -1.546178   -1.884781
     31          1           0       -4.244805    0.221069   -1.960375
     32          1           0       -5.762953   -0.604481   -1.599950
     33          1           0       -4.736057   -2.712164    0.439387
     34          1           0       -6.167872   -1.694362    0.640036
     35          1           0       -4.905868   -1.701889    1.881810
     36          1           0        3.848834   -0.649480   -0.953144
     37          1           0        2.178551   -1.142797   -1.324451
     38          1           0        3.846681   -2.104503    1.052835
     39          1           0        1.102857   -3.083117    0.084160
     40          1           0        1.401047   -2.138478    1.552212
     41          1           0        2.033535   -3.787686    1.413057
     42          1           0        3.114213   -3.581255   -1.540380
     43          1           0        3.985066   -4.282316   -0.171588
     44          1           0        4.724859   -2.980503   -1.115025
 ---------------------------------------------------------------------

 SCF Done:  E(RB3LYP) =  -737.900952384     A.U. after    1 cycles

 The electronic state is 1-A.
 Alpha  occ. eigenvalues --  -19.18421 -19.18256 -19.13734 -10.27111 -10.22346
 Alpha  occ. eigenvalues --  -10.22082 -10.19245 -10.18433 -10.18001 -10.17750
 Alpha  occ. eigenvalues --  -10.17654 -10.17426 -10.17241 -10.17112 -10.16906
 Alpha  occ. eigenvalues --  -10.16865  -1.11239  -1.03233  -0.92203  -0.81065
 Alpha  occ. eigenvalues --   -0.79848  -0.77365  -0.75122  -0.68500  -0.68257
 Alpha  occ. eigenvalues --   -0.67843  -0.66193  -0.63745  -0.59223  -0.58494
 Alpha  occ. eigenvalues --   -0.56486  -0.55430  -0.51982  -0.50570  -0.48666
 Alpha  occ. eigenvalues --   -0.47217  -0.45766  -0.44992  -0.44653  -0.43297
 Alpha  occ. eigenvalues --   -0.43036  -0.42423  -0.41706  -0.40482  -0.39317
 Alpha  occ. eigenvalues --   -0.39164  -0.38329  -0.37934  -0.37603  -0.37132
 Alpha  occ. eigenvalues --   -0.36033  -0.35443  -0.34548  -0.34142  -0.34007
 Alpha  occ. eigenvalues --   -0.33431  -0.33314  -0.32433  -0.31822  -0.31629
 Alpha  occ. eigenvalues --   -0.31235  -0.31067  -0.30280  -0.26914  -0.23266
 Alpha virt. eigenvalues --    0.02925   0.07876   0.08555   0.09872   0.10763
 Alpha virt. eigenvalues --    0.11607   0.11910   0.12969   0.13170   0.13920
 Alpha virt. eigenvalues --    0.14496   0.14746   0.15178   0.15553   0.15629

 Mulliken charges:
               1
     1  C   -0.383179
     2  C   -0.211453
     3  C    0.258226
     4  O   -0.253727
     5  C   -0.067992
     6  C   -0.208484
     7  C   -0.168690
     8  C    0.042806
     9  C   -0.380908
    10  C   -0.388500
    11  O   -0.196746
    12  O   -0.210199
    13  C   -0.007345
    14  C    0.006602
    15  C   -0.383644
    16  C   -0.391545
    17  H    0.113079
    18  H    0.111418
    19  H    0.133660
    20  H    0.109831
    21  H    0.116531
    22  H    0.070029
    23  H    0.087765
    24  H    0.104390
    25  H    0.109274
    26  H    0.098473
    27  H    0.088592
    28  H    0.090064
    29  H    0.070485
    30  H    0.109173
    31  H    0.116215
    32  H    0.109101
    33  H    0.110324
    34  H    0.108444
    35  H    0.108049
    36  H    0.100872
    37  H    0.092777
    38  H    0.087799
    39  H    0.110389
    40  H    0.129980
    41  H    0.109820
    42  H    0.116387
    43  H    0.116358
    44  H    0.115498
 Sum of Mulliken charges =  -0.00000

 Dipole moment (field-independent basis, Debye):
    X=             -0.3003    Y=             -0.9224    Z=              0.4453  Tot=              1.0674
 Quadrupole moment (field-independent basis, Debye-Ang):
   XX=           -100.9615   YY=            -98.5346   ZZ=           -102.4878
   XY=             -2.8038   XZ=             -0.6789   YZ=              1.9965

  Exact polarizability: 171.898  -1.528 177.985  -2.576  -1.540 133.813
 Approx polarizability: 211.804  -3.138 226.593  -0.311  -3.800 207.219

                      1                      2                      3
                      A                      A                      A
 Frequencies --     12.1574                21.2611                25.4340
 Red. masses --      3.1312                 2.4501                 4.0291
 Frc consts  --      0.0003                 0.0007                 0.0015
 IR Inten    --      0.6753                 0.0690                 0.5810

                      4                      5                      6
                      A                      A                      A
 Frequencies --     31.8091                51.0050                70.0662
 Red. masses --      2.9521                 3.1809                 3.3326
 Frc consts  --      0.0018                 0.0049                 0.0096
 IR Inten    --      0.0203                 0.1371                 0.1981

                      7                      8                      9
                      A                      A                      A
 Frequencies --     90.6556               102.2078               103.4200
 Red. masses --      1.8426                 3.0928                 2.1550
 Frc consts  --      0.0089                 0.0190                 0.0136
 IR Inten    --      0.2179                 0.9230                 0.3471

                     10                     11                     12
                      A                      A                      A
 Frequencies --    109.6275               141.5733               157.2791
 Red. masses --      2.3547                 2.5888                 4.0385
 Frc consts  --      0.0167                 0.0306                 0.0589
 IR Inten    --      0.2670                 1.0967                 3.1048

                     13                     14                     15
                      A                      A                      A
 Frequencies --    176.5277               197.0990               219.6927
 Red. masses --      3.4652                 1.7001                 1.0674
 Frc consts  --      0.0636                 0.0389                 0.0304
 IR Inten    --      0.6085                 0.9260                 0.1922

                     16                     17                     18
                      A                      A                      A
 Frequencies --    226.0058               241.5683               244.9477
 Red. masses --      1.0869                 1.5355                 1.1647
 Frc consts  --      0.0327                 0.0528                 0.0412
 IR Inten    --      0.1489                 0.6558                 0.3832

                     19                     20                     21
                      A                      A                      A
 Frequencies --    252.2020               264.5443               265.8468
 Red. masses --      1.5541                 2.4067                 2.0116
 Frc consts  --      0.0582                 0.0992                 0.0838
 IR Inten    --      0.4803                 0.3231                 1.3250

                     22                     23                     24
                      A                      A                      A
 Frequencies --    297.0231               350.8247               376.7054
 Red. masses --      3.0903                 3.0203                 2.3998
 Frc consts  --      0.1606                 0.2190                 0.2006
 IR Inten    --      1.4557                 0.7661                 0.7670

                     25                     26                     27
                      A                      A                      A
 Frequencies --    394.1126               408.4737               430.3191
 Red. masses --      2.3020                 2.5470                 2.0641
 Frc consts  --      0.2107                 0.2504                 0.2252
 IR Inten    --      0.7197                 0.5841                 0.5845

                     28                     29                     30
                      A                      A                      A
 Frequencies --    457.7907               485.0229               516.4910
 Red. masses --      2.6484                 3.5962                 3.5056
 Frc consts  --      0.3270                 0.4984                 0.5510
 IR Inten    --      3.5685                 1.3230                 2.3675

                     31                     32                     33
                      A                      A                      A
 Frequencies --    557.4537               604.5853               755.5997
 Red. masses --      3.0838                 5.2779                 1.1290
 Frc consts  --      0.5646                 1.1366                 0.3798
 IR Inten    --      5.3199                 2.5090                 1.3174

                     34                     35                     36
                      A                      A                      A
 Frequencies --    782.7125               821.4882               833.4261
 Red. masses --      1.3168                 2.4105                 2.6901
 Frc consts  --      0.4753                 0.9584                 1.1009
 IR Inten    --      1.6175                 0.6430                 1.4621

                     37                     38                     39
                      A                      A                      A
 Frequencies --    858.0684               912.0507               925.8567
 Red. masses --      1.2700                 1.9821                 1.3154
 Frc consts  --      0.5509                 0.9714                 0.6644
 IR Inten    --      0.2821                 7.7111                 0.3268

                     40                     41                     42
                      A                      A                      A
 Frequencies --    927.5760               931.7538               939.8980
 Red. masses --      1.2110                 1.1983                 3.6970
 Frc consts  --      0.6139                 0.6129                 1.9243
 IR Inten    --      0.8702                 1.2185                 2.4531

                     43                     44                     45
                      A                      A                      A
 Frequencies --    946.8910               964.5736               965.8862
 Red. masses --      2.0740                 1.5184                 1.4386
 Frc consts  --      1.0956                 0.8323                 0.7908
 IR Inten    --      3.1114                23.3042                 1.0524

                     46                     47                     48
                      A                      A                      A
 Frequencies --    970.0098               976.1363              1009.1485
 Red. masses --      1.7756                 1.9249                 5.1153
 Frc consts  --      0.9843                 1.0806                 3.0692
 IR Inten    --     40.7506                 3.7214               129.5795

                     49                     50                     51
                      A                      A                      A
 Frequencies --   1021.2119              1051.8215              1053.6209
 Red. masses --      1.4094                 3.6071                 2.7012
 Frc consts  --      0.8660                 2.3512                 1.7668
 IR Inten    --     11.8021                10.2730                 1.3689

                     52                     53                     54
                      A                      A                      A
 Frequencies --   1064.8121              1068.7896              1119.7571
 Red. masses --      5.2486                 2.4248                 2.7554
 Frc consts  --      3.5062                 1.6320                 2.0356
 IR Inten    --     57.5437                 9.0659                71.0676

                     55                     56                     57
                      A                      A                      A
 Frequencies --   1144.8285              1151.0378              1165.5567
 Red. masses --      3.3220                 2.4617                 2.3223
 Frc consts  --      2.5652                 1.9216                 1.8588
 IR Inten    --    165.4971                43.3595                16.1097

                     58                     59                     60
                      A                      A                      A
 Frequencies --   1184.9115              1191.0199              1192.7728
 Red. masses --      1.9456                 1.8439                 1.8460
 Frc consts  --      1.6094                 1.5410                 1.5474
 IR Inten    --      1.5621                15.4420                 0.4509

                     61                     62                     63
                      A                      A                      A
 Frequencies --   1196.7759              1201.7328              1236.9824
 Red. masses --      1.8349                 2.0057                 1.4103
 Frc consts  --      1.5484                 1.7066                 1.2715
 IR Inten    --      2.2244                 4.4045                 1.7158

                     64                     65                     66
                      A                      A                      A
 Frequencies --   1257.6127              1275.2160              1295.4345
 Red. masses --      1.1866                 1.2713                 1.2699
 Frc consts  --      1.1057                 1.2181                 1.2556
 IR Inten    --      1.3926                 2.6166                 5.3975

                     67                     68                     69
                      A                      A                      A
 Frequencies --   1305.5309              1318.9559              1321.3320
 Red. masses --      1.1885                 1.1007                 1.2592
 Frc consts  --      1.1935                 1.1282                 1.2953
 IR Inten    --      4.4775                 2.1279                23.6988

                     70                     71                     72
                      A                      A                      A
 Frequencies --   1330.7028              1346.0158              1371.3615
 Red. masses --      1.3494                 1.3257                 1.3273
 Frc consts  --      1.4079                 1.4152                 1.4707
 IR Inten    --      4.8700                 1.7841                 1.2176

                     73                     74                     75
                      A                      A                      A
 Frequencies --   1371.9118              1381.5570              1386.0458
 Red. masses --      1.3429                 1.2793                 1.4589
 Frc consts  --      1.4892                 1.4387                 1.6513
 IR Inten    --      5.3780                36.3588                16.0951

                     76                     77                     78
                      A                      A                      A
 Frequencies --   1394.7545              1397.5135              1400.9509
 Red. masses --      1.5047                 1.3276                 1.3090
 Frc consts  --      1.7246                 1.5277                 1.5137
 IR Inten    --      2.6494                 0.8689                 0.9466

                     79                     80                     81
                      A                      A                      A
 Frequencies --   1401.2015              1406.5308              1422.8515
 Red. masses --      1.2870                 1.2409                 1.2456
 Frc consts  --      1.4888                 1.4464                 1.4858
 IR Inten    --      6.9418                 2.8107                 3.1927

                     82                     83                     84
                      A                      A                      A
 Frequencies --   1425.0595              1439.5517              1479.5330
 Red. masses --      1.2513                 1.4128                 1.0732
 Frc consts  --      1.4972                 1.7250                 1.3841
 IR Inten    --      4.9612                 2.5867                 0.3080

                     85                     86                     87
                      A                      A                      A
 Frequencies --   1480.7844              1488.3782              1489.3372
 Red. masses --      1.0754                 1.0479                 1.0455
 Frc consts  --      1.3893                 1.3678                 1.3664
 IR Inten    --      0.6759                 1.7000                 0.6557

                     88                     89                     90
                      A                      A                      A
 Frequencies --   1490.0127              1495.0811              1496.4563
 Red. masses --      1.0483                 1.0592                 1.0442
 Frc consts  --      1.3713                 1.3949                 1.3778
 IR Inten    --      2.3734                 0.2579                 4.9289

                     91                     92                     93
                      A                      A                      A
 Frequencies --   1499.3833              1503.1858              1505.3426
 Red. masses --      1.0838                 1.0489                 1.0549
 Frc consts  --      1.4355                 1.3965                 1.4084
 IR Inten    --      0.2787                 6.1462                 3.3293

                     94                     95                     96
                      A                      A                      A
 Frequencies --   1510.6626              1510.8916              1511.6031
 Red. masses --      1.0610                 1.0627                 1.0513
 Frc consts  --      1.4266                 1.4293                 1.4153
 IR Inten    --      6.9913                 4.6989                10.2447

                     97                     98                     99
                      A                      A                      A
 Frequencies --   1520.0311              1525.0679              2978.9875
 Red. masses --      1.0892                 1.0851                 1.0693
 Frc consts  --      1.4827                 1.4870                 5.5908
 IR Inten    --      8.1399                 6.2547                13.6380

                    100                    101                    102
                      A                      A                      A
 Frequencies --   2985.1649              2987.9220              2992.0487
 Red. masses --      1.0760                 1.0588                 1.0775
 Frc consts  --      5.6494                 5.5693                 5.6834
 IR Inten    --     37.9385                29.0480                 7.5649

                    103                    104                    105
                      A                      A                      A
 Frequencies --   3000.1210              3019.8828              3021.5400
 Red. masses --      1.0632                 1.0802                 1.0360
 Frc consts  --      5.6384                 5.8043                 5.5728
 IR Inten    --     32.2335                 7.9311                26.0950

                    106                    107                    108
                      A                      A                      A
 Frequencies --   3026.1187              3026.5794              3027.4160
 Red. masses --      1.0566                 1.0553                 1.0397
 Frc consts  --      5.7010                 5.6956                 5.6144
 IR Inten    --     20.8199                13.0666                24.0619

                    109                    110                    111
                      A                      A                      A
 Frequencies --   3031.2785              3032.6118              3037.9785
 Red. masses --      1.0415                 1.0985                 1.0441
 Frc consts  --      5.6384                 5.9522                 5.6774
 IR Inten    --     26.4494                 6.3689                 5.6863

                    112                    113                    114
                      A                      A                      A
 Frequencies --   3038.1897              3040.2068              3051.1907
 Red. masses --      1.0746                 1.1001                 1.0600
 Frc consts  --      5.8442                 5.9909                 5.8143
 IR Inten    --     78.0001                49.8396                17.7449

                    115                    116                    117
                      A                      A                      A
 Frequencies --   3081.6092              3085.8425              3090.3755
 Red. masses --      1.1029                 1.1001                 1.0996
 Frc consts  --      6.1709                 6.1720                 6.1872
 IR Inten    --     38.5873                11.8507                10.8047

                    118                    119                    120
                      A                      A                      A
 Frequencies --   3091.7966              3091.8539              3097.0291
 Red. masses --      1.0997                 1.0989                 1.1002
 Frc consts  --      6.1934                 6.1895                 6.2177
 IR Inten    --     58.7246                19.0442                88.3374

                    121                    122                    123
                      A                      A                      A
 Frequencies --   3097.1536              3105.0146              3105.7826
 Red. masses --      1.1012                 1.1014                 1.1020
 Frc consts  --      6.2234                 6.2565                 6.2627
 IR Inten    --     17.8799                29.4126                36.4372

                    124                    125                    126
                      A                      A                      A
 Frequencies --   3107.5709              3121.2956              3131.0562
 Red. masses --      1.0996                 1.0998                 1.1010
 Frc consts  --      6.2566                 6.3129                 6.3596
 IR Inten    --     36.7996                24.0519                28.5837

 - Thermochemistry -
 -------------------
 Temperature   298.150 Kelvin.  Pressure   1.00000 Atm.
 Atom     1 has atomic number  6 and mass  12.00000

 Molecular mass:   232.20384 amu.
 Principal axes and moments of inertia in atomic units:
                           1         2         3
     Eigenvalues --  4083.108467263.14476**********
           X            0.99997  -0.00715  -0.00074
           Y            0.00715   0.99997   0.00385
           Z            0.00071  -0.00385   0.99999
 This molecule is an asymmetric top.
 Rotational symmetry number  1.
 Warning -- assumption of classical behavior for rotation
           may cause significant error
 Rotational temperatures (Kelvin)      0.02121     0.01193     0.00814
 Rotational constants (GHZ):           0.44200     0.24848     0.16969
 Zero-point vibrational energy    1044997.3 (Joules/Mol)
                                  249.76034 (Kcal/Mol)
 Warning -- explicit consideration of  32 degrees of freedom as
           vibrations may cause significant error
 Vibrational temperatures:     17.49    30.59    36.59    45.77    73.38
          (Kelvin)            100.81   130.43   147.05   148.80   157.73
                              203.69   226.29   253.98   283.58   316.09
                              325.17   347.56   352.43   362.86   380.62
                              382.49   427.35   504.76   542.00   567.04
                              587.70   619.13   658.66   697.84   743.12
                              802.05   869.86  1087.14  1126.15  1181.94
                             1199.11  1234.57  1312.24  1332.10  1334.58
                             1340.59  1352.30  1362.36  1387.81  1389.69
                             1395.63  1404.44  1451.94  1469.30  1513.34
                             1515.93  1532.03  1537.75  1611.08  1647.15
                             1656.09  1676.98  1704.82  1713.61  1716.13
                             1721.89  1729.03  1779.74  1809.42  1834.75
                             1863.84  1878.37  1897.68  1901.10  1914.58
                             1936.62  1973.08  1973.88  1987.75  1994.21
                             2006.74  2010.71  2015.66  2016.02  2023.68
                             2047.17  2050.34  2071.19  2128.72  2130.52
                             2141.44  2142.82  2143.80  2151.09  2153.07
                             2157.28  2162.75  2165.85  2173.51  2173.84
                             2174.86  2186.99  2194.23  4286.10  4294.99
                             4298.95  4304.89  4316.50  4344.94  4347.32
                             4353.91  4354.57  4355.78  4361.33  4363.25
                             4370.97  4371.28  4374.18  4389.98  4433.75
                             4439.84  4446.36  4448.41  4448.49  4455.93
                             4456.11  4467.42  4468.53  4471.10  4490.85
                             4504.89

 Zero-point correction=                           0.398018 (Hartree/Particle)
 Thermal correction to Energy=                    0.419408
 Thermal correction to Enthalpy=                  0.420352
 Thermal correction to Gibbs Free Energy=         0.344107
 Sum of electronic and zero-point Energies=           -737.502934
 Sum of electronic and thermal Energies=              -737.481544
 Sum of electronic and thermal Enthalpies=            -737.480600
 Sum of electronic and thermal Free Energies=         -737.556845

                     E (Thermal)             CV                S
                      KCal/Mol        Cal/Mol-Kelvin    Cal/Mol-Kelvin
 Total                  263.183             75.991            160.472
 Electronic               0.000              0.000              0.000
 Translational            0.889              2.981             42.229
 Rotational               0.889              2.981             34.111
 Vibrational            261.405             70.030             84.132
 Vibration     1          0.593              1.987              7.623
 Vibration     2          0.593              1.985              6.513
 Vibration     3          0.593              1.985              6.157
 Vibration     4          0.594              1.983              5.713
 Vibration     5          0.595              1.977              4.778
 Vibration     6          0.598              1.968              4.151
 Vibration     7          0.602              1.956              3.646
 Vibration     8          0.604              1.947              3.412
 Vibration     9          0.605              1.946              3.389
 Vibration    10          0.606              1.941              3.275
 Vibration    11          0.615              1.912              2.783
 Vibration    12          0.621              1.894              2.582
 Vibration    13          0.628              1.871              2.365
 Vibration    14          0.636              1.844              2.160
 Vibration    15          0.647              1.811              1.962
 Vibration    16          0.650              1.801              1.910
 Vibration    17          0.658              1.777              1.791
 Vibration    18          0.660              1.771              1.767
 Vibration    19          0.664              1.759              1.715
 Vibration    20          0.671              1.738              1.632
 Vibration    21          0.672              1.736              1.623
 Vibration    22          0.691              1.679              1.434
 Vibration    23          0.728              1.574              1.162
 Vibration    24          0.747              1.520              1.052
 Vibration    25          0.761              1.483              0.985
 Vibration    26          0.773              1.452              0.932
 Vibration    27          0.792              1.404              0.858
 Vibration    28          0.816              1.344              0.773
 Vibration    29          0.841              1.283              0.697
 Vibration    30          0.872              1.213              0.618
 Vibration    31          0.913              1.123              0.529
 Vibration    32          0.963              1.022              0.442

                           ! Non-Optimized Parameters !
 Normal termination of Gaussian 16 at Mon May 22 16:10:40 2023.
