 Gaussian 16, Revision A.03,
 Gaussian 16:  ES64L-G16RevA.03 25-Dec-2016

 -----------------------------
 # opt freq b3lyp/6-31g(2df,p)
 -----------------------------

 -------------------
 Title Card Required
 -------------------
 Symbolic Z-matrix:
 Charge =  0 Multiplicity = 1

 SCF Done:  E(RB3LYP) =  -766.280602475     A.U. after   15 cycles
 SCF Done:  E(RB3LYP) =  -766.308276152     A.U. after   12 cycles
 SCF Done:  E(RB3LYP) =  -766.311031011     A.U. after   13 cycles
 SCF Done:  E(RB3LYP) =  -766.312229441     A.U. after   12 cycles
 SCF Done:  E(RB3LYP) =  -766.312705790     A.U. after   11 cycles
 SCF Done:  E(RB3LYP) =  -766.314102871     A.U. after   12 cycles
 SCF Done:  E(RB3LYP) =  -766.314438725     A.U. after   14 cycles
 SCF Done:  E(RB3LYP) =  -766.316659583     A.U. after   12 cycles
 SCF Done:  E(RB3LYP) =  -766.316840039     A.U. after   11 cycles
 SCF Done:  E(RB3LYP) =  -766.316903904     A.U. after   11 cycles
 SCF Done:  E(RB3LYP) =  -766.318375278     A.U. after   12 cycles
 SCF Done:  E(RB3LYP) =  -766.318767982     A.U. after   12 cycles
 SCF Done:  E(RB3LYP) =  -766.318868783     A.U. after   10 cycles
 SCF Done:  E(RB3LYP) =  -766.318887303     A.U. after   10 cycles
 SCF Done:  E(RB3LYP) =  -766.318897104     A.U. after    9 cycles
 SCF Done:  E(RB3LYP) =  -766.318899897     A.U. after    9 cycles
 SCF Done:  E(RB3LYP) =  -766.318900461     A.U. after    8 cycles
 SCF Done:  E(RB3LYP) =  -766.318900515     A.U. after    6 cycles
 SCF Done:  E(RB3LYP) =  -766.318900528     A.U. after    7 cycles
 Optimization completed.
    -- Stationary point found.
 Normal termination of Gaussian 16 at Tue May 23 04:33:58 2023.

 ----------------------------------------------------------------------
 #N Geom=AllCheck Guess=TCheck SCRF=Check GenChk RB3LYP/6-31G(2df,p) Fr
 eq
 ----------------------------------------------------------------------

 Structure from the checkpoint file:  "CCCqOrCCOCCdCCNOCCtN.chk"
 -------------------
 Title Card Required
 -------------------
 Charge =  0 Multiplicity = 1

                         Standard orientation:
 ---------------------------------------------------------------------
 Center     Atomic      Atomic             Coordinates (Angstroms)
 Number     Number       Type             X           Y           Z
 ---------------------------------------------------------------------
      1          6           0        7.531329   -1.060891    0.170499
      2          6           0        6.050592   -1.278850    0.489284
      3          6           0        5.153754   -0.132274    0.006059
      4          8           0        5.289562    0.082321   -1.400695
      5          6           0        3.686823   -0.338499    0.399629
      6          6           0        2.794012    0.823905   -0.012859
      7          8           0        1.464721    0.523904    0.367005
      8          6           0        0.548833    1.544076    0.024757
      9          6           0       -0.802030    1.172657    0.553954
     10          6           0       -1.927118    1.198366   -0.155143
     11          6           0       -3.282299    0.870296    0.399596
     12          7           0       -3.847755   -0.254026   -0.363299
     13          8           0       -5.095765   -0.608938    0.263135
     14          6           0       -6.098404   -0.569866   -0.735190
     15          6           0       -7.385064   -0.872754   -0.101271
     16          7           0       -8.412261   -1.108612    0.370044
     17          1           0        8.133659   -1.921650    0.475577
     18          1           0        7.919603   -0.179178    0.692243
     19          1           0        7.675121   -0.899784   -0.901007
     20          1           0        5.910077   -1.404920    1.569985
     21          1           0        5.699934   -2.213664    0.026993
     22          1           0        5.513684    0.805589    0.451270
     23          1           0        5.012079   -0.727828   -1.844227
     24          1           0        3.612157   -0.480803    1.483972
     25          1           0        3.307403   -1.259647   -0.063845
     26          1           0        2.863031    0.987057   -1.098722
     27          1           0        3.129117    1.756173    0.475024
     28          1           0        0.511804    1.694801   -1.066876
     29          1           0        0.874755    2.502875    0.469303
     30          1           0       -0.823879    0.888415    1.604960
     31          1           0       -1.898549    1.464949   -1.210437
     32          1           0       -3.967607    1.717201    0.270993
     33          1           0       -3.223752    0.651544    1.474711
     34          1           0       -3.261586   -1.070948   -0.192697
     35          1           0       -5.904863   -1.306500   -1.526953
     36          1           0       -6.152785    0.419507   -1.208925
 ---------------------------------------------------------------------

 SCF Done:  E(RB3LYP) =  -766.318900528     A.U. after    1 cycles

 The electronic state is 1-A.
 Alpha  occ. eigenvalues --  -19.18813 -19.14316 -19.13946 -14.38324 -14.33523
 Alpha  occ. eigenvalues --  -10.27988 -10.23808 -10.23509 -10.22786 -10.22472
 Alpha  occ. eigenvalues --  -10.22413 -10.19857 -10.19743 -10.18541 -10.18404
 Alpha  occ. eigenvalues --  -10.17393  -1.08663  -1.03724  -1.02037  -0.90780
 Alpha  occ. eigenvalues --   -0.87535  -0.80733  -0.79118  -0.75993  -0.73682
 Alpha  occ. eigenvalues --   -0.70071  -0.66602  -0.63328  -0.60300  -0.59768
 Alpha  occ. eigenvalues --   -0.56836  -0.54579  -0.51959  -0.50724  -0.49559
 Alpha  occ. eigenvalues --   -0.49443  -0.48190  -0.47273  -0.46787  -0.44674
 Alpha  occ. eigenvalues --   -0.44386  -0.43446  -0.43011  -0.41425  -0.40239
 Alpha  occ. eigenvalues --   -0.39474  -0.38193  -0.37111  -0.36417  -0.36023
 Alpha  occ. eigenvalues --   -0.35054  -0.34371  -0.34106  -0.33834  -0.33479
 Alpha  occ. eigenvalues --   -0.32428  -0.31594  -0.28974  -0.27712  -0.26847
 Alpha  occ. eigenvalues --   -0.26220  -0.25618
 Alpha virt. eigenvalues --   -0.00687   0.01240   0.03660   0.06552   0.08448
 Alpha virt. eigenvalues --    0.09141   0.09896   0.10304   0.11443   0.11654
 Alpha virt. eigenvalues --    0.12256   0.12633   0.13166   0.13762   0.14819

 Mulliken charges:
               1
     1  C   -0.381563
     2  C   -0.187786
     3  C    0.132878
     4  O   -0.429605
     5  C   -0.222138
     6  C   -0.050711
     7  O   -0.252922
     8  C   -0.107236
     9  C   -0.038593
    10  C   -0.076568
    11  C   -0.163265
    12  N   -0.204013
    13  O   -0.259275
    14  C   -0.144849
    15  C    0.247568
    16  N   -0.292387
    17  H    0.110306
    18  H    0.114695
    19  H    0.127117
    20  H    0.098434
    21  H    0.085823
    22  H    0.086007
    23  H    0.276693
    24  H    0.105635
    25  H    0.095098
    26  H    0.099381
    27  H    0.083634
    28  H    0.091884
    29  H    0.095573
    30  H    0.099149
    31  H    0.096874
    32  H    0.119620
    33  H    0.108897
    34  H    0.245910
    35  H    0.145332
    36  H    0.144403
 Sum of Mulliken charges =  -0.00000

 Dipole moment (field-independent basis, Debye):
    X=              4.4227    Y=              0.5328    Z=             -1.3218  Tot=              4.6467
 Quadrupole moment (field-independent basis, Debye-Ang):
   XX=           -147.5680   YY=            -93.7279   ZZ=            -95.2824
   XY=            -15.0042   XZ=             16.1972   YZ=              4.3765

  Exact polarizability: 218.138   5.028 116.601   2.559  -1.122 119.242
 Approx polarizability: 243.154  11.052 173.145   0.663  -3.350 189.317

                      1                      2                      3
                      A                      A                      A
 Frequencies --     14.2910                20.1414                29.9222
 Red. masses --      5.5004                 3.8247                 3.6867
 Frc consts  --      0.0007                 0.0009                 0.0019
 IR Inten    --      0.2553                 1.1417                 5.1011

                      4                      5                      6
                      A                      A                      A
 Frequencies --     40.9192                53.0296                56.4450
 Red. masses --      5.7668                 4.2514                 3.5561
 Frc consts  --      0.0057                 0.0070                 0.0067
 IR Inten    --      1.2222                 1.0358                 2.4052

                      7                      8                      9
                      A                      A                      A
 Frequencies --     75.9008                96.4664               112.5399
 Red. masses --      3.0801                 3.5219                 2.0744
 Frc consts  --      0.0105                 0.0193                 0.0155
 IR Inten    --      3.0539                 2.8911                 3.2191

                     10                     11                     12
                      A                      A                      A
 Frequencies --    122.7158               139.7339               152.3583
 Red. masses --      2.2933                 3.0866                 2.6607
 Frc consts  --      0.0203                 0.0355                 0.0364
 IR Inten    --      1.3995                 2.1980                 2.5446

                     13                     14                     15
                      A                      A                      A
 Frequencies --    171.8195               197.8579               210.5121
 Red. masses --      4.6464                 2.7512                 2.5651
 Frc consts  --      0.0808                 0.0635                 0.0670
 IR Inten    --      4.8364                 1.2456                 1.5172

                     16                     17                     18
                      A                      A                      A
 Frequencies --    227.8593               254.6431               304.5705
 Red. masses --      1.5097                 3.1508                 1.8760
 Frc consts  --      0.0462                 0.1204                 0.1025
 IR Inten    --      0.1060                 5.4795                23.1463

                     19                     20                     21
                      A                      A                      A
 Frequencies --    318.2728               333.7384               343.9533
 Red. masses --      1.4925                 3.8535                 4.4243
 Frc consts  --      0.0891                 0.2529                 0.3084
 IR Inten    --    104.7964                 6.5561                 2.6050

                     22                     23                     24
                      A                      A                      A
 Frequencies --    385.8912               430.2694               445.2856
 Red. masses --      3.9015                 2.9372                 4.7010
 Frc consts  --      0.3423                 0.3204                 0.5492
 IR Inten    --      2.9756                 0.7096                 5.8282

                     25                     26                     27
                      A                      A                      A
 Frequencies --    463.3353               482.0793               551.9583
 Red. masses --      3.0347                 2.7397                 3.4759
 Frc consts  --      0.3839                 0.3751                 0.6239
 IR Inten    --      3.0523                 6.6096                 3.2595

                     28                     29                     30
                      A                      A                      A
 Frequencies --    564.9051               593.7006               776.5200
 Red. masses --      2.9212                 3.9042                 1.2535
 Frc consts  --      0.5492                 0.8108                 0.4453
 IR Inten    --     18.8877                 2.6391                 0.5697

                     31                     32                     33
                      A                      A                      A
 Frequencies --    800.1362               817.9361               872.1897
 Red. masses --      1.4317                 1.7283                 1.9150
 Frc consts  --      0.5400                 0.6813                 0.8583
 IR Inten    --      2.3511                11.2656                15.0784

                     34                     35                     36
                      A                      A                      A
 Frequencies --    889.8831               931.2664               953.9716
 Red. masses --      1.9456                 2.1883                 2.1144
 Frc consts  --      0.9078                 1.1182                 1.1337
 IR Inten    --     54.7019                 0.4791                18.9961

                     37                     38                     39
                      A                      A                      A
 Frequencies --    960.5339               985.5182              1005.4077
 Red. masses --      3.7708                 1.9286                 1.6097
 Frc consts  --      2.0498                 1.1036                 0.9587
 IR Inten    --     30.9498                10.2443                 3.9811

                     40                     41                     42
                      A                      A                      A
 Frequencies --   1015.3447              1023.3437              1025.9945
 Red. masses --      2.0186                 2.3088                 1.6288
 Frc consts  --      1.2261                 1.4246                 1.0102
 IR Inten    --     24.0697                19.0984                18.0013

                     43                     44                     45
                      A                      A                      A
 Frequencies --   1031.0848              1043.7532              1068.6456
 Red. masses --      1.7577                 2.4330                 3.0717
 Frc consts  --      1.1010                 1.5617                 2.0668
 IR Inten    --      6.2007                23.9005                 4.2970

                     46                     47                     48
                      A                      A                      A
 Frequencies --   1085.4038              1096.5528              1099.6620
 Red. masses --      3.0802                 4.8031                 1.4620
 Frc consts  --      2.1380                 3.4028                 1.0417
 IR Inten    --     62.5707                18.2490                54.7266

                     49                     50                     51
                      A                      A                      A
 Frequencies --   1110.1527              1121.4307              1153.2405
 Red. masses --      2.0909                 2.1205                 5.9561
 Frc consts  --      1.5182                 1.5712                 4.6672
 IR Inten    --     10.0437                62.0475               267.2030

                     52                     53                     54
                      A                      A                      A
 Frequencies --   1154.7382              1173.1608              1216.5543
 Red. masses --      2.8714                 2.3231                 1.2704
 Frc consts  --      2.2558                 1.8838                 1.1078
 IR Inten    --     22.4110                 4.2303                 1.8526

                     55                     56                     57
                      A                      A                      A
 Frequencies --   1235.0566              1247.2417              1263.5657
 Red. masses --      1.0733                 1.2165                 1.3246
 Frc consts  --      0.9646                 1.1150                 1.2461
 IR Inten    --      1.2008                 7.3777                 7.1827

                     58                     59                     60
                      A                      A                      A
 Frequencies --   1273.2717              1280.9045              1299.7822
 Red. masses --      1.2368                 1.2732                 1.1180
 Frc consts  --      1.1814                 1.2308                 1.1129
 IR Inten    --     16.1522                 3.7501                 2.9490

                     61                     62                     63
                      A                      A                      A
 Frequencies --   1306.3517              1323.6480              1344.6469
 Red. masses --      1.2051                 1.2787                 1.3255
 Frc consts  --      1.2117                 1.3200                 1.4121
 IR Inten    --     11.2736                 1.8532                 1.4403

                     64                     65                     66
                      A                      A                      A
 Frequencies --   1359.7619              1367.2650              1387.5944
 Red. masses --      1.3082                 1.3521                 1.3588
 Frc consts  --      1.4251                 1.4893                 1.5414
 IR Inten    --      3.3449                 0.7070                73.2823

                     67                     68                     69
                      A                      A                      A
 Frequencies --   1389.4478              1396.4929              1406.7520
 Red. masses --      1.4401                 1.5050                 1.2249
 Frc consts  --      1.6380                 1.7293                 1.4282
 IR Inten    --      2.1892                62.0928                13.4326

                     70                     71                     72
                      A                      A                      A
 Frequencies --   1421.3763              1448.5057              1471.5570
 Red. masses --      1.2101                 1.5246                 1.1299
 Frc consts  --      1.4405                 1.8847                 1.4417
 IR Inten    --     29.7888                 5.7134                11.5833

                     73                     74                     75
                      A                      A                      A
 Frequencies --   1476.8514              1488.9937              1494.0365
 Red. masses --      1.0821                 1.0866                 1.0701
 Frc consts  --      1.3905                 1.4194                 1.4073
 IR Inten    --      0.4318                 3.1785                14.1841

                     76                     77                     78
                      A                      A                      A
 Frequencies --   1495.8148              1504.6272              1506.6327
 Red. masses --      1.0409                 1.0850                 1.0836
 Frc consts  --      1.3722                 1.4472                 1.4492
 IR Inten    --      4.7083                 5.7776                 1.0757

                     79                     80                     81
                      A                      A                      A
 Frequencies --   1509.2944              1532.3432              1748.1216
 Red. masses --      1.0615                 1.0876                 6.5250
 Frc consts  --      1.4247                 1.5046                11.7482
 IR Inten    --      4.3687                 2.1449                 0.6221

                     82                     83                     84
                      A                      A                      A
 Frequencies --   2372.7055              2930.2472              2951.7358
 Red. masses --     12.6265                 1.0642                 1.0671
 Frc consts  --     41.8812                 5.3839                 5.4781
 IR Inten    --      0.3783                34.7894                62.5196

                     85                     86                     87
                      A                      A                      A
 Frequencies --   2978.9413              2998.9230              3007.4067
 Red. masses --      1.0921                 1.0673                 1.0876
 Frc consts  --      5.7102                 5.6555                 5.7958
 IR Inten    --     40.1297                10.2049                42.3122

                     88                     89                     90
                      A                      A                      A
 Frequencies --   3007.4450              3010.9301              3013.6885
 Red. masses --      1.0621                 1.0549                 1.0733
 Frc consts  --      5.6600                 5.6345                 5.7433
 IR Inten    --     15.3123                21.9485                 1.1440

                     91                     92                     93
                      A                      A                      A
 Frequencies --   3026.4657              3037.6366              3044.0101
 Red. masses --      1.0713                 1.0388                 1.1050
 Frc consts  --      5.7817                 5.6476                 6.0326
 IR Inten    --     55.5036                32.5407                13.4295

                     94                     95                     96
                      A                      A                      A
 Frequencies --   3050.5830              3052.7039              3073.6549
 Red. masses --      1.0936                 1.1023                 1.0997
 Frc consts  --      5.9964                 6.0524                 6.1209
 IR Inten    --     10.9250                22.5588                48.1153

                     97                     98                     99
                      A                      A                      A
 Frequencies --   3102.3651              3122.2086              3143.7583
 Red. masses --      1.1006                 1.1011                 1.0923
 Frc consts  --      6.2410                 6.3242                 6.3607
 IR Inten    --     37.7618                24.1149                 0.6875

                    100                    101                    102
                      A                      A                      A
 Frequencies --   3148.9201              3457.6405              3788.1971
 Red. masses --      1.0854                 1.0756                 1.0657
 Frc consts  --      6.3409                 7.5761                 9.0108
 IR Inten    --     24.0541                 1.5550                11.5699

 - Thermochemistry -
 -------------------
 Temperature   298.150 Kelvin.  Pressure   1.00000 Atm.
 Atom     1 has atomic number  6 and mass  12.00000

 Molecular mass:   228.14739 amu.
 Principal axes and moments of inertia in atomic units:
                           1         2         3
     Eigenvalues --   969.99468********************
           X            0.99996  -0.00784   0.00373
           Y            0.00783   0.99997   0.00271
           Z           -0.00375  -0.00268   0.99999
 This molecule is an asymmetric top.
 Rotational symmetry number  1.
 Warning -- assumption of classical behavior for rotation
           may cause significant error
 Rotational temperatures (Kelvin)      0.08929     0.00431     0.00423
 Rotational constants (GHZ):           1.86057     0.08989     0.08811
 Zero-point vibrational energy     806926.9 (Joules/Mol)
                                  192.86016 (Kcal/Mol)
 Warning -- explicit consideration of  29 degrees of freedom as
           vibrations may cause significant error
 Vibrational temperatures:     20.56    28.98    43.05    58.87    76.30
          (Kelvin)             81.21   109.20   138.79   161.92   176.56
                              201.05   219.21   247.21   284.67   302.88
                              327.84   366.37   438.21   457.92   480.18
                              494.87   555.21   619.06   640.67   666.64
                              693.60   794.14   812.77   854.20  1117.24
                             1151.22  1176.83  1254.89  1280.34  1339.88
                             1372.55  1381.99  1417.94  1446.56  1460.85
                             1472.36  1476.18  1483.50  1501.73  1537.54
                             1561.65  1577.69  1582.17  1597.26  1613.49
                             1659.26  1661.41  1687.92  1750.35  1776.97
                             1794.50  1817.99  1831.95  1842.94  1870.10
                             1879.55  1904.43  1934.65  1956.39  1967.19
                             1996.44  1999.11  2009.24  2024.00  2045.04
                             2084.08  2117.24  2124.86  2142.33  2149.59
                             2152.14  2164.82  2167.71  2171.54  2204.70
                             2515.16  3413.79  4215.97  4246.89  4286.03
                             4314.78  4326.99  4327.04  4332.06  4336.03
                             4354.41  4370.48  4379.65  4389.11  4392.16
                             4422.30  4463.61  4492.16  4523.17  4530.59
                             4974.77  5450.37

 Zero-point correction=                           0.307342 (Hartree/Particle)
 Thermal correction to Energy=                    0.326932
 Thermal correction to Enthalpy=                  0.327876
 Thermal correction to Gibbs Free Energy=         0.254707
 Sum of electronic and zero-point Energies=           -766.011558
 Sum of electronic and thermal Energies=              -765.991969
 Sum of electronic and thermal Enthalpies=            -765.991025
 Sum of electronic and thermal Free Energies=         -766.064193

                     E (Thermal)             CV                S
                      KCal/Mol        Cal/Mol-Kelvin    Cal/Mol-Kelvin
 Total                  205.153             67.629            153.997
 Electronic               0.000              0.000              0.000
 Translational            0.889              2.981             42.177
 Rotational               0.889              2.981             34.344
 Vibrational            203.375             61.667             77.476
 Vibration     1          0.593              1.986              7.302
 Vibration     2          0.593              1.986              6.620
 Vibration     3          0.594              1.984              5.835
 Vibration     4          0.594              1.981              5.214
 Vibration     5          0.596              1.976              4.701
 Vibration     6          0.596              1.975              4.578
 Vibration     7          0.599              1.965              3.994
 Vibration     8          0.603              1.952              3.524
 Vibration     9          0.607              1.939              3.225
 Vibration    10          0.610              1.930              3.057
 Vibration    11          0.615              1.914              2.808
 Vibration    12          0.619              1.900              2.643
 Vibration    13          0.626              1.877              2.415
 Vibration    14          0.637              1.843              2.153
 Vibration    15          0.643              1.825              2.039
 Vibration    16          0.651              1.799              1.896
 Vibration    17          0.665              1.755              1.698
 Vibration    18          0.695              1.665              1.392
 Vibration    19          0.705              1.639              1.319
 Vibration    20          0.715              1.608              1.242
 Vibration    21          0.723              1.588              1.194
 Vibration    22          0.755              1.500              1.016
 Vibration    23          0.791              1.404              0.858
 Vibration    24          0.805              1.371              0.810
 Vibration    25          0.821              1.331              0.756
 Vibration    26          0.838              1.290              0.704
 Vibration    27          0.907              1.135              0.540
 Vibration    28          0.921              1.107              0.514
 Vibration    29          0.951              1.045              0.461

 Optimization completed.
    -- Stationary point found.
 Normal termination of Gaussian 16 at Tue May 23 06:33:42 2023.
