 Gaussian 16, Revision A.03,
 Gaussian 16:  ES64L-G16RevA.03 25-Dec-2016

 -----------------------------
 # opt freq b3lyp/6-31g(2df,p)
 -----------------------------

 -------------------
 Title Card Required
 -------------------
 Symbolic Z-matrix:
 Charge =  0 Multiplicity = 1

 SCF Done:  E(RB3LYP) =  -495.528592979     A.U. after   12 cycles
 SCF Done:  E(RB3LYP) =  -495.529577084     A.U. after   10 cycles
 SCF Done:  E(RB3LYP) =  -495.529705175     A.U. after    9 cycles
 SCF Done:  E(RB3LYP) =  -495.529712874     A.U. after    8 cycles
 SCF Done:  E(RB3LYP) =  -495.529714041     A.U. after    7 cycles
 SCF Done:  E(RB3LYP) =  -495.529714458     A.U. after    7 cycles
 SCF Done:  E(RB3LYP) =  -495.529714527     A.U. after    6 cycles
 Optimization completed.
    -- Stationary point found.
 Normal termination of Gaussian 16 at Sat May 27 19:25:22 2023.

 ----------------------------------------------------------------------
 #N Geom=AllCheck Guess=TCheck SCRF=Check GenChk RB3LYP/6-31G(2df,p) Fr
 eq
 ----------------------------------------------------------------------

 Structure from the checkpoint file:  "CCCqCrCqFrqFrF.chk"
 -------------------
 Title Card Required
 -------------------
 Charge =  0 Multiplicity = 1

                         Standard orientation:
 ---------------------------------------------------------------------
 Center     Atomic      Atomic             Coordinates (Angstroms)
 Number     Number       Type             X           Y           Z
 ---------------------------------------------------------------------
      1          6           0       -2.866666   -0.392839   -0.165251
      2          6           0       -1.426132   -0.645267    0.287896
      3          6           0       -0.397019    0.303386   -0.356543
      4          6           0       -0.567749    1.769911    0.062192
      5          6           0        1.017123   -0.165979   -0.040978
      6          9           0        1.268976   -0.145236    1.280301
      7          9           0        1.232272   -1.423434   -0.465382
      8          9           0        1.942309    0.609644   -0.632465
      9          1           0       -3.542211   -1.130415    0.277865
     10          1           0       -2.959482   -0.470329   -1.254328
     11          1           0       -3.224645    0.597678    0.130745
     12          1           0       -1.147705   -1.675545    0.044321
     13          1           0       -1.355563   -0.554468    1.378246
     14          1           0       -0.483911    0.228824   -1.448147
     15          1           0       -0.487164    1.873747    1.148620
     16          1           0       -1.545474    2.146557   -0.245236
     17          1           0        0.196797    2.399909   -0.398075
 ---------------------------------------------------------------------

 SCF Done:  E(RB3LYP) =  -495.529714527     A.U. after    1 cycles

 The electronic state is 1-A.
 Alpha  occ. eigenvalues --  -24.71168 -24.71160 -24.71127 -10.40785 -10.20930
 Alpha  occ. eigenvalues --  -10.19206 -10.18618 -10.18319  -1.29800  -1.20901
 Alpha  occ. eigenvalues --   -1.20882  -0.82794  -0.74417  -0.69570  -0.64939
 Alpha  occ. eigenvalues --   -0.60034  -0.57613  -0.57102  -0.52985  -0.47639
 Alpha  occ. eigenvalues --   -0.45521  -0.44710  -0.43590  -0.42822  -0.41577
 Alpha  occ. eigenvalues --   -0.40588  -0.39440  -0.38827  -0.38310  -0.37264
 Alpha  occ. eigenvalues --   -0.34258  -0.33746  -0.33601
 Alpha virt. eigenvalues --    0.08175   0.11874   0.12531   0.13173   0.14276
 Alpha virt. eigenvalues --    0.15119   0.16447   0.16949   0.17890   0.18729
 Alpha virt. eigenvalues --    0.20762   0.23513   0.24160   0.25105   0.26252

 Mulliken charges:
               1
     1  C   -0.398668
     2  C   -0.181656
     3  C   -0.110114
     4  C   -0.410870
     5  C    0.285808
     6  F   -0.089455
     7  F   -0.085162
     8  F   -0.085567
     9  H    0.120572
    10  H    0.117807
    11  H    0.122014
    12  H    0.114682
    13  H    0.110799
    14  H    0.101029
    15  H    0.131199
    16  H    0.124367
    17  H    0.133217
 Sum of Mulliken charges =   0.00000

 Dipole moment (field-independent basis, Debye):
    X=             -2.0025    Y=              0.5785    Z=             -0.3119  Tot=              2.1076
 Quadrupole moment (field-independent basis, Debye-Ang):
   XX=            -48.3843   YY=            -46.8341   ZZ=            -46.8701
   XY=              0.4153   XZ=             -0.0021   YZ=             -0.1231

  Exact polarizability:  62.029   1.821  57.239  -0.308  -0.093  51.755
 Approx polarizability:  77.167   1.426  78.895  -0.925   0.211  78.639

                      1                      2                      3
                      A                      A                      A
 Frequencies --     69.4762                77.9168               188.8703
 Red. masses --      2.7708                 2.6965                 4.3159
 Frc consts  --      0.0079                 0.0096                 0.0907
 IR Inten    --      0.0467                 0.2025                 0.9129

                      4                      5                      6
                      A                      A                      A
 Frequencies --    201.7572               216.8954               275.8877
 Red. masses --      1.0858                 1.6235                 1.9052
 Frc consts  --      0.0260                 0.0450                 0.0854
 IR Inten    --      0.1444                 0.2230                 0.3074

                      7                      8                      9
                      A                      A                      A
 Frequencies --    306.6942               345.0082               397.8346
 Red. masses --      3.0845                 3.6715                 5.9104
 Frc consts  --      0.1709                 0.2575                 0.5512
 IR Inten    --      0.1568                 3.3705                 2.1202

                     10                     11                     12
                      A                      A                      A
 Frequencies --    456.1965               551.5493               571.5489
 Red. masses --      3.4107                 6.7589                11.2368
 Frc consts  --      0.4182                 1.2114                 2.1627
 IR Inten    --      1.7602                 2.7359                 0.3187

                     13                     14                     15
                      A                      A                      A
 Frequencies --    662.2601               774.5503               806.4964
 Red. masses --      4.5966                 1.6498                 2.0226
 Frc consts  --      1.1878                 0.5831                 0.7751
 IR Inten    --      8.6013                 3.1886                 1.6753

                     16                     17                     18
                      A                      A                      A
 Frequencies --    873.5801               972.7103               994.3833
 Red. masses --      2.2661                 1.3001                 1.5453
 Frc consts  --      1.0189                 0.7247                 0.9003
 IR Inten    --      0.5795                 8.2903                 2.5427

                     19                     20                     21
                      A                      A                      A
 Frequencies --   1032.9549              1065.1544              1132.9010
 Red. masses --      2.0454                 2.1264                 2.5580
 Frc consts  --      1.2858                 1.4214                 1.9343
 IR Inten    --     23.4781                38.6500                35.7456

                     22                     23                     24
                      A                      A                      A
 Frequencies --   1162.8553              1200.0117              1207.0304
 Red. masses --      3.3257                 2.2104                 5.6683
 Frc consts  --      2.6496                 1.8754                 4.8656
 IR Inten    --    145.2042                30.9033               166.7193

                     25                     26                     27
                      A                      A                      A
 Frequencies --   1277.2263              1296.5244              1342.7763
 Red. masses --      2.8230                 1.4695                 1.3354
 Frc consts  --      2.7133                 1.4554                 1.4186
 IR Inten    --    120.4710                22.7217                22.2415

                     28                     29                     30
                      A                      A                      A
 Frequencies --   1364.6314              1398.9345              1411.1936
 Red. masses --      1.5071                 1.6471                 1.2992
 Frc consts  --      1.6536                 1.8992                 1.5244
 IR Inten    --      7.7563                27.9072                 2.0756

                     31                     32                     33
                      A                      A                      A
 Frequencies --   1417.3950              1489.3739              1495.0228
 Red. masses --      1.2187                 1.0609                 1.0445
 Frc consts  --      1.4426                 1.3866                 1.3755
 IR Inten    --      5.7308                 0.1735                 5.4230

                     34                     35                     36
                      A                      A                      A
 Frequencies --   1501.7336              1510.0414              1512.7104
 Red. masses --      1.0478                 1.0784                 1.0507
 Frc consts  --      1.3922                 1.4488                 1.4166
 IR Inten    --      6.0380                 4.5120                10.3905

                     37                     38                     39
                      A                      A                      A
 Frequencies --   3031.8568              3035.2021              3042.9257
 Red. masses --      1.0780                 1.0388                 1.0624
 Frc consts  --      5.8384                 5.6386                 5.7959
 IR Inten    --      4.4460                15.2966                27.7154

                     40                     41                     42
                      A                      A                      A
 Frequencies --   3052.1075              3078.9508              3104.2317
 Red. masses --      1.0373                 1.0998                 1.1010
 Frc consts  --      5.6931                 6.1427                 6.2510
 IR Inten    --     13.0114                 3.5214                34.0619

                     43                     44                     45
                      A                      A                      A
 Frequencies --   3111.9294              3123.9650              3133.7407
 Red. masses --      1.1014                 1.1003                 1.1017
 Frc consts  --      6.2845                 6.3267                 6.3746
 IR Inten    --     38.5066                19.5192                16.5211

 - Thermochemistry -
 -------------------
 Temperature   298.150 Kelvin.  Pressure   1.00000 Atm.
 Atom     1 has atomic number  6 and mass  12.00000

 Molecular mass:   126.06564 amu.
 Principal axes and moments of inertia in atomic units:
                           1         2         3
     Eigenvalues --   584.674321287.697711493.67572
           X            0.99992   0.01201   0.00421
           Y           -0.01199   0.99992  -0.00423
           Z           -0.00426   0.00418   0.99998
 This molecule is an asymmetric top.
 Rotational symmetry number  1.
 Warning -- assumption of classical behavior for rotation
           may cause significant error
 Rotational temperatures (Kelvin)      0.14814     0.06726     0.05799
 Rotational constants (GHZ):           3.08675     1.40153     1.20826
 Zero-point vibrational energy     360536.5 (Joules/Mol)
                                   86.17029 (Kcal/Mol)
 Warning -- explicit consideration of  12 degrees of freedom as
           vibrations may cause significant error
 Vibrational temperatures:     99.96   112.10   271.74   290.28   312.06
          (Kelvin)            396.94   441.26   496.39   572.40   656.37
                              793.56   822.33   952.84  1114.41  1160.37
                             1256.89  1399.51  1430.70  1486.19  1532.52
                             1629.99  1673.09  1726.55  1736.65  1837.64
                             1865.41  1931.96  1963.40  2012.75  2030.39
                             2039.32  2142.88  2151.00  2160.66  2172.61
                             2176.45  4362.17  4366.98  4378.09  4391.30
                             4429.92  4466.30  4477.37  4494.69  4508.75

 Zero-point correction=                           0.137321 (Hartree/Particle)
 Thermal correction to Energy=                    0.146215
 Thermal correction to Enthalpy=                  0.147159
 Thermal correction to Gibbs Free Energy=         0.103457
 Sum of electronic and zero-point Energies=           -495.392393
 Sum of electronic and thermal Energies=              -495.383500
 Sum of electronic and thermal Enthalpies=            -495.382556
 Sum of electronic and thermal Free Energies=         -495.426258

                     E (Thermal)             CV                S
                      KCal/Mol        Cal/Mol-Kelvin    Cal/Mol-Kelvin
 Total                   91.751             31.764             91.979
 Electronic               0.000              0.000              0.000
 Translational            0.889              2.981             40.408
 Rotational               0.889              2.981             28.510
 Vibrational             89.974             25.802             23.060
 Vibration     1          0.598              1.969              4.168
 Vibration     2          0.599              1.964              3.943
 Vibration     3          0.633              1.855              2.239
 Vibration     4          0.639              1.837              2.117
 Vibration     5          0.646              1.815              1.985
 Vibration     6          0.678              1.718              1.559
 Vibration     7          0.697              1.661              1.380
 Vibration     8          0.723              1.585              1.189
 Vibration     9          0.764              1.475              0.971
 Vibration    10          0.814              1.347              0.777
 Vibration    11          0.907              1.136              0.541
 Vibration    12          0.928              1.093              0.501

 Optimization completed.
    -- Stationary point found.
 Normal termination of Gaussian 16 at Sat May 27 19:46:34 2023.
