 Gaussian 16, Revision A.03,
 Gaussian 16:  ES64L-G16RevA.03 25-Dec-2016

 -----------------------------
 # opt freq b3lyp/6-31g(2df,p)
 -----------------------------

 -------------------
 Title Card Required
 -------------------
 Symbolic Z-matrix:
 Charge =  0 Multiplicity = 1

 SCF Done:  E(RB3LYP) =  -554.913754597     A.U. after   14 cycles
 SCF Done:  E(RB3LYP) =  -554.924199546     A.U. after   14 cycles
 SCF Done:  E(RB3LYP) =  -554.928252046     A.U. after   12 cycles
 SCF Done:  E(RB3LYP) =  -554.930295865     A.U. after   12 cycles
 SCF Done:  E(RB3LYP) =  -554.932487805     A.U. after   14 cycles
 SCF Done:  E(RB3LYP) =  -554.933320516     A.U. after   13 cycles
 SCF Done:  E(RB3LYP) =  -554.934190814     A.U. after   12 cycles
 SCF Done:  E(RB3LYP) =  -554.934658062     A.U. after   11 cycles
 SCF Done:  E(RB3LYP) =  -554.934904896     A.U. after   12 cycles
 SCF Done:  E(RB3LYP) =  -554.934997225     A.U. after   10 cycles
 SCF Done:  E(RB3LYP) =  -554.935767831     A.U. after   11 cycles
 SCF Done:  E(RB3LYP) =  -554.933197055     A.U. after   14 cycles
 SCF Done:  E(RB3LYP) =  -554.936129093     A.U. after   11 cycles
 SCF Done:  E(RB3LYP) =  -554.936178732     A.U. after   10 cycles
 SCF Done:  E(RB3LYP) =  -554.936191968     A.U. after    9 cycles
 SCF Done:  E(RB3LYP) =  -554.936194540     A.U. after    8 cycles
 SCF Done:  E(RB3LYP) =  -554.936196264     A.U. after    8 cycles
 SCF Done:  E(RB3LYP) =  -554.936196711     A.U. after    7 cycles
 SCF Done:  E(RB3LYP) =  -554.936196992     A.U. after    7 cycles
 Optimization completed.
    -- Stationary point found.
 Normal termination of Gaussian 16 at Tue May 23 04:38:37 2023.

 ----------------------------------------------------------------------
 #N Geom=AllCheck Guess=TCheck SCRF=Check GenChk RB3LYP/6-31G(2df,p) Fr
 eq
 ----------------------------------------------------------------------

 Structure from the checkpoint file:  "CCCqdOrC1OC1qCrCNO.chk"
 -------------------
 Title Card Required
 -------------------
 Charge =  0 Multiplicity = 1

                         Standard orientation:
 ---------------------------------------------------------------------
 Center     Atomic      Atomic             Coordinates (Angstroms)
 Number     Number       Type             X           Y           Z
 ---------------------------------------------------------------------
      1          6           0        4.009204   -0.142948   -0.461333
      2          6           0        2.750911    0.385733    0.221054
      3          6           0        1.610420   -0.612953    0.233723
      4          8           0        1.727505   -1.763863   -0.124431
      5          6           0        0.280669   -0.160394    0.792497
      6          8           0        0.082734    1.218657    1.105891
      7          6           0       -0.696757    0.664686    0.038590
      8          6           0       -0.424530    1.187588   -1.353086
      9          6           0       -2.165394    0.481478    0.389144
     10          7           0       -2.739704   -0.573341   -0.448787
     11          8           0       -4.090924   -0.784890   -0.004262
     12          1           0        4.818089    0.589986   -0.399271
     13          1           0        3.822052   -0.359783   -1.516779
     14          1           0        4.343825   -1.072592    0.005081
     15          1           0        2.400400    1.325313   -0.219725
     16          1           0        2.943115    0.644871    1.273061
     17          1           0       -0.122866   -0.865901    1.521430
     18          1           0        0.638027    1.196977   -1.598091
     19          1           0       -0.806133    2.210542   -1.441672
     20          1           0       -0.951206    0.567748   -2.083266
     21          1           0       -2.713350    1.406841    0.178244
     22          1           0       -2.260304    0.274820    1.464186
     23          1           0       -2.272612   -1.449377   -0.216426
     24          1           0       -4.602772   -0.634435   -0.806380
 ---------------------------------------------------------------------

 SCF Done:  E(RB3LYP) =  -554.936196992     A.U. after    1 cycles

 The electronic state is 1-A.
 Alpha  occ. eigenvalues --  -19.16599 -19.16455 -19.13571 -14.37271 -10.27458
 Alpha  occ. eigenvalues --  -10.26182 -10.24783 -10.21646 -10.19498 -10.18996
 Alpha  occ. eigenvalues --  -10.17805  -1.08898  -1.05733  -1.04507  -0.84967
 Alpha  occ. eigenvalues --   -0.78250  -0.75628  -0.70852  -0.68226  -0.64358
 Alpha  occ. eigenvalues --   -0.58302  -0.53625  -0.51939  -0.50194  -0.49044
 Alpha  occ. eigenvalues --   -0.47832  -0.45550  -0.44611  -0.44216  -0.42460
 Alpha  occ. eigenvalues --   -0.41570  -0.40224  -0.38830  -0.38268  -0.38086
 Alpha  occ. eigenvalues --   -0.36683  -0.36073  -0.34614  -0.30941  -0.29488
 Alpha  occ. eigenvalues --   -0.28320  -0.24928  -0.24760
 Alpha virt. eigenvalues --   -0.02577   0.06668   0.07798   0.08889   0.09346
 Alpha virt. eigenvalues --    0.11570   0.12421   0.13526   0.14025   0.14678
 Alpha virt. eigenvalues --    0.15383   0.15632   0.16684   0.17193   0.18947

 Mulliken charges:
               1
     1  C   -0.382974
     2  C   -0.282641
     3  C    0.334629
     4  O   -0.309766
     5  C   -0.101199
     6  O   -0.286442
     7  C    0.366679
     8  C   -0.468457
     9  C   -0.166725
    10  N   -0.223867
    11  O   -0.412417
    12  H    0.112486
    13  H    0.127485
    14  H    0.135298
    15  H    0.134081
    16  H    0.134953
    17  H    0.112634
    18  H    0.126041
    19  H    0.130589
    20  H    0.150122
    21  H    0.112395
    22  H    0.110116
    23  H    0.244427
    24  H    0.302551
 Sum of Mulliken charges =  -0.00000

 Dipole moment (field-independent basis, Debye):
    X=             -0.4239    Y=              1.4367    Z=             -0.8097  Tot=              1.7028
 Quadrupole moment (field-independent basis, Debye-Ang):
   XX=            -61.8498   YY=            -70.4658   ZZ=            -65.0183
   XY=              2.4700   XZ=              5.1518   YZ=             -3.3976

  Exact polarizability: 116.288  -2.078  84.043   1.208  -1.295  76.910
 Approx polarizability: 137.330  -4.588 138.794   3.963   3.772 117.980

                      1                      2                      3
                      A                      A                      A
 Frequencies --     42.4479                51.0706                69.4541
 Red. masses --      3.5786                 4.7739                 2.3497
 Frc consts  --      0.0038                 0.0073                 0.0067
 IR Inten    --      0.3726                 0.7497                 3.8403

                      4                      5                      6
                      A                      A                      A
 Frequencies --     98.3214               114.2763               154.6582
 Red. masses --      4.1935                 2.3481                 1.9606
 Frc consts  --      0.0239                 0.0181                 0.0276
 IR Inten    --      2.5990                 0.2770                 0.4304

                      7                      8                      9
                      A                      A                      A
 Frequencies --    174.3975               189.6583               207.5835
 Red. masses --      1.1358                 2.7439                 1.7051
 Frc consts  --      0.0204                 0.0582                 0.0433
 IR Inten    --      0.4139                 2.1366                 0.4935

                     10                     11                     12
                      A                      A                      A
 Frequencies --    268.4682               288.4963               318.2729
 Red. masses --      3.7576                 3.1934                 1.4558
 Frc consts  --      0.1596                 0.1566                 0.0869
 IR Inten    --      5.6704                 6.0336                76.2311

                     13                     14                     15
                      A                      A                      A
 Frequencies --    351.0043               379.4725               455.8467
 Red. masses --      2.2323                 2.8890                 3.8658
 Frc consts  --      0.1620                 0.2451                 0.4733
 IR Inten    --     12.9886                 8.1279                13.5079

                     16                     17                     18
                      A                      A                      A
 Frequencies --    473.1778               504.7400               567.2252
 Red. masses --      4.7002                 4.1441                 2.9414
 Frc consts  --      0.6200                 0.6220                 0.5576
 IR Inten    --      3.0569                 0.5575                11.2912

                     19                     20                     21
                      A                      A                      A
 Frequencies --    632.9376               739.1418               763.6329
 Red. masses --      3.0615                 2.7261                 3.0004
 Frc consts  --      0.7226                 0.8775                 1.0308
 IR Inten    --     11.4091                 2.7479                 6.0574

                     22                     23                     24
                      A                      A                      A
 Frequencies --    811.8723               858.9912               899.8109
 Red. masses --      1.8353                 3.5569                 1.8041
 Frc consts  --      0.7127                 1.5463                 0.8606
 IR Inten    --      6.5736                49.0149                33.2281

                     25                     26                     27
                      A                      A                      A
 Frequencies --    944.1681               963.9360               998.7223
 Red. masses --      3.0496                 1.8495                 1.7746
 Frc consts  --      1.6018                 1.0125                 1.0429
 IR Inten    --     11.0561                 8.7610                 2.0454

                     28                     29                     30
                      A                      A                      A
 Frequencies --   1033.2292              1037.3349              1059.0072
 Red. masses --      2.0265                 1.5686                 1.7726
 Frc consts  --      1.2747                 0.9945                 1.1713
 IR Inten    --      5.6321                15.2423                38.8540

                     31                     32                     33
                      A                      A                      A
 Frequencies --   1083.5531              1091.1852              1110.8915
 Red. masses --      2.6464                 2.1205                 1.7324
 Frc consts  --      1.8306                 1.4876                 1.2596
 IR Inten    --     12.9564                 5.5664                 1.4445

                     34                     35                     36
                      A                      A                      A
 Frequencies --   1139.6808              1195.6199              1231.8501
 Red. masses --      2.1740                 2.4846                 1.4480
 Frc consts  --      1.6637                 2.0926                 1.2946
 IR Inten    --     36.5428                33.4875                13.5003

                     37                     38                     39
                      A                      A                      A
 Frequencies --   1256.4679              1271.3075              1326.0126
 Red. masses --      1.5168                 1.4144                 1.3786
 Frc consts  --      1.4109                 1.3469                 1.4282
 IR Inten    --     32.2427                 9.5449                 3.9501

                     40                     41                     42
                      A                      A                      A
 Frequencies --   1353.4329              1374.9606              1388.2502
 Red. masses --      1.5342                 1.9073                 1.2216
 Frc consts  --      1.6558                 2.1245                 1.3871
 IR Inten    --      6.7393                25.3744                38.2022

                     43                     44                     45
                      A                      A                      A
 Frequencies --   1412.6310              1415.0805              1438.5763
 Red. masses --      1.2736                 1.2583                 1.8769
 Frc consts  --      1.4974                 1.4845                 2.2885
 IR Inten    --     10.2550                 4.0651                18.3572

                     46                     47                     48
                      A                      A                      A
 Frequencies --   1444.7466              1479.9006              1493.1062
 Red. masses --      1.3781                 1.0479                 1.0390
 Frc consts  --      1.6948                 1.3522                 1.3647
 IR Inten    --     35.2583                 1.4267                 5.6240

                     49                     50                     51
                      A                      A                      A
 Frequencies --   1495.2594              1498.6990              1502.5926
 Red. masses --      1.0962                 1.0561                 1.1624
 Frc consts  --      1.4440                 1.3976                 1.5462
 IR Inten    --      5.9841                 5.7575                 2.8414

                     52                     53                     54
                      A                      A                      A
 Frequencies --   1516.0369              1797.6732              3008.9207
 Red. masses --      1.0891                11.4717                 1.0628
 Frc consts  --      1.4748                21.8424                 5.6691
 IR Inten    --      4.7401               128.0177                30.4160

                     55                     56                     57
                      A                      A                      A
 Frequencies --   3016.8980              3047.4320              3050.7192
 Red. masses --      1.0720                 1.0403                 1.0353
 Frc consts  --      5.7486                 5.6923                 5.6772
 IR Inten    --      9.7195                 9.2573                23.4392

                     58                     59                     60
                      A                      A                      A
 Frequencies --   3066.7124              3072.4107              3094.1245
 Red. masses --      1.0992                 1.0862                 1.0863
 Frc consts  --      6.0907                 6.0412                 6.1276
 IR Inten    --     23.7845                10.1248                14.3510

                     61                     62                     63
                      A                      A                      A
 Frequencies --   3115.8895              3119.4476              3129.0838
 Red. masses --      1.0967                 1.1020                 1.1014
 Frc consts  --      6.2732                 6.3184                 6.3537
 IR Inten    --      9.0941                22.0042                17.1944

                     64                     65                     66
                      A                      A                      A
 Frequencies --   3147.9790              3453.5376              3802.0043
 Red. masses --      1.1009                 1.0751                 1.0683
 Frc consts  --      6.4275                 7.5547                 9.0986
 IR Inten    --     14.4390                 0.7840                41.7168

 - Thermochemistry -
 -------------------
 Temperature   298.150 Kelvin.  Pressure   1.00000 Atm.
 Atom     1 has atomic number  6 and mass  12.00000

 Molecular mass:   159.08954 amu.
 Principal axes and moments of inertia in atomic units:
                           1         2         3
     Eigenvalues --   756.024863531.468473747.34887
           X            0.99999   0.00271  -0.00291
           Y           -0.00296   0.99606  -0.08861
           Z            0.00266   0.08862   0.99606
 This molecule is an asymmetric top.
 Rotational symmetry number  1.
 Warning -- assumption of classical behavior for rotation
           may cause significant error
 Rotational temperatures (Kelvin)      0.11456     0.02453     0.02311
 Rotational constants (GHZ):           2.38715     0.51105     0.48160
 Zero-point vibrational energy     525723.0 (Joules/Mol)
                                  125.65082 (Kcal/Mol)
 Warning -- explicit consideration of  18 degrees of freedom as
           vibrations may cause significant error
 Vibrational temperatures:     61.07    73.48    99.93   141.46   164.42
          (Kelvin)            222.52   250.92   272.88   298.67   386.27
                              415.08   457.92   505.02   545.98   655.86
                              680.80   726.21   816.11   910.66  1063.46
                             1098.70  1168.10  1235.90  1294.63  1358.45
                             1386.89  1436.94  1486.59  1492.49  1523.68
                             1558.99  1569.97  1598.33  1639.75  1720.23
                             1772.36  1807.78  1829.13  1907.84  1947.29
                             1978.26  1997.38  2032.46  2035.99  2069.79
                             2078.67  2129.25  2148.25  2151.34  2156.29
                             2161.90  2181.24  2586.45  4329.17  4340.64
                             4384.57  4389.30  4412.32  4420.51  4451.76
                             4483.07  4488.19  4502.05  4529.24  4968.87
                             5470.24

 Zero-point correction=                           0.200237 (Hartree/Particle)
 Thermal correction to Energy=                    0.213233
 Thermal correction to Enthalpy=                  0.214177
 Thermal correction to Gibbs Free Energy=         0.160160
 Sum of electronic and zero-point Energies=           -554.735960
 Sum of electronic and thermal Energies=              -554.722964
 Sum of electronic and thermal Enthalpies=            -554.722020
 Sum of electronic and thermal Free Energies=         -554.776037

                     E (Thermal)             CV                S
                      KCal/Mol        Cal/Mol-Kelvin    Cal/Mol-Kelvin
 Total                  133.806             45.918            113.688
 Electronic               0.000              0.000              0.000
 Translational            0.889              2.981             41.102
 Rotational               0.889              2.981             30.682
 Vibrational            132.028             39.956             41.904
 Vibration     1          0.595              1.980              5.141
 Vibration     2          0.595              1.977              4.775
 Vibration     3          0.598              1.969              4.169
 Vibration     4          0.604              1.950              3.487
 Vibration     5          0.607              1.938              3.195
 Vibration     6          0.620              1.897              2.614
 Vibration     7          0.627              1.874              2.388
 Vibration     8          0.633              1.854              2.231
 Vibration     9          0.641              1.829              2.065
 Vibration    10          0.673              1.731              1.606
 Vibration    11          0.685              1.695              1.483
 Vibration    12          0.705              1.639              1.319
 Vibration    13          0.728              1.573              1.162
 Vibration    14          0.749              1.514              1.041
 Vibration    15          0.814              1.348              0.778
 Vibration    16          0.830              1.310              0.729
 Vibration    17          0.860              1.239              0.646
 Vibration    18          0.923              1.102              0.510

                           ! Non-Optimized Parameters !
 Normal termination of Gaussian 16 at Tue May 23 05:25:35 2023.
