 Gaussian 16, Revision A.03,
 Gaussian 16:  ES64L-G16RevA.03 25-Dec-2016

 -----------------------------
 # opt freq b3lyp/6-31g(2df,p)
 -----------------------------

 -------------------
 Title Card Required
 -------------------
 Symbolic Z-matrix:
 Charge =  0 Multiplicity = 1

 SCF Done:  E(RB3LYP) =  -508.829336238     A.U. after   12 cycles
 SCF Done:  E(RB3LYP) =  -508.860821024     A.U. after   12 cycles
 SCF Done:  E(RB3LYP) =  -508.878574440     A.U. after   11 cycles
 SCF Done:  E(RB3LYP) =  -508.886870127     A.U. after   10 cycles
 SCF Done:  E(RB3LYP) =  -508.889675430     A.U. after   10 cycles
 SCF Done:  E(RB3LYP) =  -508.891816898     A.U. after   10 cycles
 SCF Done:  E(RB3LYP) =  -508.892949926     A.U. after   10 cycles
 SCF Done:  E(RB3LYP) =  -508.894097387     A.U. after   12 cycles
 SCF Done:  E(RB3LYP) =  -508.895176974     A.U. after   10 cycles
 SCF Done:  E(RB3LYP) =  -508.895308437     A.U. after   12 cycles
 SCF Done:  E(RB3LYP) =  -508.897193585     A.U. after    9 cycles
 SCF Done:  E(RB3LYP) =  -508.897380305     A.U. after    9 cycles
 SCF Done:  E(RB3LYP) =  -508.897426724     A.U. after    8 cycles
 SCF Done:  E(RB3LYP) =  -508.897471307     A.U. after    8 cycles
 SCF Done:  E(RB3LYP) =  -508.897501423     A.U. after    9 cycles
 SCF Done:  E(RB3LYP) =  -508.897502885     A.U. after    8 cycles
 SCF Done:  E(RB3LYP) =  -508.897503259     A.U. after    6 cycles
 SCF Done:  E(RB3LYP) =  -508.897503841     A.U. after    6 cycles
 SCF Done:  E(RB3LYP) =  -508.897503923     A.U. after    6 cycles
 Optimization completed.
    -- Stationary point found.
 Normal termination of Gaussian 16 at Tue May 23 03:47:21 2023.

 ----------------------------------------------------------------------
 #N Geom=AllCheck Guess=TCheck SCRF=Check GenChk RB3LYP/6-31G(2df,p) Fr
 eq
 ----------------------------------------------------------------------

 Structure from the checkpoint file:  "CCCqCCrOCqCrCCqCrC.chk"
 -------------------
 Title Card Required
 -------------------
 Charge =  0 Multiplicity = 1

                         Standard orientation:
 ---------------------------------------------------------------------
 Center     Atomic      Atomic             Coordinates (Angstroms)
 Number     Number       Type             X           Y           Z
 ---------------------------------------------------------------------
      1          6           0        2.650615   -2.146417    0.814058
      2          6           0        1.851682   -1.386163   -0.251648
      3          6           0        1.735607    0.137545   -0.016514
      4          6           0        2.813116    0.973765   -0.717669
      5          6           0        4.260638    0.666453   -0.326686
      6          8           0        0.497928    0.629874   -0.529679
      7          6           0       -0.640997    0.491622    0.321189
      8          6           0       -0.664202    1.622408    1.355165
      9          6           0       -1.882600    0.483357   -0.593561
     10          6           0       -2.987411   -0.522912   -0.219755
     11          6           0       -3.605689   -0.267423    1.162048
     12          6           0       -4.077619   -0.534134   -1.300334
     13          1           0        2.674032   -3.218288    0.592896
     14          1           0        2.197127   -2.023315    1.804174
     15          1           0        3.685862   -1.802197    0.884426
     16          1           0        0.836321   -1.795921   -0.283966
     17          1           0        2.277779   -1.564478   -1.247084
     18          1           0        1.790435    0.329625    1.067637
     19          1           0        2.589999    2.026176   -0.510574
     20          1           0        2.681595    0.841299   -1.798911
     21          1           0        4.414373    0.751348    0.755016
     22          1           0        4.943073    1.371306   -0.811727
     23          1           0        4.564716   -0.339889   -0.629639
     24          1           0       -0.584430   -0.476609    0.844978
     25          1           0       -0.682483    2.588473    0.840724
     26          1           0        0.218556    1.596471    2.001565
     27          1           0       -1.548225    1.556303    1.995628
     28          1           0       -1.523650    0.247981   -1.600376
     29          1           0       -2.312351    1.493048   -0.645690
     30          1           0       -2.527069   -1.521989   -0.199728
     31          1           0       -4.046468    0.735568    1.215740
     32          1           0       -2.868794   -0.352468    1.966313
     33          1           0       -4.402250   -0.989592    1.370853
     34          1           0       -4.574846    0.441278   -1.364752
     35          1           0       -4.846042   -1.282910   -1.080786
     36          1           0       -3.659519   -0.758824   -2.287045
 ---------------------------------------------------------------------

 SCF Done:  E(RB3LYP) =  -508.897503923     A.U. after    1 cycles

 The electronic state is 1-A.
 Alpha  occ. eigenvalues --  -19.12284 -10.22444 -10.22177 -10.18459 -10.17386
 Alpha  occ. eigenvalues --  -10.17252 -10.17226 -10.17218 -10.17013 -10.16818
 Alpha  occ. eigenvalues --  -10.16817 -10.16790  -1.01584  -0.81062  -0.78920
 Alpha  occ. eigenvalues --   -0.74595  -0.74216  -0.68358  -0.67575  -0.66424
 Alpha  occ. eigenvalues --   -0.61287  -0.58221  -0.55959  -0.55243  -0.49191
 Alpha  occ. eigenvalues --   -0.46927  -0.45871  -0.44444  -0.43643  -0.42299
 Alpha  occ. eigenvalues --   -0.41817  -0.40191  -0.39617  -0.38832  -0.38581
 Alpha  occ. eigenvalues --   -0.38199  -0.37595  -0.37122  -0.35469  -0.34814
 Alpha  occ. eigenvalues --   -0.34632  -0.33886  -0.33165  -0.31951  -0.31621
 Alpha  occ. eigenvalues --   -0.31341  -0.30776  -0.28968  -0.23899
 Alpha virt. eigenvalues --    0.07784   0.09077   0.10028   0.10564   0.12377
 Alpha virt. eigenvalues --    0.12761   0.13200   0.13613   0.14330   0.14999
 Alpha virt. eigenvalues --    0.15430   0.15778   0.16291   0.16785   0.17710

 Mulliken charges:
               1
     1  C   -0.387590
     2  C   -0.185132
     3  C    0.140223
     4  C   -0.182323
     5  C   -0.391324
     6  O   -0.283797
     7  C    0.133441
     8  C   -0.403248
     9  C   -0.197573
    10  C    0.039287
    11  C   -0.380816
    12  C   -0.388150
    13  H    0.112554
    14  H    0.112726
    15  H    0.120960
    16  H    0.101423
    17  H    0.094884
    18  H    0.058314
    19  H    0.098697
    20  H    0.102675
    21  H    0.112978
    22  H    0.113482
    23  H    0.120690
    24  H    0.061718
    25  H    0.121627
    26  H    0.111816
    27  H    0.116100
    28  H    0.106294
    29  H    0.086875
    30  H    0.070553
    31  H    0.111082
    32  H    0.114198
    33  H    0.107853
    34  H    0.111631
    35  H    0.107030
    36  H    0.110843
 Sum of Mulliken charges =  -0.00000

 Dipole moment (field-independent basis, Debye):
    X=              0.0397    Y=             -0.4801    Z=              0.7469  Tot=              0.8888
 Quadrupole moment (field-independent basis, Debye-Ang):
   XX=            -77.4392   YY=            -79.1706   ZZ=            -80.0360
   XY=             -0.0204   XZ=             -0.3049   YZ=              0.8375

  Exact polarizability: 149.093   1.304 117.443  -0.250   0.426 112.988
 Approx polarizability: 175.694  -0.834 169.002  -1.294  -0.446 169.030

                      1                      2                      3
                      A                      A                      A
 Frequencies --     30.6077                31.7563                53.5875
 Red. masses --      2.8187                 3.2967                 2.8631
 Frc consts  --      0.0016                 0.0020                 0.0048
 IR Inten    --      0.0222                 0.0245                 0.1134

                      4                      5                      6
                      A                      A                      A
 Frequencies --     70.3393                91.8145               119.3401
 Red. masses --      2.3370                 2.4576                 1.9056
 Frc consts  --      0.0068                 0.0122                 0.0160
 IR Inten    --      0.2355                 0.2324                 0.5846

                      7                      8                      9
                      A                      A                      A
 Frequencies --    155.0974               190.3527               199.8336
 Red. masses --      2.3251                 2.5798                 1.3110
 Frc consts  --      0.0330                 0.0551                 0.0308
 IR Inten    --      0.0870                 0.0856                 0.0559

                     10                     11                     12
                      A                      A                      A
 Frequencies --    229.7609               232.4707               244.7242
 Red. masses --      1.2782                 1.0791                 1.3733
 Frc consts  --      0.0398                 0.0344                 0.0485
 IR Inten    --      0.0524                 0.0290                 0.0801

                     13                     14                     15
                      A                      A                      A
 Frequencies --    265.9146               272.6675               284.8873
 Red. masses --      1.4430                 1.5772                 1.4739
 Frc consts  --      0.0601                 0.0691                 0.0705
 IR Inten    --      0.0087                 0.1300                 0.0737

                     16                     17                     18
                      A                      A                      A
 Frequencies --    305.6816               315.7408               380.0933
 Red. masses --      2.2420                 2.6678                 2.4531
 Frc consts  --      0.1234                 0.1567                 0.2088
 IR Inten    --      0.1829                 0.3556                 1.1136

                     19                     20                     21
                      A                      A                      A
 Frequencies --    401.7949               432.0634               441.3837
 Red. masses --      1.9878                 2.9322                 2.4401
 Frc consts  --      0.1891                 0.3225                 0.2801
 IR Inten    --      0.7721                 3.8851                 1.4770

                     22                     23                     24
                      A                      A                      A
 Frequencies --    451.5786               527.0482               574.2657
 Red. masses --      2.3718                 2.6724                 3.1953
 Frc consts  --      0.2850                 0.4374                 0.6209
 IR Inten    --      2.4163                 0.8937                 2.4480

                     25                     26                     27
                      A                      A                      A
 Frequencies --    761.3536               771.8974               821.9878
 Red. masses --      1.2914                 1.2755                 2.7017
 Frc consts  --      0.4410                 0.4478                 1.0755
 IR Inten    --      2.7153                 0.4568                 0.7076

                     28                     29                     30
                      A                      A                      A
 Frequencies --    856.8822               865.4390               869.8757
 Red. masses --      1.8822                 1.5640                 1.5719
 Frc consts  --      0.8142                 0.6902                 0.7008
 IR Inten    --      1.7406                 0.6043                 2.4799

                     31                     32                     33
                      A                      A                      A
 Frequencies --    920.1968               926.8485               930.3112
 Red. masses --      2.0718                 1.4100                 1.4452
 Frc consts  --      1.0336                 0.7136                 0.7369
 IR Inten    --      2.7669                 7.5447                 6.2129

                     34                     35                     36
                      A                      A                      A
 Frequencies --    966.1184               983.1974              1013.8615
 Red. masses --      1.5344                 1.6736                 1.4988
 Frc consts  --      0.8438                 0.9532                 0.9077
 IR Inten    --      0.0698                 2.0786                 7.7909

                     37                     38                     39
                      A                      A                      A
 Frequencies --   1024.6433              1027.6534              1049.6611
 Red. masses --      1.4977                 2.0374                 2.5189
 Frc consts  --      0.9265                 1.2677                 1.6352
 IR Inten    --      2.6986                 6.0066                31.0932

                     40                     41                     42
                      A                      A                      A
 Frequencies --   1057.7730              1080.7669              1123.5866
 Red. masses --      1.9461                 3.6674                 2.2195
 Frc consts  --      1.2829                 2.5239                 1.6509
 IR Inten    --      5.8491               111.5793                51.0020

                     43                     44                     45
                      A                      A                      A
 Frequencies --   1136.9134              1148.7774              1162.2874
 Red. masses --      2.0764                 2.1951                 2.2660
 Frc consts  --      1.5813                 1.7068                 1.8036
 IR Inten    --     16.6704                30.6925                 4.4438

                     46                     47                     48
                      A                      A                      A
 Frequencies --   1189.1418              1194.7119              1200.4371
 Red. masses --      2.1255                 1.8013                 2.1321
 Frc consts  --      1.7708                 1.5148                 1.8102
 IR Inten    --     26.0298                 3.9008                 1.2357

                     49                     50                     51
                      A                      A                      A
 Frequencies --   1265.3553              1268.9862              1303.4376
 Red. masses --      1.2950                 1.2914                 1.2142
 Frc consts  --      1.2216                 1.2253                 1.2154
 IR Inten    --     14.7467                 3.7644                 4.5156

                     52                     53                     54
                      A                      A                      A
 Frequencies --   1307.9412              1330.9486              1333.5396
 Red. masses --      1.1581                 1.3147                 1.2323
 Frc consts  --      1.1672                 1.3722                 1.2912
 IR Inten    --      0.8108                 5.6433                19.0199

                     55                     56                     57
                      A                      A                      A
 Frequencies --   1360.1200              1365.3845              1377.7761
 Red. masses --      1.3766                 1.3556                 1.3086
 Frc consts  --      1.5004                 1.4890                 1.4636
 IR Inten    --      1.3769                10.8227                12.0500

                     58                     59                     60
                      A                      A                      A
 Frequencies --   1383.4201              1387.3930              1400.0888
 Red. masses --      1.4551                 1.4549                 1.2698
 Frc consts  --      1.6408                 1.6500                 1.4666
 IR Inten    --      4.9578                 5.5072                 3.1395

                     61                     62                     63
                      A                      A                      A
 Frequencies --   1405.1228              1411.2088              1415.2097
 Red. masses --      1.2586                 1.2396                 1.2315
 Frc consts  --      1.4641                 1.4545                 1.4533
 IR Inten    --     19.9943                 2.8571                 3.4152

                     64                     65                     66
                      A                      A                      A
 Frequencies --   1417.2895              1422.3976              1479.2590
 Red. masses --      1.3231                 1.2686                 1.0708
 Frc consts  --      1.5659                 1.5122                 1.3805
 IR Inten    --      0.9424                 1.6317                 0.1639

                     67                     68                     69
                      A                      A                      A
 Frequencies --   1481.8469              1488.3274              1489.1781
 Red. masses --      1.0675                 1.0547                 1.0488
 Frc consts  --      1.3811                 1.3765                 1.3704
 IR Inten    --      1.7417                 0.5251                 1.8666

                     70                     71                     72
                      A                      A                      A
 Frequencies --   1489.7640              1496.1782              1497.8367
 Red. masses --      1.0499                 1.0495                 1.0604
 Frc consts  --      1.3728                 1.3843                 1.4016
 IR Inten    --      3.0749                 0.3800                 4.0575

                     73                     74                     75
                      A                      A                      A
 Frequencies --   1499.6440              1502.2833              1505.6689
 Red. masses --      1.0548                 1.0523                 1.0548
 Frc consts  --      1.3976                 1.3993                 1.4089
 IR Inten    --      1.2328                 8.5564                 3.3745

                     76                     77                     78
                      A                      A                      A
 Frequencies --   1510.4252              1512.9797              1513.7723
 Red. masses --      1.0616                 1.0516                 1.0602
 Frc consts  --      1.4270                 1.4183                 1.4313
 IR Inten    --      1.5916                10.8277                 7.6696

                     79                     80                     81
                      A                      A                      A
 Frequencies --   2957.6000              2967.7815              2989.9723
 Red. masses --      1.0807                 1.0824                 1.0811
 Frc consts  --      5.5696                 5.6169                 5.6946
 IR Inten    --     20.6142                27.3144                14.6778

                     82                     83                     84
                      A                      A                      A
 Frequencies --   3017.8683              3021.8052              3027.1099
 Red. masses --      1.0623                 1.0365                 1.0610
 Frc consts  --      5.7006                 5.5763                 5.7282
 IR Inten    --     19.9516                29.7290                10.4261

                     85                     86                     87
                      A                      A                      A
 Frequencies --   3027.2832              3031.2041              3032.8038
 Red. masses --      1.0411                 1.0570                 1.0406
 Frc consts  --      5.6217                 5.7220                 5.6390
 IR Inten    --     31.6297                17.4295                18.4263

                     88                     89                     90
                      A                      A                      A
 Frequencies --   3034.9738              3038.4985              3064.9158
 Red. masses --      1.0384                 1.0356                 1.0983
 Frc consts  --      5.6354                 5.6332                 6.0785
 IR Inten    --     48.8404                18.9505                16.8585

                     91                     92                     93
                      A                      A                      A
 Frequencies --   3068.6336              3077.8545              3085.7829
 Red. masses --      1.1000                 1.0965                 1.1005
 Frc consts  --      6.1026                 6.1200                 6.1743
 IR Inten    --     13.0684                 9.4919                 3.4164

                     94                     95                     96
                      A                      A                      A
 Frequencies --   3092.2746              3096.0787              3097.7088
 Red. masses --      1.1000                 1.1008                 1.1006
 Frc consts  --      6.1972                 6.2173                 6.2225
 IR Inten    --     66.1590                27.2959                44.9338

                     97                     98                     99
                      A                      A                      A
 Frequencies --   3098.2379              3101.3468              3107.0389
 Red. masses --      1.1015                 1.1003                 1.1014
 Frc consts  --      6.2295                 6.2352                 6.2643
 IR Inten    --     36.8563                61.4224                59.7281

                    100                    101                    102
                      A                      A                      A
 Frequencies --   3107.3526              3117.8771              3118.0637
 Red. masses --      1.1014                 1.1000                 1.0995
 Frc consts  --      6.2660                 6.3003                 6.2980
 IR Inten    --     27.3825                 5.3681                39.1850

 - Thermochemistry -
 -------------------
 Temperature   298.150 Kelvin.  Pressure   1.00000 Atm.
 Atom     1 has atomic number  6 and mass  12.00000

 Molecular mass:   172.18272 amu.
 Principal axes and moments of inertia in atomic units:
                           1         2         3
     Eigenvalues --  1156.933104834.057865093.31133
           X            1.00000  -0.00222   0.00168
           Y            0.00220   0.99988   0.01533
           Z           -0.00171  -0.01533   0.99988
 This molecule is an asymmetric top.
 Rotational symmetry number  1.
 Warning -- assumption of classical behavior for rotation
           may cause significant error
 Rotational temperatures (Kelvin)      0.07487     0.01792     0.01701
 Rotational constants (GHZ):           1.55994     0.37334     0.35434
 Zero-point vibrational energy     875606.5 (Joules/Mol)
                                  209.27498 (Kcal/Mol)
 Warning -- explicit consideration of  24 degrees of freedom as
           vibrations may cause significant error
 Vibrational temperatures:     44.04    45.69    77.10   101.20   132.10
          (Kelvin)            171.70   223.15   273.88   287.52   330.57
                              334.47   352.10   382.59   392.31   409.89
                              439.81   454.28   546.87   578.09   621.64
                              635.05   649.72   758.30   826.24  1095.42
                             1110.59  1182.66  1232.86  1245.17  1251.56
                             1323.96  1333.53  1338.51  1390.03  1414.60
                             1458.72  1474.23  1478.56  1510.23  1521.90
                             1554.98  1616.59  1635.76  1652.83  1672.27
                             1710.91  1718.92  1727.16  1820.56  1825.79
                             1875.36  1881.84  1914.94  1918.67  1956.91
                             1964.48  1982.31  1990.43  1996.15  2014.42
                             2021.66  2030.41  2036.17  2039.16  2046.51
                             2128.32  2132.05  2141.37  2142.60  2143.44
                             2152.67  2155.05  2157.65  2161.45  2166.32
                             2173.16  2176.84  2177.98  4255.33  4269.98
                             4301.90  4342.04  4347.70  4355.34  4355.59
                             4361.23  4363.53  4366.65  4371.72  4409.73
                             4415.08  4428.35  4439.75  4449.09  4454.57
                             4456.91  4457.67  4462.15  4470.34  4470.79
                             4485.93  4486.20

 Zero-point correction=                           0.333501 (Hartree/Particle)
 Thermal correction to Energy=                    0.349650
 Thermal correction to Enthalpy=                  0.350595
 Thermal correction to Gibbs Free Energy=         0.289476
 Sum of electronic and zero-point Energies=           -508.564003
 Sum of electronic and thermal Energies=              -508.547854
 Sum of electronic and thermal Enthalpies=            -508.546909
 Sum of electronic and thermal Free Energies=         -508.608028

                     E (Thermal)             CV                S
                      KCal/Mol        Cal/Mol-Kelvin    Cal/Mol-Kelvin
 Total                  219.409             59.132            128.636
 Electronic               0.000              0.000              0.000
 Translational            0.889              2.981             41.338
 Rotational               0.889              2.981             31.722
 Vibrational            217.631             53.170             55.577
 Vibration     1          0.594              1.984              5.790
 Vibration     2          0.594              1.983              5.717
 Vibration     3          0.596              1.976              4.680
 Vibration     4          0.598              1.968              4.144
 Vibration     5          0.602              1.955              3.621
 Vibration     6          0.609              1.933              3.111
 Vibration     7          0.620              1.897              2.609
 Vibration     8          0.634              1.853              2.224
 Vibration     9          0.638              1.840              2.135
 Vibration    10          0.652              1.796              1.881
 Vibration    11          0.653              1.791              1.860
 Vibration    12          0.660              1.772              1.768
 Vibration    13          0.672              1.736              1.623
 Vibration    14          0.676              1.724              1.579
 Vibration    15          0.683              1.702              1.504
 Vibration    16          0.696              1.663              1.386
 Vibration    17          0.703              1.644              1.332
 Vibration    18          0.750              1.513              1.039
 Vibration    19          0.767              1.466              0.956
 Vibration    20          0.793              1.400              0.852
 Vibration    21          0.801              1.380              0.822
 Vibration    22          0.810              1.357              0.791
 Vibration    23          0.882              1.190              0.594
 Vibration    24          0.931              1.087              0.496

                           ! Non-Optimized Parameters !
 Normal termination of Gaussian 16 at Tue May 23 05:25:22 2023.
