 Gaussian 16, Revision A.03,
 Gaussian 16:  ES64L-G16RevA.03 25-Dec-2016

 -----------------------------
 # opt freq b3lyp/6-31g(2df,p)
 -----------------------------

 -------------------
 Title Card Required
 -------------------
 Symbolic Z-matrix:
 Charge =  0 Multiplicity = 1

 SCF Done:  E(RB3LYP) =  -315.725835640     A.U. after   12 cycles
 SCF Done:  E(RB3LYP) =  -315.728948674     A.U. after   10 cycles
 SCF Done:  E(RB3LYP) =  -315.730970669     A.U. after   10 cycles
 SCF Done:  E(RB3LYP) =  -315.732489444     A.U. after   10 cycles
 SCF Done:  E(RB3LYP) =  -315.733039927     A.U. after   10 cycles
 SCF Done:  E(RB3LYP) =  -315.733116335     A.U. after    8 cycles
 SCF Done:  E(RB3LYP) =  -315.733169292     A.U. after    9 cycles
 SCF Done:  E(RB3LYP) =  -315.733172507     A.U. after    8 cycles
 SCF Done:  E(RB3LYP) =  -315.733171794     A.U. after    7 cycles
 SCF Done:  E(RB3LYP) =  -315.733229106     A.U. after    8 cycles
 SCF Done:  E(RB3LYP) =  -315.734320313     A.U. after    8 cycles
 SCF Done:  E(RB3LYP) =  -315.734423252     A.U. after    8 cycles
 SCF Done:  E(RB3LYP) =  -315.734429017     A.U. after    8 cycles
 SCF Done:  E(RB3LYP) =  -315.734434379     A.U. after    8 cycles
 SCF Done:  E(RB3LYP) =  -315.734431560     A.U. after    8 cycles
 SCF Done:  E(RB3LYP) =  -315.734446953     A.U. after    8 cycles
 SCF Done:  E(RB3LYP) =  -315.734449522     A.U. after    8 cycles
 SCF Done:  E(RB3LYP) =  -315.734450775     A.U. after    7 cycles
 SCF Done:  E(RB3LYP) =  -315.734450819     A.U. after    5 cycles
 Optimization completed.
    -- Stationary point found.
 Normal termination of Gaussian 16 at Sun May 28 13:42:20 2023.

 ----------------------------------------------------------------------
 #N Geom=AllCheck Guess=TCheck SCRF=Check GenChk RB3LYP/6-31G(2df,p) Fr
 eq
 ----------------------------------------------------------------------

 Structure from the checkpoint file:  "CCCqCrCCqCrC.chk"
 -------------------
 Title Card Required
 -------------------
 Charge =  0 Multiplicity = 1

                         Standard orientation:
 ---------------------------------------------------------------------
 Center     Atomic      Atomic             Coordinates (Angstroms)
 Number     Number       Type             X           Y           Z
 ---------------------------------------------------------------------
      1          6           0       -3.316254   -0.399173   -0.509576
      2          6           0       -1.988323   -0.853534    0.104181
      3          6           0       -0.822710    0.145968   -0.041302
      4          6           0       -1.140983    1.488024    0.637668
      5          6           0        0.493992   -0.471024    0.498284
      6          6           0        1.748611   -0.251608   -0.370757
      7          6           0        2.119942    1.227149   -0.547592
      8          6           0        2.937250   -1.036819    0.201151
      9          1           0       -4.067854   -1.192362   -0.443799
     10          1           0       -3.195156   -0.145141   -1.569141
     11          1           0       -3.724937    0.480216   -0.002917
     12          1           0       -1.688995   -1.800493   -0.363165
     13          1           0       -2.133800   -1.076983    1.170680
     14          1           0       -0.693417    0.332953   -1.118014
     15          1           0       -1.372193    1.335133    1.699211
     16          1           0       -2.000071    1.986265    0.178758
     17          1           0       -0.294102    2.177231    0.583394
     18          1           0        0.360515   -1.554509    0.610623
     19          1           0        0.689406   -0.091156    1.511367
     20          1           0        1.527474   -0.660146   -1.368244
     21          1           0        2.326235    1.698906    0.420960
     22          1           0        1.323144    1.796351   -1.034797
     23          1           0        3.020404    1.330274   -1.162745
     24          1           0        3.203888   -0.670687    1.200104
     25          1           0        3.823312   -0.935901   -0.434642
     26          1           0        2.706990   -2.103838    0.290027
 ---------------------------------------------------------------------

 SCF Done:  E(RB3LYP) =  -315.734450819     A.U. after    1 cycles

 The electronic state is 1-A.
 Alpha  occ. eigenvalues --  -10.18174 -10.17910 -10.17313 -10.16857 -10.16833
 Alpha  occ. eigenvalues --  -10.16732 -10.16688 -10.16569  -0.81457  -0.77854
 Alpha  occ. eigenvalues --   -0.71945  -0.67904  -0.67048  -0.62136  -0.55646
 Alpha  occ. eigenvalues --   -0.54981  -0.45816  -0.45331  -0.44243  -0.42881
 Alpha  occ. eigenvalues --   -0.40166  -0.39308  -0.39206  -0.37889  -0.36947
 Alpha  occ. eigenvalues --   -0.35945  -0.34837  -0.34177  -0.32524  -0.31837
 Alpha  occ. eigenvalues --   -0.30852  -0.30500  -0.29301
 Alpha virt. eigenvalues --    0.08286   0.10159   0.11580   0.12762   0.13519
 Alpha virt. eigenvalues --    0.14200   0.14639   0.15360   0.16107   0.17118
 Alpha virt. eigenvalues --    0.17655   0.18064   0.18247   0.19103   0.19466

 Mulliken charges:
               1
     1  C   -0.390829
     2  C   -0.171001
     3  C    0.054985
     4  C   -0.395016
     5  C   -0.189439
     6  C    0.045751
     7  C   -0.378919
     8  C   -0.388093
     9  H    0.110086
    10  H    0.111292
    11  H    0.117577
    12  H    0.089789
    13  H    0.091261
    14  H    0.064945
    15  H    0.108930
    16  H    0.110809
    17  H    0.113861
    18  H    0.084224
    19  H    0.084751
    20  H    0.068769
    21  H    0.109449
    22  H    0.115616
    23  H    0.105994
    24  H    0.110477
    25  H    0.106762
    26  H    0.107965
 Sum of Mulliken charges =  -0.00000

 Dipole moment (field-independent basis, Debye):
    X=              0.0065    Y=             -0.0715    Z=             -0.0947  Tot=              0.1188
 Quadrupole moment (field-independent basis, Debye-Ang):
   XX=            -55.5024   YY=            -55.1120   ZZ=            -54.3545
   XY=              0.2369   XZ=             -0.2976   YZ=              0.1721

  Exact polarizability: 103.787  -0.270  85.429   0.173  -0.215  78.091
 Approx polarizability: 122.889   0.188 120.290  -0.190   0.269 120.847

                      1                      2                      3
                      A                      A                      A
 Frequencies --     50.1917                74.3869               104.7778
 Red. masses --      2.7063                 2.4675                 1.8685
 Frc consts  --      0.0040                 0.0080                 0.0121
 IR Inten    --      0.0033                 0.0105                 0.0038

                      4                      5                      6
                      A                      A                      A
 Frequencies --    171.7679               216.2287               231.8367
 Red. masses --      2.0472                 1.0426                 1.0534
 Frc consts  --      0.0356                 0.0287                 0.0334
 IR Inten    --      0.0109                 0.0420                 0.0259

                      7                      8                      9
                      A                      A                      A
 Frequencies --    251.6771               271.4609               282.7737
 Red. masses --      2.0217                 1.2078                 1.3622
 Frc consts  --      0.0755                 0.0524                 0.0642
 IR Inten    --      0.0193                 0.0236                 0.0127

                     10                     11                     12
                      A                      A                      A
 Frequencies --    312.0522               328.3122               403.5972
 Red. masses --      2.3836                 2.3352                 2.1954
 Frc consts  --      0.1368                 0.1483                 0.2107
 IR Inten    --      0.0746                 0.0992                 0.1416

                     13                     14                     15
                      A                      A                      A
 Frequencies --    408.1187               463.8917               504.8543
 Red. masses --      1.6561                 2.2103                 2.4097
 Frc consts  --      0.1625                 0.2802                 0.3619
 IR Inten    --      0.0979                 0.1110                 0.0207

                     16                     17                     18
                      A                      A                      A
 Frequencies --    775.7681               807.6938               837.7524
 Red. masses --      1.2900                 2.8082                 1.7770
 Frc consts  --      0.4574                 1.0794                 0.7348
 IR Inten    --      2.2804                 0.4795                 0.1113

                     19                     20                     21
                      A                      A                      A
 Frequencies --    869.5235               911.6797               928.4353
 Red. masses --      1.4904                 2.0285                 1.1946
 Frc consts  --      0.6639                 0.9933                 0.6067
 IR Inten    --      0.3390                 0.1353                 0.8705

                     22                     23                     24
                      A                      A                      A
 Frequencies --    964.1495               967.1631               978.6432
 Red. masses --      1.3556                 1.4581                 1.5213
 Frc consts  --      0.7425                 0.8036                 0.8584
 IR Inten    --      1.4171                 0.6915                 2.5243

                     25                     26                     27
                      A                      A                      A
 Frequencies --   1004.3438              1047.5209              1073.3608
 Red. masses --      1.6500                 2.8261                 1.4777
 Frc consts  --      0.9806                 1.8271                 1.0030
 IR Inten    --      4.1940                 0.1107                 0.6377

                     28                     29                     30
                      A                      A                      A
 Frequencies --   1102.0568              1161.2133              1184.6410
 Red. masses --      1.9886                 2.1333                 1.9687
 Frc consts  --      1.4230                 1.6948                 1.6278
 IR Inten    --      1.0061                 4.3560                 1.9200

                     31                     32                     33
                      A                      A                      A
 Frequencies --   1194.9773              1196.9296              1267.4316
 Red. masses --      1.8770                 1.9947                 1.3369
 Frc consts  --      1.5792                 1.6837                 1.2653
 IR Inten    --      1.2060                 2.7540                 6.3186

                     34                     35                     36
                      A                      A                      A
 Frequencies --   1286.9252              1308.7219              1342.1672
 Red. masses --      1.2106                 1.1837                 1.2778
 Frc consts  --      1.1813                 1.1945                 1.3563
 IR Inten    --      1.3235                 1.2862                 0.5107

                     37                     38                     39
                      A                      A                      A
 Frequencies --   1364.7607              1372.6721              1381.8355
 Red. masses --      1.3623                 1.3613                 1.4033
 Frc consts  --      1.4950                 1.5112                 1.5787
 IR Inten    --      5.5433                 3.8084                 1.7931

                     40                     41                     42
                      A                      A                      A
 Frequencies --   1387.4910              1400.3432              1410.2655
 Red. masses --      1.4221                 1.2734                 1.2710
 Frc consts  --      1.6130                 1.4713                 1.4894
 IR Inten    --      0.0827                 4.8505                 3.9700

                     43                     44                     45
                      A                      A                      A
 Frequencies --   1413.6390              1421.5812              1480.2063
 Red. masses --      1.2262                 1.2380                 1.0687
 Frc consts  --      1.4437                 1.4741                 1.3796
 IR Inten    --      3.1431                 1.6255                 0.2491

                     46                     47                     48
                      A                      A                      A
 Frequencies --   1484.4583              1489.1947              1495.9705
 Red. masses --      1.0632                 1.0492                 1.0451
 Frc consts  --      1.3803                 1.3710                 1.3781
 IR Inten    --      0.3655                 0.9992                 4.1747

                     49                     50                     51
                      A                      A                      A
 Frequencies --   1496.6404              1499.4183              1504.4614
 Red. masses --      1.0629                 1.0504                 1.0573
 Frc consts  --      1.4028                 1.3913                 1.4100
 IR Inten    --      2.3420                 6.4010                 1.8131

                     52                     53                     54
                      A                      A                      A
 Frequencies --   1506.5340              1513.0056              1514.5147
 Red. masses --      1.0630                 1.0463                 1.0516
 Frc consts  --      1.4215                 1.4112                 1.4212
 IR Inten    --      4.3163                 6.2315                 2.7297

                     55                     56                     57
                      A                      A                      A
 Frequencies --   2983.8356              2988.5024              3001.6952
 Red. masses --      1.0815                 1.0795                 1.0607
 Frc consts  --      5.6734                 5.6802                 5.6309
 IR Inten    --      3.6710                12.0929                 5.4549

                     58                     59                     60
                      A                      A                      A
 Frequencies --   3009.0583              3020.8447              3026.0398
 Red. masses --      1.0622                 1.0359                 1.0373
 Frc consts  --      5.6665                 5.5696                 5.5961
 IR Inten    --     52.9208                32.6125                18.7288

                     61                     62                     63
                      A                      A                      A
 Frequencies --   3028.6418              3030.7514              3038.8983
 Red. masses --      1.0400                 1.0407                 1.0986
 Frc consts  --      5.6208                 5.6324                 5.9777
 IR Inten    --     32.1365                22.2762                 9.2552

                     64                     65                     66
                      A                      A                      A
 Frequencies --   3044.8587              3084.2805              3090.2089
 Red. masses --      1.0992                 1.1005                 1.1001
 Frc consts  --      6.0045                 6.1683                 6.1898
 IR Inten    --     51.4749                 4.6528                61.9035

                     67                     68                     69
                      A                      A                      A
 Frequencies --   3093.9972              3094.2857              3095.9443
 Red. masses --      1.0975                 1.1000                 1.1012
 Frc consts  --      6.1899                 6.2055                 6.2189
 IR Inten    --     12.5965                49.1869                49.0864

                     70                     71                     72
                      A                      A                      A
 Frequencies --   3103.8498              3106.5091              3115.5459
 Red. masses --      1.1002                 1.0994                 1.0998
 Frc consts  --      6.2450                 6.2511                 6.2899
 IR Inten    --     62.0816                42.0645                15.6913

 - Thermochemistry -
 -------------------
 Temperature   298.150 Kelvin.  Pressure   1.00000 Atm.
 Atom     1 has atomic number  6 and mass  12.00000

 Molecular mass:   114.14085 amu.
 Principal axes and moments of inertia in atomic units:
                           1         2         3
     Eigenvalues --   499.167501933.712502186.43220
           X            1.00000  -0.00128   0.00231
           Y            0.00128   0.99999  -0.00297
           Z           -0.00231   0.00298   0.99999
 This molecule is an asymmetric top.
 Rotational symmetry number  1.
 Warning -- assumption of classical behavior for rotation
           may cause significant error
 Rotational temperatures (Kelvin)      0.17352     0.04479     0.03961
 Rotational constants (GHZ):           3.61550     0.93330     0.82543
 Zero-point vibrational energy     642285.6 (Joules/Mol)
                                  153.50994 (Kcal/Mol)
 Warning -- explicit consideration of  15 degrees of freedom as
           vibrations may cause significant error
 Vibrational temperatures:     72.21   107.03   150.75   247.14   311.10
          (Kelvin)            333.56   362.11   390.57   406.85   448.97
                              472.37   580.69   587.19   667.44   726.37
                             1116.16  1162.09  1205.34  1251.05  1311.70
                             1335.81  1387.20  1391.53  1408.05  1445.03
                             1507.15  1544.33  1585.61  1670.73  1704.43
                             1719.31  1722.11  1823.55  1851.60  1882.96
                             1931.08  1963.59  1974.97  1988.15  1996.29
                             2014.78  2029.06  2033.91  2045.34  2129.69
                             2135.80  2142.62  2152.37  2153.33  2157.33
                             2164.58  2167.57  2176.88  2179.05  4293.07
                             4299.79  4318.77  4329.36  4346.32  4353.80
                             4357.54  4360.58  4372.30  4380.87  4437.59
                             4446.12  4451.57  4451.99  4454.37  4465.75
                             4469.57  4482.58

 Zero-point correction=                           0.244634 (Hartree/Particle)
 Thermal correction to Energy=                    0.255581
 Thermal correction to Enthalpy=                  0.256526
 Thermal correction to Gibbs Free Energy=         0.208706
 Sum of electronic and zero-point Energies=           -315.489817
 Sum of electronic and thermal Energies=              -315.478869
 Sum of electronic and thermal Enthalpies=            -315.477925
 Sum of electronic and thermal Free Energies=         -315.525745

                     E (Thermal)             CV                S
                      KCal/Mol        Cal/Mol-Kelvin    Cal/Mol-Kelvin
 Total                  160.380             40.284            100.645
 Electronic               0.000              0.000              0.000
 Translational            0.889              2.981             40.112
 Rotational               0.889              2.981             29.136
 Vibrational            158.602             34.322             31.397
 Vibration     1          0.595              1.978              4.810
 Vibration     2          0.599              1.966              4.034
 Vibration     3          0.605              1.945              3.363
 Vibration     4          0.626              1.877              2.416
 Vibration     5          0.645              1.816              1.990
 Vibration     6          0.653              1.792              1.865
 Vibration     7          0.664              1.760              1.719
 Vibration     8          0.675              1.726              1.587
 Vibration     9          0.682              1.706              1.517
 Vibration    10          0.700              1.651              1.351
 Vibration    11          0.712              1.619              1.268
 Vibration    12          0.769              1.462              0.950
 Vibration    13          0.773              1.453              0.933
 Vibration    14          0.821              1.330              0.755
 Vibration    15          0.860              1.239              0.646

 Optimization completed.
    -- Stationary point found.
 Normal termination of Gaussian 16 at Sun May 28 14:14:51 2023.
