 Gaussian 16, Revision A.03,
 Gaussian 16:  ES64L-G16RevA.03 25-Dec-2016

 -----------------------------
 # opt freq b3lyp/6-31g(2df,p)
 -----------------------------

 -------------------
 Title Card Required
 -------------------
 Symbolic Z-matrix:
 Charge =  0 Multiplicity = 1

 SCF Done:  E(RB3LYP) =  -582.872813116     A.U. after   13 cycles
 SCF Done:  E(RB3LYP) =  -582.888087138     A.U. after   12 cycles
 SCF Done:  E(RB3LYP) =  -582.892449885     A.U. after   11 cycles
 SCF Done:  E(RB3LYP) =  -582.894078186     A.U. after   13 cycles
 SCF Done:  E(RB3LYP) =  -582.893862842     A.U. after   11 cycles
 SCF Done:  E(RB3LYP) =  -582.894104466     A.U. after   12 cycles
 SCF Done:  E(RB3LYP) =  -582.894794657     A.U. after   11 cycles
 SCF Done:  E(RB3LYP) =  -582.895023775     A.U. after   12 cycles
 SCF Done:  E(RB3LYP) =  -582.895358738     A.U. after   13 cycles
 SCF Done:  E(RB3LYP) =  -582.895576492     A.U. after   10 cycles
 SCF Done:  E(RB3LYP) =  -582.898061015     A.U. after   12 cycles
 SCF Done:  E(RB3LYP) =  -582.898084140     A.U. after   10 cycles
 SCF Done:  E(RB3LYP) =  -582.898096454     A.U. after    9 cycles
 SCF Done:  E(RB3LYP) =  -582.898099341     A.U. after    8 cycles
 SCF Done:  E(RB3LYP) =  -582.898100615     A.U. after    7 cycles
 SCF Done:  E(RB3LYP) =  -582.898101047     A.U. after    7 cycles
 SCF Done:  E(RB3LYP) =  -582.898101255     A.U. after    7 cycles
 SCF Done:  E(RB3LYP) =  -582.898101334     A.U. after    6 cycles
 SCF Done:  E(RB3LYP) =  -582.898101377     A.U. after    6 cycles
 Optimization completed.
    -- Stationary point found.
 Normal termination of Gaussian 16 at Tue May 23 14:31:06 2023.

 ----------------------------------------------------------------------
 #N Geom=AllCheck Guess=TCheck SCRF=Check GenChk RB3LYP/6-31G(2df,p) Fr
 eq
 ----------------------------------------------------------------------

 Structure from the checkpoint file:  "CCCqCCCCqCrqCrCdOrOC.chk"
 -------------------
 Title Card Required
 -------------------
 Charge =  0 Multiplicity = 1

                         Standard orientation:
 ---------------------------------------------------------------------
 Center     Atomic      Atomic             Coordinates (Angstroms)
 Number     Number       Type             X           Y           Z
 ---------------------------------------------------------------------
      1          6           0        2.523903    2.518305    0.118215
      2          6           0        3.315137    1.261217   -0.250407
      3          6           0        2.626627   -0.068264    0.076072
      4          6           0        1.275960   -0.274495   -0.649716
      5          6           0        0.036718    0.066907    0.191031
      6          6           0       -1.265849   -0.153769   -0.590131
      7          6           0       -2.587611    0.110467    0.185332
      8          6           0       -2.777767   -0.857630    1.358359
      9          6           0       -2.675227    1.578841    0.656293
     10          6           0       -3.704319   -0.083889   -0.835069
     11          8           0       -4.589979   -0.895468   -0.764143
     12          8           0        3.567975   -1.074567   -0.289398
     13          6           0        3.395641   -2.304218    0.370736
     14          1           0        3.116419    3.415412   -0.085147
     15          1           0        2.261132    2.531902    1.182059
     16          1           0        1.596594    2.605195   -0.456666
     17          1           0        4.279058    1.264279    0.269753
     18          1           0        3.544628    1.262781   -1.323245
     19          1           0        2.456336   -0.123947    1.166279
     20          1           0        1.211071   -1.324143   -0.958196
     21          1           0        1.272100    0.309633   -1.579244
     22          1           0        0.095518    1.104599    0.535364
     23          1           0        0.041188   -0.556121    1.093818
     24          1           0       -1.285010   -1.189007   -0.956732
     25          1           0       -1.250310    0.484459   -1.484919
     26          1           0       -2.024615   -0.690821    2.133316
     27          1           0       -2.709260   -1.897011    1.025367
     28          1           0       -3.765143   -0.726279    1.808913
     29          1           0       -1.892032    1.801878    1.385471
     30          1           0       -3.639443    1.777266    1.135434
     31          1           0       -2.563628    2.276691   -0.181065
     32          1           0       -3.640425    0.615351   -1.704004
     33          1           0        4.191583   -2.970355    0.027779
     34          1           0        2.428077   -2.779117    0.145385
     35          1           0        3.472924   -2.193192    1.464313
 ---------------------------------------------------------------------

 SCF Done:  E(RB3LYP) =  -582.898101377     A.U. after    1 cycles

 The electronic state is 1-A.
 Alpha  occ. eigenvalues --  -19.13853 -19.13473 -10.26500 -10.22992 -10.22264
 Alpha  occ. eigenvalues --  -10.20544 -10.19232 -10.18793 -10.18741 -10.18119
 Alpha  occ. eigenvalues --  -10.17908 -10.17884 -10.17463  -1.04563  -1.02763
 Alpha  occ. eigenvalues --   -0.83393  -0.80029  -0.76329  -0.71288  -0.69424
 Alpha  occ. eigenvalues --   -0.68441  -0.65026  -0.62729  -0.58919  -0.57115
 Alpha  occ. eigenvalues --   -0.53457  -0.48904  -0.48876  -0.47741  -0.46355
 Alpha  occ. eigenvalues --   -0.45363  -0.44395  -0.44256  -0.43676  -0.41453
 Alpha  occ. eigenvalues --   -0.40962  -0.39475  -0.38958  -0.38405  -0.37260
 Alpha  occ. eigenvalues --   -0.37040  -0.36849  -0.36247  -0.35449  -0.34686
 Alpha  occ. eigenvalues --   -0.33452  -0.32902  -0.32539  -0.32230  -0.30307
 Alpha  occ. eigenvalues --   -0.25244  -0.24426
 Alpha virt. eigenvalues --   -0.01812   0.06872   0.08787   0.09454   0.10408
 Alpha virt. eigenvalues --    0.10788   0.12137   0.12792   0.13335   0.14331
 Alpha virt. eigenvalues --    0.14762   0.15289   0.15606   0.15996   0.16414

 Mulliken charges:
               1
     1  C   -0.390287
     2  C   -0.184742
     3  C    0.133424
     4  C   -0.207514
     5  C   -0.212059
     6  C   -0.209652
     7  C    0.150986
     8  C   -0.410923
     9  C   -0.425215
    10  C    0.150347
    11  O   -0.254271
    12  O   -0.245730
    13  C   -0.239829
    14  H    0.116618
    15  H    0.113817
    16  H    0.118135
    17  H    0.102139
    18  H    0.105177
    19  H    0.055532
    20  H    0.105079
    21  H    0.096466
    22  H    0.106229
    23  H    0.102099
    24  H    0.104975
    25  H    0.094754
    26  H    0.110074
    27  H    0.122784
    28  H    0.125325
    29  H    0.127767
    30  H    0.125442
    31  H    0.116134
    32  H    0.067936
    33  H    0.126856
    34  H    0.100564
    35  H    0.101565
 Sum of Mulliken charges =  -0.00000

 Dipole moment (field-independent basis, Debye):
    X=              1.5103    Y=              1.3674    Z=              1.0312  Tot=              2.2834
 Quadrupole moment (field-independent basis, Debye-Ang):
   XX=           -102.9023   YY=            -80.6683   ZZ=            -82.2394
   XY=             -6.9734   XZ=             -0.0619   YZ=             -2.1517

  Exact polarizability: 145.698   1.267 127.126   1.310  -2.730 109.303
 Approx polarizability: 182.857   7.765 178.680   0.452  -3.502 169.523

                      1                      2                      3
                      A                      A                      A
 Frequencies --     18.4624                34.9740                58.4809
 Red. masses --      3.2821                 3.7577                 5.8279
 Frc consts  --      0.0007                 0.0027                 0.0117
 IR Inten    --      0.4619                 1.1002                 3.3677

                      4                      5                      6
                      A                      A                      A
 Frequencies --     84.7508                90.5611               101.0914
 Red. masses --      2.5643                 2.4362                 2.5709
 Frc consts  --      0.0109                 0.0118                 0.0155
 IR Inten    --      0.9458                 0.2777                 0.9310

                      7                      8                      9
                      A                      A                      A
 Frequencies --    106.1251               140.0775               173.4092
 Red. masses --      1.7743                 1.5776                 2.2298
 Frc consts  --      0.0118                 0.0182                 0.0395
 IR Inten    --      0.0712                 1.0364                 0.0174

                     10                     11                     12
                      A                      A                      A
 Frequencies --    198.3268               208.4735               233.2973
 Red. masses --      1.5302                 1.3096                 1.2008
 Frc consts  --      0.0355                 0.0335                 0.0385
 IR Inten    --      1.4439                 0.0964                 0.2688

                     13                     14                     15
                      A                      A                      A
 Frequencies --    249.6904               262.2800               267.0902
 Red. masses --      1.8952                 1.3360                 2.4169
 Frc consts  --      0.0696                 0.0541                 0.1016
 IR Inten    --      2.4164                 0.4636                 1.5869

                     16                     17                     18
                      A                      A                      A
 Frequencies --    288.1242               326.1885               339.5507
 Red. masses --      2.5738                 2.2697                 2.4842
 Frc consts  --      0.1259                 0.1423                 0.1687
 IR Inten    --      2.7260                 1.6161                 1.7015

                     19                     20                     21
                      A                      A                      A
 Frequencies --    365.2264               406.5447               416.2431
 Red. masses --      2.3527                 2.6331                 3.0952
 Frc consts  --      0.1849                 0.2564                 0.3160
 IR Inten    --      0.8321                 1.6104                 0.7267

                     22                     23                     24
                      A                      A                      A
 Frequencies --    441.0226               488.1476               518.8252
 Red. masses --      2.9994                 2.3625                 3.6477
 Frc consts  --      0.3437                 0.3317                 0.5785
 IR Inten    --      2.5399                 2.8474                 6.8934

                     25                     26                     27
                      A                      A                      A
 Frequencies --    647.8413               732.3684               764.1480
 Red. masses --      3.1444                 1.1252                 3.0231
 Frc consts  --      0.7775                 0.3556                 1.0401
 IR Inten    --      3.6693                 2.9478                 4.1426

                     28                     29                     30
                      A                      A                      A
 Frequencies --    788.4438               819.3248               873.4279
 Red. masses --      1.2697                 1.5003                 2.2878
 Frc consts  --      0.4650                 0.5934                 1.0283
 IR Inten    --      5.4399                 1.1012                30.9348

                     31                     32                     33
                      A                      A                      A
 Frequencies --    893.8638               934.2488               949.5922
 Red. masses --      1.7719                 2.0753                 1.8642
 Frc consts  --      0.8341                 1.0672                 0.9904
 IR Inten    --      8.3098                 4.2728                 8.0895

                     34                     35                     36
                      A                      A                      A
 Frequencies --    955.9621               986.7690              1002.0849
 Red. masses --      1.9471                 1.9168                 1.5445
 Frc consts  --      1.0484                 1.0997                 0.9138
 IR Inten    --     14.0173                13.4040                 0.7077

                     37                     38                     39
                      A                      A                      A
 Frequencies --   1012.2006              1045.8879              1054.7542
 Red. masses --      1.9999                 1.7977                 2.4707
 Frc consts  --      1.2072                 1.1586                 1.6195
 IR Inten    --      3.1940                 0.2159                 3.6316

                     40                     41                     42
                      A                      A                      A
 Frequencies --   1060.9134              1082.1525              1106.6425
 Red. masses --      1.9749                 2.1819                 1.6666
 Frc consts  --      1.3096                 1.5054                 1.2026
 IR Inten    --      0.5569                 1.4951                 3.0319

                     43                     44                     45
                      A                      A                      A
 Frequencies --   1135.2742              1144.5996              1182.8961
 Red. masses --      3.7569                 2.2945                 1.3416
 Frc consts  --      2.8528                 1.7711                 1.1060
 IR Inten    --    113.7994                17.6409                 3.4053

                     46                     47                     48
                      A                      A                      A
 Frequencies --   1193.6348              1206.5259              1226.7107
 Red. masses --      2.0203                 1.9248                 1.6918
 Frc consts  --      1.6959                 1.6509                 1.5000
 IR Inten    --     24.2815                19.4665                11.7166

                     49                     50                     51
                      A                      A                      A
 Frequencies --   1233.2281              1258.6278              1275.0034
 Red. masses --      1.9366                 1.7815                 1.5041
 Frc consts  --      1.7353                 1.6628                 1.4406
 IR Inten    --      2.6255                 7.6925                 3.0213

                     52                     53                     54
                      A                      A                      A
 Frequencies --   1298.1274              1319.9994              1337.6468
 Red. masses --      1.4294                 1.1858                 1.3246
 Frc consts  --      1.4192                 1.2174                 1.3964
 IR Inten    --      2.9349                 1.5106                 8.1498

                     55                     56                     57
                      A                      A                      A
 Frequencies --   1347.2703              1353.0987              1388.3311
 Red. masses --      1.1525                 1.3234                 1.4528
 Frc consts  --      1.2326                 1.4276                 1.6499
 IR Inten    --      0.6665                 1.0343                 5.7877

                     58                     59                     60
                      A                      A                      A
 Frequencies --   1392.5585              1398.8903              1402.6067
 Red. masses --      1.4437                 1.2357                 1.3615
 Frc consts  --      1.6495                 1.4248                 1.5781
 IR Inten    --      3.4733                 2.7075                17.5100

                     61                     62                     63
                      A                      A                      A
 Frequencies --   1411.4817              1413.2425              1434.8373
 Red. masses --      1.1942                 1.2506                 1.2270
 Frc consts  --      1.4018                 1.4717                 1.4883
 IR Inten    --      2.7166                 1.4464                 7.5032

                     64                     65                     66
                      A                      A                      A
 Frequencies --   1476.6650              1478.4017              1479.6662
 Red. masses --      1.0725                 1.0735                 1.1193
 Frc consts  --      1.3779                 1.3825                 1.4438
 IR Inten    --      1.3378                 0.0227                 1.4769

                     67                     68                     69
                      A                      A                      A
 Frequencies --   1480.7018              1489.1883              1490.7178
 Red. masses --      1.0540                 1.0652                 1.0563
 Frc consts  --      1.3616                 1.3918                 1.3830
 IR Inten    --      0.4025                 1.3308                 0.7308

                     70                     71                     72
                      A                      A                      A
 Frequencies --   1493.5542              1503.4199              1504.1733
 Red. masses --      1.0648                 1.0481                 1.0597
 Frc consts  --      1.3995                 1.3958                 1.4126
 IR Inten    --      2.5789                 5.5321                10.2021

                     73                     74                     75
                      A                      A                      A
 Frequencies --   1506.2094              1509.6200              1511.4202
 Red. masses --      1.0784                 1.0678                 1.0639
 Frc consts  --      1.4415                 1.4338                 1.4319
 IR Inten    --      4.8403                13.5094                12.8028

                     76                     77                     78
                      A                      A                      A
 Frequencies --   1513.4277              1831.5598              2837.7748
 Red. masses --      1.0746                10.9016                 1.0814
 Frc consts  --      1.4502                21.5467                 5.1309
 IR Inten    --      3.0157               182.1038               106.8093

                     79                     80                     81
                      A                      A                      A
 Frequencies --   2936.9774              2968.8059              3001.9156
 Red. masses --      1.0806                 1.0384                 1.0587
 Frc consts  --      5.4919                 5.3925                 5.6210
 IR Inten    --     26.7136                58.6016                17.4304

                     82                     83                     84
                      A                      A                      A
 Frequencies --   3011.3903              3021.1652              3031.4428
 Red. masses --      1.1015                 1.0628                 1.0454
 Frc consts  --      5.8852                 5.7157                 5.6604
 IR Inten    --     52.2511                 9.0080                 9.2525

                     85                     86                     87
                      A                      A                      A
 Frequencies --   3031.9443              3033.2563              3034.8105
 Red. masses --      1.0364                 1.0576                 1.0703
 Frc consts  --      5.6131                 5.7330                 5.8077
 IR Inten    --     17.7882                16.3812                48.7895

                     88                     89                     90
                      A                      A                      A
 Frequencies --   3039.7662              3047.3229              3058.4711
 Red. masses --      1.0836                 1.0369                 1.0972
 Frc consts  --      5.8991                 5.6733                 6.0469
 IR Inten    --     18.8163                19.5213                 2.8929

                     91                     92                     93
                      A                      A                      A
 Frequencies --   3070.5360              3086.3271              3098.4162
 Red. masses --      1.1003                 1.1018                 1.1012
 Frc consts  --      6.1120                 6.1833                 6.2288
 IR Inten    --      9.4363                68.1072                21.6418

                     94                     95                     96
                      A                      A                      A
 Frequencies --   3099.2756              3106.3582              3108.1935
 Red. masses --      1.1009                 1.1009                 1.0953
 Frc consts  --      6.2305                 6.2592                 6.2344
 IR Inten    --     39.8139                49.1662                35.6133

                     97                     98                     99
                      A                      A                      A
 Frequencies --   3114.4580              3118.5029              3119.9211
 Red. masses --      1.1003                 1.1015                 1.1011
 Frc consts  --      6.2880                 6.3115                 6.3147
 IR Inten    --      5.1190                21.3330                32.4477

 - Thermochemistry -
 -------------------
 Temperature   298.150 Kelvin.  Pressure   1.00000 Atm.
 Atom     1 has atomic number  6 and mass  12.00000

 Molecular mass:   186.16198 amu.
 Principal axes and moments of inertia in atomic units:
                           1         2         3
     Eigenvalues --  1396.534766002.446086762.60095
           X            0.99998  -0.00426  -0.00471
           Y            0.00417   0.99982  -0.01867
           Z            0.00478   0.01865   0.99981
 This molecule is an asymmetric top.
 Rotational symmetry number  1.
 Warning -- assumption of classical behavior for rotation
           may cause significant error
 Rotational temperatures (Kelvin)      0.06202     0.01443     0.01281
 Rotational constants (GHZ):           1.29230     0.30067     0.26687
 Zero-point vibrational energy     826188.5 (Joules/Mol)
                                  197.46380 (Kcal/Mol)
 Warning -- explicit consideration of  24 degrees of freedom as
           vibrations may cause significant error
 Vibrational temperatures:     26.56    50.32    84.14   121.94   130.30
          (Kelvin)            145.45   152.69   201.54   249.50   285.35
                              299.95   335.66   359.25   377.36   384.28
                              414.55   469.31   488.54   525.48   584.93
                              598.88   634.53   702.34   746.47   932.10
                             1053.71  1099.44  1134.39  1178.83  1256.67
                             1286.07  1344.18  1366.25  1375.42  1419.74
                             1441.78  1456.33  1504.80  1517.56  1526.42
                             1556.98  1592.21  1633.41  1646.82  1701.92
                             1717.37  1735.92  1764.96  1774.34  1810.88
                             1834.45  1867.72  1899.18  1924.58  1938.42
                             1946.81  1997.50  2003.58  2012.69  2018.04
                             2030.81  2033.34  2064.41  2124.59  2127.09
                             2128.91  2130.40  2142.61  2144.81  2148.89
                             2163.09  2164.17  2167.10  2172.01  2174.60
                             2177.48  2635.21  4082.92  4225.66  4271.45
                             4319.09  4332.72  4346.78  4361.57  4362.29
                             4364.18  4366.42  4373.55  4384.42  4400.46
                             4417.82  4440.54  4457.93  4459.17  4469.36
                             4472.00  4481.01  4486.83  4488.87

 Zero-point correction=                           0.314679 (Hartree/Particle)
 Thermal correction to Energy=                    0.331527
 Thermal correction to Enthalpy=                  0.332471
 Thermal correction to Gibbs Free Energy=         0.268973
 Sum of electronic and zero-point Energies=           -582.583423
 Sum of electronic and thermal Energies=              -582.566574
 Sum of electronic and thermal Enthalpies=            -582.565630
 Sum of electronic and thermal Free Energies=         -582.629128

                     E (Thermal)             CV                S
                      KCal/Mol        Cal/Mol-Kelvin    Cal/Mol-Kelvin
 Total                  208.036             60.384            133.643
 Electronic               0.000              0.000              0.000
 Translational            0.889              2.981             41.570
 Rotational               0.889              2.981             32.405
 Vibrational            206.259             54.423             59.667
 Vibration     1          0.593              1.986              6.793
 Vibration     2          0.594              1.982              5.525
 Vibration     3          0.596              1.974              4.508
 Vibration     4          0.601              1.960              3.778
 Vibration     5          0.602              1.956              3.648
 Vibration     6          0.604              1.948              3.433
 Vibration     7          0.605              1.944              3.339
 Vibration     8          0.615              1.913              2.803
 Vibration     9          0.627              1.875              2.398
 Vibration    10          0.637              1.842              2.149
 Vibration    11          0.642              1.828              2.057
 Vibration    12          0.654              1.790              1.853
 Vibration    13          0.662              1.763              1.733
 Vibration    14          0.670              1.742              1.647
 Vibration    15          0.672              1.734              1.615
 Vibration    16          0.685              1.696              1.485
 Vibration    17          0.710              1.623              1.279
 Vibration    18          0.719              1.596              1.214
 Vibration    19          0.738              1.544              1.100
 Vibration    20          0.771              1.456              0.939
 Vibration    21          0.779              1.435              0.905
 Vibration    22          0.801              1.381              0.823
 Vibration    23          0.844              1.276              0.688
 Vibration    24          0.874              1.208              0.613

                           ! Non-Optimized Parameters !
 Normal termination of Gaussian 16 at Tue May 23 16:17:55 2023.
