 Gaussian 16, Revision A.03,
 Gaussian 16:  ES64L-G16RevA.03 25-Dec-2016

 -----------------------------
 # opt freq b3lyp/6-31g(2df,p)
 -----------------------------

 -------------------
 Title Card Required
 -------------------
 Symbolic Z-matrix:
 Charge =  0 Multiplicity = 1

 SCF Done:  E(RB3LYP) =  -1024.62486888     A.U. after   17 cycles
 SCF Done:  E(RB3LYP) =  -1024.64528468     A.U. after   14 cycles
 SCF Done:  E(RB3LYP) =  -1024.65663126     A.U. after   14 cycles
 SCF Done:  E(RB3LYP) =  -1024.66475898     A.U. after   13 cycles
 SCF Done:  E(RB3LYP) =  -1024.66998773     A.U. after   14 cycles
 SCF Done:  E(RB3LYP) =  -1024.67135343     A.U. after   12 cycles
 SCF Done:  E(RB3LYP) =  -1024.67188981     A.U. after   11 cycles
 SCF Done:  E(RB3LYP) =  -1024.67222031     A.U. after   10 cycles
 SCF Done:  E(RB3LYP) =  -1024.67237767     A.U. after   10 cycles
 SCF Done:  E(RB3LYP) =  -1024.67249247     A.U. after   10 cycles
 SCF Done:  E(RB3LYP) =  -1024.67299902     A.U. after   10 cycles
 SCF Done:  E(RB3LYP) =  -1024.67302890     A.U. after   10 cycles
 SCF Done:  E(RB3LYP) =  -1024.67303251     A.U. after    9 cycles
 SCF Done:  E(RB3LYP) =  -1024.67303556     A.U. after    9 cycles
 SCF Done:  E(RB3LYP) =  -1024.67303491     A.U. after    9 cycles
 SCF Done:  E(RB3LYP) =  -1024.67303619     A.U. after    9 cycles
 SCF Done:  E(RB3LYP) =  -1024.67303628     A.U. after    7 cycles
 SCF Done:  E(RB3LYP) =  -1024.67303633     A.U. after    6 cycles
 SCF Done:  E(RB3LYP) =  -1024.67303640     A.U. after    7 cycles
 Optimization completed.
    -- Stationary point found.
 Normal termination of Gaussian 16 at Mon May 22 12:28:28 2023.

 ----------------------------------------------------------------------
 #N Geom=AllCheck Guess=TCheck SCRF=Check GenChk RB3LYP/6-31G(2df,p) Fr
 eq
 ----------------------------------------------------------------------

 Structure from the checkpoint file:  "CCCqCrCC1CCSqdC2CdCC2rCC1CC.chk"
 -------------------
 Title Card Required
 -------------------
 Charge =  0 Multiplicity = 1

                         Standard orientation:
 ---------------------------------------------------------------------
 Center     Atomic      Atomic             Coordinates (Angstroms)
 Number     Number       Type             X           Y           Z
 ---------------------------------------------------------------------
      1          6           0       -5.637775   -0.477877   -1.036931
      2          6           0       -4.337864   -1.056188   -0.468516
      3          6           0       -3.341092   -0.013125    0.074662
      4          6           0       -3.941162    0.797031    1.233934
      5          6           0       -2.025780   -0.706834    0.493142
      6          6           0       -0.804826    0.226747    0.671266
      7          6           0        0.255877   -0.392905    1.605911
      8          6           0        0.940986   -1.648015    1.062339
      9         16           0        1.970518   -1.362251   -0.431032
     10          6           0        3.371192   -0.631113    0.114841
     11          6           0        3.751249    0.633002    0.748694
     12          6           0        4.943128    0.709210    0.109962
     13          6           0        4.684039   -0.548513   -0.710347
     14          6           0        0.566143   -0.449181   -1.391062
     15          6           0       -0.201161    0.678471   -0.687457
     16          6           0        0.641248    1.969670   -0.599295
     17          6           0       -0.154929    3.224434   -0.224905
     18          1           0       -6.254338   -1.267407   -1.477927
     19          1           0       -5.432637    0.259024   -1.822055
     20          1           0       -6.240295    0.015340   -0.268464
     21          1           0       -3.837112   -1.636364   -1.254303
     22          1           0       -4.574240   -1.772858    0.330782
     23          1           0       -3.120658    0.684242   -0.746884
     24          1           0       -4.246179    0.132761    2.052079
     25          1           0       -4.821761    1.363552    0.919079
     26          1           0       -3.225965    1.517294    1.642222
     27          1           0       -1.792750   -1.485297   -0.243592
     28          1           0       -2.209034   -1.238788    1.437396
     29          1           0       -1.162843    1.127054    1.181424
     30          1           0       -0.226325   -0.657540    2.555810
     31          1           0        1.021224    0.349864    1.853041
     32          1           0        0.212540   -2.415320    0.782306
     33          1           0        1.637641   -2.076162    1.785017
     34          1           0        3.288355    1.237845    1.521571
     35          1           0        5.820788    1.330969    0.222636
     36          1           0        5.385875   -1.377213   -0.557427
     37          1           0        4.564261   -0.381046   -1.787498
     38          1           0       -0.093458   -1.273755   -1.684068
     39          1           0        1.064962   -0.089829   -2.295083
     40          1           0       -1.048241    0.918751   -1.348599
     41          1           0        1.105748    2.132914   -1.579686
     42          1           0        1.475876    1.840092    0.096177
     43          1           0       -0.996726    3.379592   -0.909789
     44          1           0        0.481515    4.113245   -0.275838
     45          1           0       -0.560135    3.176179    0.790766
 ---------------------------------------------------------------------

 SCF Done:  E(RB3LYP) =  -1024.67303640     A.U. after    1 cycles

 The electronic state is 1-A.
 Alpha  occ. eigenvalues --  -88.92733 -10.21200 -10.19509 -10.19265 -10.19168
 Alpha  occ. eigenvalues --  -10.19043 -10.18894 -10.18147 -10.18112 -10.17800
 Alpha  occ. eigenvalues --  -10.17492 -10.17470 -10.17460 -10.16716 -10.16431
 Alpha  occ. eigenvalues --  -10.15755 -10.15195  -7.98072  -5.94399  -5.94332
 Alpha  occ. eigenvalues --   -5.93899  -0.85799  -0.83325  -0.81152  -0.79142
 Alpha  occ. eigenvalues --   -0.76834  -0.73629  -0.72418  -0.69021  -0.65941
 Alpha  occ. eigenvalues --   -0.63427  -0.62926  -0.62427  -0.59735  -0.57153
 Alpha  occ. eigenvalues --   -0.56116  -0.52741  -0.49511  -0.48786  -0.47310
 Alpha  occ. eigenvalues --   -0.46516  -0.45896  -0.44417  -0.44161  -0.43254
 Alpha  occ. eigenvalues --   -0.42175  -0.41576  -0.41087  -0.40662  -0.39836
 Alpha  occ. eigenvalues --   -0.38893  -0.38471  -0.37857  -0.37398  -0.37245
 Alpha  occ. eigenvalues --   -0.35881  -0.35304  -0.34583  -0.34050  -0.33400
 Alpha  occ. eigenvalues --   -0.32664  -0.32406  -0.31907  -0.31101  -0.30814
 Alpha  occ. eigenvalues --   -0.30233  -0.29929  -0.26908  -0.24278  -0.14725
 Alpha virt. eigenvalues --    0.01792   0.05705   0.06230   0.07297   0.07650
 Alpha virt. eigenvalues --    0.09158   0.09755   0.10068   0.11571   0.11934
 Alpha virt. eigenvalues --    0.12657   0.12860   0.13542   0.14125   0.14352

 Mulliken charges:
               1
     1  C   -0.392964
     2  C   -0.168868
     3  C    0.039547
     4  C   -0.392958
     5  C   -0.215076
     6  C    0.004590
     7  C   -0.244017
     8  C   -0.208071
     9  S    0.073304
    10  C    0.046205
    11  C   -0.112315
    12  C   -0.134301
    13  C   -0.328536
    14  C   -0.304083
    15  C    0.023562
    16  C   -0.189821
    17  C   -0.395019
    18  H    0.112841
    19  H    0.112832
    20  H    0.119056
    21  H    0.089817
    22  H    0.092135
    23  H    0.072436
    24  H    0.110956
    25  H    0.116948
    26  H    0.114625
    27  H    0.086441
    28  H    0.085663
    29  H    0.074143
    30  H    0.101669
    31  H    0.117536
    32  H    0.126136
    33  H    0.136564
    34  H    0.079559
    35  H    0.085869
    36  H    0.100241
    37  H    0.097260
    38  H    0.116651
    39  H    0.117960
    40  H    0.074870
    41  H    0.094981
    42  H    0.115979
    43  H    0.111748
    44  H    0.116780
    45  H    0.117130
 Sum of Mulliken charges =  -0.00000

 Dipole moment (field-independent basis, Debye):
    X=             -3.3631    Y=              0.0540    Z=              0.1301  Tot=              3.3661
 Quadrupole moment (field-independent basis, Debye-Ang):
   XX=           -127.5393   YY=           -115.5838   ZZ=           -113.0529
   XY=              2.6218   XZ=             -0.8910   YZ=             -0.6903

  Exact polarizability: 270.557  11.982 171.438   1.466   3.553 159.372
 Approx polarizability: 370.595  32.294 268.876  13.050   8.793 270.315

                      1                      2                      3
                      A                      A                      A
 Frequencies --     19.5899                36.4647                47.4060
 Red. masses --      2.9146                 3.4025                 3.1843
 Frc consts  --      0.0007                 0.0027                 0.0042
 IR Inten    --      0.0956                 0.1990                 0.1618

                      4                      5                      6
                      A                      A                      A
 Frequencies --     51.6684                73.6278                80.0013
 Red. masses --      2.4094                 3.0108                 2.8022
 Frc consts  --      0.0038                 0.0096                 0.0106
 IR Inten    --      0.3640                 0.2590                 0.5083

                      7                      8                      9
                      A                      A                      A
 Frequencies --    105.0820               105.6513               117.1909
 Red. masses --      3.0433                 2.0146                 3.3746
 Frc consts  --      0.0198                 0.0132                 0.0273
 IR Inten    --      1.5068                 0.0476                 1.1749

                     10                     11                     12
                      A                      A                      A
 Frequencies --    165.9495               195.6031               202.8047
 Red. masses --      3.3743                 2.0459                 1.4796
 Frc consts  --      0.0548                 0.0461                 0.0359
 IR Inten    --      0.6644                 0.8158                 0.6152

                     13                     14                     15
                      A                      A                      A
 Frequencies --    210.2203               221.4624               246.8253
 Red. masses --      1.6159                 1.8801                 1.7796
 Frc consts  --      0.0421                 0.0543                 0.0639
 IR Inten    --      1.9111                 0.1227                 1.1597

                     16                     17                     18
                      A                      A                      A
 Frequencies --    262.7924               279.5089               315.5759
 Red. masses --      2.1692                 1.7206                 2.2238
 Frc consts  --      0.0883                 0.0792                 0.1305
 IR Inten    --      4.4107                 0.6757                 0.3506

                     19                     20                     21
                      A                      A                      A
 Frequencies --    322.3633               328.4125               356.4548
 Red. masses --      2.8769                 2.3450                 2.8152
 Frc consts  --      0.1761                 0.1490                 0.2108
 IR Inten    --      2.1712                 2.4713                 3.5660

                     22                     23                     24
                      A                      A                      A
 Frequencies --    376.5548               419.5940               423.5691
 Red. masses --      1.8496                 2.0698                 1.9561
 Frc consts  --      0.1545                 0.2147                 0.2068
 IR Inten    --      0.2445                 0.5491                17.4746

                     25                     26                     27
                      A                      A                      A
 Frequencies --    434.7294               457.7581               464.7781
 Red. masses --      4.7017                 2.5337                 3.4827
 Frc consts  --      0.5235                 0.3128                 0.4433
 IR Inten    --      2.6577                 7.1094                18.9480

                     28                     29                     30
                      A                      A                      A
 Frequencies --    494.9301               521.0745               555.2857
 Red. masses --      2.7062                 4.4773                 2.9880
 Frc consts  --      0.3906                 0.7162                 0.5428
 IR Inten    --      1.0755                29.1606                 5.0457

                     31                     32                     33
                      A                      A                      A
 Frequencies --    628.3216               669.6331               680.1903
 Red. masses --      3.1062                 1.3421                 2.3419
 Frc consts  --      0.7225                 0.3546                 0.6384
 IR Inten    --     11.0592                21.6417                 9.8375

                     34                     35                     36
                      A                      A                      A
 Frequencies --    725.5651               774.4614               790.9245
 Red. masses --      1.9727                 1.3058                 1.7589
 Frc consts  --      0.6119                 0.4615                 0.6483
 IR Inten    --      0.1481                 2.4196                12.2885

                     37                     38                     39
                      A                      A                      A
 Frequencies --    805.1715               835.3164               868.7636
 Red. masses --      1.5545                 1.8092                 2.2188
 Frc consts  --      0.5938                 0.7438                 0.9866
 IR Inten    --      4.1505                 0.5343                56.0703

                     40                     41                     42
                      A                      A                      A
 Frequencies --    878.6032               887.8869               900.2314
 Red. masses --      1.9688                 1.7293                 2.1642
 Frc consts  --      0.8954                 0.8032                 1.0334
 IR Inten    --      0.3203                 1.7124                 1.4871

                     43                     44                     45
                      A                      A                      A
 Frequencies --    907.7985               942.6054               946.5370
 Red. masses --      2.0292                 2.1282                 1.8063
 Frc consts  --      0.9853                 1.1141                 0.9535
 IR Inten    --      0.2111                11.2122                17.0317

                     46                     47                     48
                      A                      A                      A
 Frequencies --    953.3758               958.6426               972.0007
 Red. masses --      2.0290                 1.9603                 1.2683
 Frc consts  --      1.0866                 1.0614                 0.7060
 IR Inten    --      1.0929                31.2494                 1.3169

                     49                     50                     51
                      A                      A                      A
 Frequencies --    998.5063              1001.7213              1020.7538
 Red. masses --      1.4523                 1.9859                 2.6772
 Frc consts  --      0.8531                 1.1741                 1.6435
 IR Inten    --     10.9965                 0.4145                 1.9831

                     52                     53                     54
                      A                      A                      A
 Frequencies --   1031.0324              1039.8046              1052.6392
 Red. masses --      2.1378                 2.2523                 1.9971
 Frc consts  --      1.3389                 1.4348                 1.3038
 IR Inten    --      0.1480                 0.6103                 3.9004

                     55                     56                     57
                      A                      A                      A
 Frequencies --   1057.9538              1059.5863              1068.4987
 Red. masses --      1.4442                 1.6298                 1.3407
 Frc consts  --      0.9524                 1.0781                 0.9019
 IR Inten    --      5.0797                 5.9272                 4.6151

                     58                     59                     60
                      A                      A                      A
 Frequencies --   1074.3082              1092.8485              1101.5655
 Red. masses --      1.8365                 1.9139                 1.4770
 Frc consts  --      1.2488                 1.3468                 1.0560
 IR Inten    --      6.1381                11.0279                 1.5885

                     61                     62                     63
                      A                      A                      A
 Frequencies --   1136.5635              1147.6920              1173.0273
 Red. masses --      1.5710                 1.1730                 1.8647
 Frc consts  --      1.1957                 0.9103                 1.5117
 IR Inten    --     11.5418                 0.6598                 4.8276

                     64                     65                     66
                      A                      A                      A
 Frequencies --   1173.5908              1191.7614              1195.0787
 Red. masses --      1.5904                 2.1298                 1.4480
 Frc consts  --      1.2906                 1.7822                 1.2185
 IR Inten    --     12.3457                 0.4149                 5.6070

                     67                     68                     69
                      A                      A                      A
 Frequencies --   1217.0875              1232.4671              1241.0179
 Red. masses --      1.5125                 2.1968                 1.3800
 Frc consts  --      1.3200                 1.9660                 1.2522
 IR Inten    --      1.2987                38.2875                 0.5396

                     70                     71                     72
                      A                      A                      A
 Frequencies --   1256.2518              1276.0624              1289.9282
 Red. masses --      1.2950                 1.2612                 1.2890
 Frc consts  --      1.2041                 1.2099                 1.2637
 IR Inten    --      2.4916                 0.0839                 1.3765

                     73                     74                     75
                      A                      A                      A
 Frequencies --   1298.9274              1306.5832              1322.9957
 Red. masses --      1.3375                 1.2302                 1.2006
 Frc consts  --      1.3296                 1.2374                 1.2381
 IR Inten    --     10.4500                 3.2443                12.9175

                     76                     77                     78
                      A                      A                      A
 Frequencies --   1334.0034              1336.5826              1359.6848
 Red. masses --      1.3690                 2.0905                 1.3443
 Frc consts  --      1.4354                 2.2004                 1.4642
 IR Inten    --     12.2227                10.6800                 4.2225

                     79                     80                     81
                      A                      A                      A
 Frequencies --   1366.3729              1377.4960              1384.4349
 Red. masses --      1.3408                 1.4704                 1.3162
 Frc consts  --      1.4749                 1.6439                 1.4863
 IR Inten    --      0.1288                 0.9411                 0.2260

                     82                     83                     84
                      A                      A                      A
 Frequencies --   1386.1000              1390.9957              1401.6431
 Red. masses --      1.4905                 1.4280                 1.3901
 Frc consts  --      1.6872                 1.6279                 1.6090
 IR Inten    --     11.5790                 0.6680                 4.5892

                     85                     86                     87
                      A                      A                      A
 Frequencies --   1411.9077              1413.9944              1415.0871
 Red. masses --      1.2797                 1.2424                 1.2212
 Frc consts  --      1.5030                 1.4636                 1.4408
 IR Inten    --      3.6393                 2.6213                 4.1313

                     88                     89                     90
                      A                      A                      A
 Frequencies --   1448.5588              1461.0310              1466.4846
 Red. masses --      1.1028                 1.0938                 1.1477
 Frc consts  --      1.3633                 1.3757                 1.4542
 IR Inten    --      5.0129                 9.1143                 6.0511

                     91                     92                     93
                      A                      A                      A
 Frequencies --   1477.8962              1480.3025              1488.3943
 Red. masses --      1.0775                 1.0748                 1.0680
 Frc consts  --      1.3866                 1.3876                 1.3940
 IR Inten    --      2.7538                 0.5056                 3.6435

                     94                     95                     96
                      A                      A                      A
 Frequencies --   1492.5514              1497.2876              1498.3788
 Red. masses --      1.0684                 1.0425                 1.0646
 Frc consts  --      1.4023                 1.3770                 1.4083
 IR Inten    --      2.6160                 5.8498                 0.9520

                     97                     98                     99
                      A                      A                      A
 Frequencies --   1500.3687              1506.8580              1508.1946
 Red. masses --      1.0495                 1.0641                 1.0656
 Frc consts  --      1.3919                 1.4236                 1.4281
 IR Inten    --      3.2455                10.5733                 4.2715

                    100                    101                    102
                      A                      A                      A
 Frequencies --   1513.8033              1559.2376              2972.4878
 Red. masses --      1.0467                 4.6671                 1.0815
 Frc consts  --      1.4132                 6.6853                 5.6303
 IR Inten    --      3.5298                 8.9705                33.4718

                    103                    104                    105
                      A                      A                      A
 Frequencies --   2993.3746              3003.0118              3010.7773
 Red. masses --      1.0783                 1.0612                 1.0631
 Frc consts  --      5.6929                 5.6385                 5.6779
 IR Inten    --      3.4577                 1.0278                47.9567

                    106                    107                    108
                      A                      A                      A
 Frequencies --   3021.5560              3023.4780              3028.6259
 Red. masses --      1.0556                 1.0665                 1.0417
 Frc consts  --      5.6780                 5.7443                 5.6297
 IR Inten    --     70.3972                24.9356                16.2990

                    109                    110                    111
                      A                      A                      A
 Frequencies --   3029.5833              3031.0459              3032.1417
 Red. masses --      1.0395                 1.0678                 1.0410
 Frc consts  --      5.6213                 5.7800                 5.6389
 IR Inten    --     21.0740                20.3360                23.9939

                    112                    113                    114
                      A                      A                      A
 Frequencies --   3036.3475              3041.5309              3044.9640
 Red. masses --      1.0820                 1.0779                 1.0846
 Frc consts  --      5.8775                 5.8752                 5.9251
 IR Inten    --     12.0246                 8.9688                20.8758

                    115                    116                    117
                      A                      A                      A
 Frequencies --   3055.9100              3059.0776              3064.3742
 Red. masses --      1.0826                 1.0723                 1.1062
 Frc consts  --      5.9566                 5.9124                 6.1204
 IR Inten    --     63.8237                27.6201                27.0962

                    118                    119                    120
                      A                      A                      A
 Frequencies --   3076.6759              3082.0118              3095.5945
 Red. masses --      1.0908                 1.0921                 1.0969
 Frc consts  --      6.0836                 6.1122                 6.1929
 IR Inten    --     23.1720                 6.4535                17.3993

                    121                    122                    123
                      A                      A                      A
 Frequencies --   3096.5660              3101.3013              3102.3044
 Red. masses --      1.1000                 1.1030                 1.0982
 Frc consts  --      6.2147                 6.2505                 6.2274
 IR Inten    --     60.2996                 5.0447                28.7470

                    124                    125                    126
                      A                      A                      A
 Frequencies --   3104.2163              3105.2814              3112.8920
 Red. masses --      1.1007                 1.1009                 1.0994
 Frc consts  --      6.2492                 6.2544                 6.2766
 IR Inten    --     28.3846                62.6845                31.5629

                    127                    128                    129
                      A                      A                      A
 Frequencies --   3126.9324              3170.5234              3224.5370
 Red. masses --      1.1035                 1.0893                 1.1058
 Frc consts  --      6.3569                 6.4514                 6.7741
 IR Inten    --      7.0228                20.8299                13.6049

 - Thermochemistry -
 -------------------
 Temperature   298.150 Kelvin.  Pressure   1.00000 Atm.
 Atom     1 has atomic number  6 and mass  12.00000

 Molecular mass:   252.19117 amu.
 Principal axes and moments of inertia in atomic units:
                           1         2         3
     Eigenvalues --  2134.190828942.059899700.58401
           X            0.99999   0.00528   0.00054
           Y           -0.00528   0.99998  -0.00208
           Z           -0.00055   0.00207   1.00000
 This molecule is an asymmetric top.
 Rotational symmetry number  1.
 Warning -- assumption of classical behavior for rotation
           may cause significant error
 Rotational temperatures (Kelvin)      0.04058     0.00969     0.00893
 Rotational constants (GHZ):           0.84563     0.20183     0.18604
 Zero-point vibrational energy    1061099.5 (Joules/Mol)
                                  253.60887 (Kcal/Mol)
 Warning -- explicit consideration of  30 degrees of freedom as
           vibrations may cause significant error
 Vibrational temperatures:     28.19    52.46    68.21    74.34   105.93
          (Kelvin)            115.10   151.19   152.01   168.61   238.76
                              281.43   291.79   302.46   318.63   355.13
                              378.10   402.15   454.04   463.81   472.51
                              512.86   541.78   603.70   609.42   625.48
                              658.61   668.71   712.09   749.71   798.93
                              904.01   963.45   978.64  1043.93  1114.28
                             1137.96  1158.46  1201.83  1249.96  1264.11
                             1277.47  1295.23  1306.12  1356.20  1361.86
                             1371.70  1379.27  1398.49  1436.63  1441.25
                             1468.64  1483.43  1496.05  1514.51  1522.16
                             1524.51  1537.33  1545.69  1572.37  1584.91
                             1635.26  1651.27  1687.72  1688.54  1714.68
                             1719.45  1751.12  1773.25  1785.55  1807.47
                             1835.97  1855.92  1868.87  1879.88  1903.50
                             1919.33  1923.04  1956.28  1965.91  1981.91
                             1991.89  1994.29  2001.33  2016.65  2031.42
                             2034.42  2035.99  2084.15  2102.10  2109.94
                             2126.36  2129.83  2141.47  2147.45  2154.26
                             2155.83  2158.70  2168.03  2169.96  2178.03
                             2243.40  4276.75  4306.80  4320.66  4331.84
                             4347.35  4350.11  4357.52  4358.89  4361.00
                             4362.58  4368.63  4376.08  4381.02  4396.77
                             4401.33  4408.95  4426.65  4434.33  4453.87
                             4455.27  4462.08  4463.52  4466.27  4467.81
                             4478.76  4498.96  4561.68  4639.39

 Zero-point correction=                           0.404151 (Hartree/Particle)
 Thermal correction to Energy=                    0.424275
 Thermal correction to Enthalpy=                  0.425219
 Thermal correction to Gibbs Free Energy=         0.354548
 Sum of electronic and zero-point Energies=          -1024.268885
 Sum of electronic and thermal Energies=             -1024.248761
 Sum of electronic and thermal Enthalpies=           -1024.247817
 Sum of electronic and thermal Free Energies=        -1024.318489

                     E (Thermal)             CV                S
                      KCal/Mol        Cal/Mol-Kelvin    Cal/Mol-Kelvin
 Total                  266.237             76.567            148.741
 Electronic               0.000              0.000              0.000
 Translational            0.889              2.981             42.475
 Rotational               0.889              2.981             33.581
 Vibrational            264.459             70.606             72.684
 Vibration     1          0.593              1.986              6.675
 Vibration     2          0.594              1.982              5.442
 Vibration     3          0.595              1.979              4.923
 Vibration     4          0.596              1.977              4.752
 Vibration     5          0.599              1.966              4.054
 Vibration     6          0.600              1.963              3.891
 Vibration     7          0.605              1.945              3.358
 Vibration     8          0.605              1.945              3.347
 Vibration     9          0.608              1.935              3.146
 Vibration    10          0.624              1.884              2.481
 Vibration    11          0.636              1.846              2.174
 Vibration    12          0.639              1.836              2.108
 Vibration    13          0.642              1.825              2.042
 Vibration    14          0.648              1.808              1.947
 Vibration    15          0.661              1.768              1.753
 Vibration    16          0.670              1.741              1.643
 Vibration    17          0.680              1.711              1.537
 Vibration    18          0.703              1.644              1.333
 Vibration    19          0.707              1.631              1.298
 Vibration    20          0.712              1.619              1.268
 Vibration    21          0.732              1.562              1.138
 Vibration    22          0.747              1.520              1.053
 Vibration    23          0.782              1.428              0.893
 Vibration    24          0.786              1.419              0.880
 Vibration    25          0.795              1.395              0.843
 Vibration    26          0.816              1.344              0.773
 Vibration    27          0.822              1.328              0.752
 Vibration    28          0.851              1.261              0.671
 Vibration    29          0.876              1.203              0.607
 Vibration    30          0.911              1.128              0.533

 Optimization completed.
    -- Stationary point found.
 Normal termination of Gaussian 16 at Mon May 22 18:06:58 2023.
