 Gaussian 16, Revision A.03,
 Gaussian 16:  ES64L-G16RevA.03 25-Dec-2016

 -----------------------------
 # opt freq b3lyp/6-31g(2df,p)
 -----------------------------

 -------------------
 Title Card Required
 -------------------
 Symbolic Z-matrix:
 Charge =  0 Multiplicity = 1

 SCF Done:  E(RB3LYP) =  -628.985352249     A.U. after   12 cycles
 SCF Done:  E(RB3LYP) =  -628.994148111     A.U. after   10 cycles
 SCF Done:  E(RB3LYP) =  -629.000197472     A.U. after    9 cycles
 SCF Done:  E(RB3LYP) =  -629.002478302     A.U. after   10 cycles
 SCF Done:  E(RB3LYP) =  -629.005207235     A.U. after   10 cycles
 SCF Done:  E(RB3LYP) =  -629.006692155     A.U. after   10 cycles
 SCF Done:  E(RB3LYP) =  -629.008289901     A.U. after   10 cycles
 SCF Done:  E(RB3LYP) =  -629.008956981     A.U. after   10 cycles
 SCF Done:  E(RB3LYP) =  -629.010114642     A.U. after   10 cycles
 SCF Done:  E(RB3LYP) =  -629.010533046     A.U. after    8 cycles
 SCF Done:  E(RB3LYP) =  -629.012052428     A.U. after   10 cycles
 SCF Done:  E(RB3LYP) =  -629.012170999     A.U. after    9 cycles
 SCF Done:  E(RB3LYP) =  -629.012161893     A.U. after    8 cycles
 SCF Done:  E(RB3LYP) =  -629.012181709     A.U. after    8 cycles
 SCF Done:  E(RB3LYP) =  -629.012181261     A.U. after    7 cycles
 SCF Done:  E(RB3LYP) =  -629.012182379     A.U. after    8 cycles
 SCF Done:  E(RB3LYP) =  -629.012182299     A.U. after    6 cycles
 SCF Done:  E(RB3LYP) =  -629.012182446     A.U. after    5 cycles
 SCF Done:  E(RB3LYP) =  -629.012182530     A.U. after    6 cycles
 Optimization completed.
    -- Stationary point found.
 Normal termination of Gaussian 16 at Tue May 23 11:51:03 2023.

 ----------------------------------------------------------------------
 #N Geom=AllCheck Guess=TCheck SCRF=Check GenChk RB3LYP/6-31G(2df,p) Fr
 eq
 ----------------------------------------------------------------------

 Structure from the checkpoint file:  "CCCqCrCCCqCCrqCCrC1CCqCrC1.chk"
 -------------------
 Title Card Required
 -------------------
 Charge =  0 Multiplicity = 1

                         Standard orientation:
 ---------------------------------------------------------------------
 Center     Atomic      Atomic             Coordinates (Angstroms)
 Number     Number       Type             X           Y           Z
 ---------------------------------------------------------------------
      1          6           0       -5.276948   -1.585974   -0.351152
      2          6           0       -3.861469   -1.383804    0.199756
      3          6           0       -3.104228   -0.168156   -0.370565
      4          6           0       -3.821187    1.150298   -0.041726
      5          6           0       -1.643652   -0.171630    0.131660
      6          6           0       -0.713646    0.755261   -0.669431
      7          6           0        0.780603    0.934871   -0.225017
      8          6           0        0.918419    2.066653    0.831467
      9          6           0        0.124165    1.941773    2.137899
     10          6           0        1.500329    1.407336   -1.527480
     11          6           0        2.966263    1.860033   -1.483892
     12          6           0        1.332777   -0.385021    0.358903
     13          6           0        2.737279   -0.509477    1.026024
     14          6           0        2.801162   -1.974175    0.505598
     15          6           0        4.129410   -2.527553    0.013302
     16          6           0        1.703768   -1.605947   -0.531730
     17          1           0       -5.716745   -2.511113    0.034949
     18          1           0       -5.268879   -1.654964   -1.445128
     19          1           0       -5.948019   -0.766851   -0.075894
     20          1           0       -3.271566   -2.286085   -0.006526
     21          1           0       -3.903893   -1.295610    1.294695
     22          1           0       -3.081550   -0.278860   -1.465957
     23          1           0       -3.911250    1.280705    1.044084
     24          1           0       -4.829937    1.179148   -0.463303
     25          1           0       -3.283627    2.017018   -0.436547
     26          1           0       -1.265522   -1.198346    0.061508
     27          1           0       -1.640869    0.079373    1.198493
     28          1           0       -1.152991    1.759060   -0.726961
     29          1           0       -0.715061    0.381203   -1.701795
     30          1           0        0.642084    3.014066    0.348761
     31          1           0        1.978391    2.163222    1.091622
     32          1           0       -0.954934    2.000145    1.972555
     33          1           0        0.391644    2.759792    2.815177
     34          1           0        0.334039    1.004566    2.662871
     35          1           0        0.905495    2.244027   -1.918313
     36          1           0        1.406218    0.614464   -2.278842
     37          1           0        3.147071    2.627564   -0.726120
     38          1           0        3.242775    2.291245   -2.452176
     39          1           0        3.656138    1.033883   -1.295235
     40          1           0        0.616119   -0.738810    1.105779
     41          1           0        2.796086   -0.350070    2.106610
     42          1           0        3.498088    0.110960    0.547888
     43          1           0        2.377833   -2.647309    1.260334
     44          1           0        4.572547   -1.872071   -0.745468
     45          1           0        4.006750   -3.519668   -0.436279
     46          1           0        4.851148   -2.621501    0.832869
     47          1           0        0.925711   -2.344759   -0.745260
     48          1           0        2.158437   -1.301348   -1.480079
 ---------------------------------------------------------------------

 SCF Done:  E(RB3LYP) =  -629.012182530     A.U. after    1 cycles

 The electronic state is 1-A.
 Alpha  occ. eigenvalues --  -10.18529 -10.17995 -10.17912 -10.17447 -10.17282
 Alpha  occ. eigenvalues --  -10.17158 -10.17087 -10.16958 -10.16888 -10.16851
 Alpha  occ. eigenvalues --  -10.16844 -10.16837 -10.16806 -10.16790 -10.16782
 Alpha  occ. eigenvalues --  -10.16645  -0.84645  -0.81300  -0.79687  -0.74254
 Alpha  occ. eigenvalues --   -0.73945  -0.71838  -0.70612  -0.67454  -0.65033
 Alpha  occ. eigenvalues --   -0.63671  -0.61255  -0.60405  -0.58354  -0.55063
 Alpha  occ. eigenvalues --   -0.54336  -0.51119  -0.47596  -0.47085  -0.45217
 Alpha  occ. eigenvalues --   -0.44792  -0.43954  -0.43189  -0.41574  -0.41392
 Alpha  occ. eigenvalues --   -0.40707  -0.40342  -0.39601  -0.39202  -0.38297
 Alpha  occ. eigenvalues --   -0.37960  -0.37675  -0.37229  -0.36150  -0.36074
 Alpha  occ. eigenvalues --   -0.35004  -0.34270  -0.33800  -0.33263  -0.32599
 Alpha  occ. eigenvalues --   -0.32404  -0.31780  -0.31218  -0.30770  -0.30303
 Alpha  occ. eigenvalues --   -0.29553  -0.28291  -0.27791  -0.27222
 Alpha virt. eigenvalues --    0.07258   0.08289   0.08816   0.09406   0.10524
 Alpha virt. eigenvalues --    0.11709   0.11987   0.12914   0.13570   0.14207
 Alpha virt. eigenvalues --    0.14517   0.14760   0.15355   0.15596   0.16224

 Mulliken charges:
               1
     1  C   -0.391616
     2  C   -0.169586
     3  C    0.043333
     4  C   -0.392294
     5  C   -0.216246
     6  C   -0.213457
     7  C    0.187771
     8  C   -0.188808
     9  C   -0.404134
    10  C   -0.188879
    11  C   -0.413653
    12  C    0.063598
    13  C   -0.286638
    14  C    0.057289
    15  C   -0.410424
    16  C   -0.274581
    17  H    0.110014
    18  H    0.111476
    19  H    0.117217
    20  H    0.088958
    21  H    0.090058
    22  H    0.064569
    23  H    0.109384
    24  H    0.113280
    25  H    0.114249
    26  H    0.093545
    27  H    0.095458
    28  H    0.091928
    29  H    0.089009
    30  H    0.083718
    31  H    0.099523
    32  H    0.121172
    33  H    0.107602
    34  H    0.116446
    35  H    0.089794
    36  H    0.093066
    37  H    0.116519
    38  H    0.108438
    39  H    0.120230
    40  H    0.076623
    41  H    0.089320
    42  H    0.101566
    43  H    0.067917
    44  H    0.109329
    45  H    0.111447
    46  H    0.111618
    47  H    0.088697
    48  H    0.096155
 Sum of Mulliken charges =  -0.00000

 Dipole moment (field-independent basis, Debye):
    X=             -0.0392    Y=             -0.0551    Z=              0.0170  Tot=              0.0698
 Quadrupole moment (field-independent basis, Debye-Ang):
   XX=           -107.8941   YY=           -106.0405   ZZ=           -105.9454
   XY=              0.1725   XZ=              0.0341   YZ=             -0.3417

  Exact polarizability: 197.996  -0.570 169.461  -1.495   0.584 153.520
 Approx polarizability: 242.313  -0.046 240.400  -0.061   0.370 238.514

                      1                      2                      3
                      A                      A                      A
 Frequencies --     27.1605                37.7743                51.5490
 Red. masses --      2.5539                 3.0935                 2.8631
 Frc consts  --      0.0011                 0.0026                 0.0045
 IR Inten    --      0.0094                 0.0025                 0.0075

                      4                      5                      6
                      A                      A                      A
 Frequencies --     63.9225                71.1452                88.7988
 Red. masses --      2.5893                 2.6523                 2.0355
 Frc consts  --      0.0062                 0.0079                 0.0095
 IR Inten    --      0.0060                 0.0021                 0.0138

                      7                      8                      9
                      A                      A                      A
 Frequencies --    115.3071               116.6828               138.0701
 Red. masses --      2.0687                 2.2048                 1.8772
 Frc consts  --      0.0162                 0.0177                 0.0211
 IR Inten    --      0.0202                 0.0142                 0.0368

                     10                     11                     12
                      A                      A                      A
 Frequencies --    153.7250               192.5337               205.9095
 Red. masses --      2.2008                 2.7392                 1.0648
 Frc consts  --      0.0306                 0.0598                 0.0266
 IR Inten    --      0.1337                 0.0399                 0.0435

                     13                     14                     15
                      A                      A                      A
 Frequencies --    210.7266               231.2316               234.5928
 Red. masses --      1.8344                 1.3249                 1.6808
 Frc consts  --      0.0480                 0.0417                 0.0545
 IR Inten    --      0.0429                 0.0108                 0.0249

                     16                     17                     18
                      A                      A                      A
 Frequencies --    247.0754               272.4742               283.3998
 Red. masses --      1.2644                 2.2063                 1.6229
 Frc consts  --      0.0455                 0.0965                 0.0768
 IR Inten    --      0.0082                 0.0872                 0.0042

                     19                     20                     21
                      A                      A                      A
 Frequencies --    284.7061               307.9599               310.5318
 Red. masses --      1.7260                 2.3153                 2.4099
 Frc consts  --      0.0824                 0.1294                 0.1369
 IR Inten    --      0.0893                 0.2409                 0.0837

                     22                     23                     24
                      A                      A                      A
 Frequencies --    323.4733               361.5316               397.9270
 Red. masses --      1.8018                 2.6293                 2.2671
 Frc consts  --      0.1111                 0.2025                 0.2115
 IR Inten    --      0.0680                 0.1599                 0.4138

                     25                     26                     27
                      A                      A                      A
 Frequencies --    407.1519               432.2585               442.0019
 Red. masses --      2.3582                 2.0757                 1.9929
 Frc consts  --      0.2303                 0.2285                 0.2294
 IR Inten    --      0.1501                 0.0078                 0.5947

                     28                     29                     30
                      A                      A                      A
 Frequencies --    489.2332               497.1022               552.1116
 Red. masses --      2.5396                 2.6748                 2.4730
 Frc consts  --      0.3581                 0.3894                 0.4441
 IR Inten    --      0.2484                 0.6639                 0.8202

                     31                     32                     33
                      A                      A                      A
 Frequencies --    606.7271               706.9882               741.9374
 Red. masses --      2.5560                 2.8590                 1.3220
 Frc consts  --      0.5544                 0.8420                 0.4288
 IR Inten    --      0.7707                 0.7122                 2.0572

                     34                     35                     36
                      A                      A                      A
 Frequencies --    768.2764               773.5918               788.1921
 Red. masses --      1.3959                 1.2714                 1.2375
 Frc consts  --      0.4855                 0.4483                 0.4530
 IR Inten    --      0.8541                 2.6487                 2.5628

                     37                     38                     39
                      A                      A                      A
 Frequencies --    815.6557               829.5757               849.1813
 Red. masses --      1.2690                 1.7052                 2.2205
 Frc consts  --      0.4974                 0.6914                 0.9434
 IR Inten    --      1.2974                 1.6997                 1.8373

                     40                     41                     42
                      A                      A                      A
 Frequencies --    887.3491               895.5813               913.6988
 Red. masses --      1.8407                 2.1259                 2.1887
 Frc consts  --      0.8539                 1.0046                 1.0766
 IR Inten    --      1.7285                 0.0951                 0.9564

                     43                     44                     45
                      A                      A                      A
 Frequencies --    931.2994               951.4743               958.9723
 Red. masses --      1.8003                 1.7316                 1.4717
 Frc consts  --      0.9200                 0.9236                 0.7974
 IR Inten    --      3.5335                 2.1658                 2.7354

                     46                     47                     48
                      A                      A                      A
 Frequencies --    962.4813               976.0519               980.2399
 Red. masses --      1.8465                 1.3880                 1.4051
 Frc consts  --      1.0078                 0.7791                 0.7955
 IR Inten    --      0.3231                 3.9472                 0.4103

                     49                     50                     51
                      A                      A                      A
 Frequencies --   1019.8037              1023.1201              1031.6758
 Red. masses --      1.7330                 1.7630                 2.2202
 Frc consts  --      1.0619                 1.0873                 1.3923
 IR Inten    --      2.4423                 0.8386                 0.7519

                     52                     53                     54
                      A                      A                      A
 Frequencies --   1037.0317              1050.3519              1066.9242
 Red. masses --      2.1008                 2.2943                 2.2401
 Frc consts  --      1.3311                 1.4913                 1.5024
 IR Inten    --      0.2805                 1.0420                 0.2905

                     55                     56                     57
                      A                      A                      A
 Frequencies --   1070.7769              1078.6097              1091.4571
 Red. masses --      1.9020                 1.8774                 1.8387
 Frc consts  --      1.2849                 1.2869                 1.2905
 IR Inten    --      0.4098                 0.7183                 1.8739

                     58                     59                     60
                      A                      A                      A
 Frequencies --   1128.7776              1141.1137              1145.0988
 Red. masses --      2.1266                 1.9116                 2.0560
 Frc consts  --      1.5965                 1.4666                 1.5884
 IR Inten    --      0.1464                 2.3953                 0.1885

                     61                     62                     63
                      A                      A                      A
 Frequencies --   1147.3283              1175.5900              1179.6624
 Red. masses --      2.1160                 2.1396                 2.1327
 Frc consts  --      1.6411                 1.7422                 1.7486
 IR Inten    --      0.2375                 6.0281                 1.6735

                     64                     65                     66
                      A                      A                      A
 Frequencies --   1200.4814              1218.5355              1229.7786
 Red. masses --      2.3790                 2.2068                 1.4185
 Frc consts  --      2.0200                 1.9305                 1.2639
 IR Inten    --      0.4441                 1.7808                 0.4349

                     67                     68                     69
                      A                      A                      A
 Frequencies --   1240.0904              1249.4713              1270.5397
 Red. masses --      1.4630                 1.4544                 1.3696
 Frc consts  --      1.3255                 1.3378                 1.3026
 IR Inten    --      0.5544                 3.1924                 0.8815

                     70                     71                     72
                      A                      A                      A
 Frequencies --   1276.9362              1282.0122              1304.5210
 Red. masses --      1.2819                 1.2775                 1.2227
 Frc consts  --      1.2316                 1.2371                 1.2260
 IR Inten    --      1.0647                 0.1813                 0.7103

                     73                     74                     75
                      A                      A                      A
 Frequencies --   1312.9185              1317.7237              1326.3541
 Red. masses --      1.2835                 1.1564                 1.1786
 Frc consts  --      1.3035                 1.1831                 1.2216
 IR Inten    --      1.0978                 0.7006                 2.4545

                     76                     77                     78
                      A                      A                      A
 Frequencies --   1342.7139              1356.8706              1367.9119
 Red. masses --      1.3175                 1.2314                 1.3619
 Frc consts  --      1.3995                 1.3357                 1.5015
 IR Inten    --      0.8332                 6.4184                 3.1111

                     79                     80                     81
                      A                      A                      A
 Frequencies --   1372.4860              1375.7037              1380.5686
 Red. masses --      1.4058                 1.4283                 1.3869
 Frc consts  --      1.5602                 1.5927                 1.5574
 IR Inten    --      5.6831                 8.0419                 0.0931

                     82                     83                     84
                      A                      A                      A
 Frequencies --   1386.0500              1402.9194              1406.3366
 Red. masses --      1.3417                 1.3227                 1.2852
 Frc consts  --      1.5186                 1.5338                 1.4976
 IR Inten    --      0.9658                 0.9053                 0.1363

                     85                     86                     87
                      A                      A                      A
 Frequencies --   1410.7551              1412.5389              1413.3379
 Red. masses --      1.2544                 1.3029                 1.2355
 Frc consts  --      1.4709                 1.5316                 1.4541
 IR Inten    --      4.4057                 2.9752                 2.4859

                     88                     89                     90
                      A                      A                      A
 Frequencies --   1413.9698              1417.0736              1472.9002
 Red. masses --      1.2640                 1.3774                 1.0753
 Frc consts  --      1.4889                 1.6296                 1.3744
 IR Inten    --      5.2032                 1.8121                 1.6111

                     91                     92                     93
                      A                      A                      A
 Frequencies --   1477.1240              1481.5855              1484.5644
 Red. masses --      1.0795                 1.0755                 1.0723
 Frc consts  --      1.3877                 1.3910                 1.3924
 IR Inten    --      0.1683                 0.4516                 0.9673

                     94                     95                     96
                      A                      A                      A
 Frequencies --   1490.0265              1494.0674              1495.1123
 Red. masses --      1.0675                 1.0571                 1.0521
 Frc consts  --      1.3963                 1.3904                 1.3857
 IR Inten    --      2.8026                 3.3077                 1.1809

                     97                     98                     99
                      A                      A                      A
 Frequencies --   1495.7437              1497.9474              1498.7064
 Red. masses --      1.0504                 1.0553                 1.0654
 Frc consts  --      1.3846                 1.3951                 1.4099
 IR Inten    --      1.9307                 1.2637                 5.0255

                    100                    101                    102
                      A                      A                      A
 Frequencies --   1500.9618              1504.0567              1506.7085
 Red. masses --      1.0705                 1.0522                 1.0594
 Frc consts  --      1.4209                 1.4024                 1.4171
 IR Inten    --      1.5205                 4.4514                 3.7529

                    103                    104                    105
                      A                      A                      A
 Frequencies --   1508.8299              1513.0408              1514.9792
 Red. masses --      1.0786                 1.0579                 1.0716
 Frc consts  --      1.4468                 1.4269                 1.4491
 IR Inten    --      6.2996                 3.6211                 2.7349

                    106                    107                    108
                      A                      A                      A
 Frequencies --   1515.4156              2981.0131              3005.7642
 Red. masses --      1.0532                 1.0808                 1.0613
 Frc consts  --      1.4251                 5.6588                 5.6493
 IR Inten    --      4.0409                 9.6089                 3.9705

                    109                    110                    111
                      A                      A                      A
 Frequencies --   3006.5627              3008.6304              3016.0778
 Red. masses --      1.0607                 1.0654                 1.0629
 Frc consts  --      5.6494                 5.6817                 5.6965
 IR Inten    --     20.9232                17.4522                41.2329

                    112                    113                    114
                      A                      A                      A
 Frequencies --   3019.2683              3025.6045              3030.3799
 Red. masses --      1.0352                 1.0512                 1.0812
 Frc consts  --      5.5598                 5.6698                 5.8498
 IR Inten    --     35.1545                21.0726                17.0266

                    115                    116                    117
                      A                      A                      A
 Frequencies --   3030.3889              3031.0994              3036.8570
 Red. masses --      1.0599                 1.0391                 1.0396
 Frc consts  --      5.7350                 5.6250                 5.6490
 IR Inten    --     17.4189                32.3299                24.2888

                    118                    119                    120
                      A                      A                      A
 Frequencies --   3040.7700              3041.1836              3041.7970
 Red. masses --      1.0409                 1.0750                 1.0932
 Frc consts  --      5.6707                 5.8581                 5.9595
 IR Inten    --     22.8365                 7.6412                17.7218

                    121                    122                    123
                      A                      A                      A
 Frequencies --   3042.7842              3050.5790              3053.9638
 Red. masses --      1.0808                 1.0893                 1.0785
 Frc consts  --      5.8959                 5.9724                 5.9266
 IR Inten    --     25.9750                34.9015                11.4118

                    124                    125                    126
                      A                      A                      A
 Frequencies --   3056.9005              3059.4258              3075.4122
 Red. masses --      1.0846                 1.0758                 1.1015
 Frc consts  --      5.9713                 5.9329                 6.1384
 IR Inten    --     33.5172                34.0718                57.2498

                    127                    128                    129
                      A                      A                      A
 Frequencies --   3085.9813              3086.3342              3094.7360
 Red. masses --      1.1020                 1.1009                 1.0988
 Frc consts  --      6.1835                 6.1785                 6.2004
 IR Inten    --     24.3423                27.1728                18.9165

                    130                    131                    132
                      A                      A                      A
 Frequencies --   3094.9057              3095.1316              3096.9085
 Red. masses --      1.1041                 1.0983                 1.0995
 Frc consts  --      6.2308                 6.1992                 6.2129
 IR Inten    --     29.4097                48.1279                37.2272

                    133                    134                    135
                      A                      A                      A
 Frequencies --   3098.5684              3104.2029              3111.4174
 Red. masses --      1.0981                 1.1005                 1.0998
 Frc consts  --      6.2120                 6.2479                 6.2732
 IR Inten    --     69.8669                50.2333                40.6126

                    136                    137                    138
                      A                      A                      A
 Frequencies --   3114.7294              3115.6497              3127.0299
 Red. masses --      1.1017                 1.1006                 1.0988
 Frc consts  --      6.2971                 6.2948                 6.3306
 IR Inten    --     46.1106                36.0032                29.2055

 - Thermochemistry -
 -------------------
 Temperature   298.150 Kelvin.  Pressure   1.00000 Atm.
 Atom     1 has atomic number  6 and mass  12.00000

 Molecular mass:   224.25040 amu.
 Principal axes and moments of inertia in atomic units:
                           1         2         3
     Eigenvalues --  2606.407057037.886878145.79232
           X            0.99999   0.00255  -0.00254
           Y           -0.00254   0.99998   0.00616
           Z            0.00255  -0.00616   0.99998
 This molecule is an asymmetric top.
 Rotational symmetry number  1.
 Warning -- assumption of classical behavior for rotation
           may cause significant error
 Rotational temperatures (Kelvin)      0.03323     0.01231     0.01063
 Rotational constants (GHZ):           0.69242     0.25643     0.22156
 Zero-point vibrational energy    1180074.7 (Joules/Mol)
                                  282.04463 (Kcal/Mol)
 Warning -- explicit consideration of  31 degrees of freedom as
           vibrations may cause significant error
 Vibrational temperatures:     39.08    54.35    74.17    91.97   102.36
          (Kelvin)            127.76   165.90   167.88   198.65   221.18
                              277.01   296.26   303.19   332.69   337.53
                              355.49   392.03   407.75   409.63   443.09
                              446.79   465.41   520.16   572.53   585.80
                              621.92   635.94   703.90   715.22   794.37
                              872.95  1017.20  1067.48  1105.38  1113.03
                             1134.03  1173.55  1193.57  1221.78  1276.70
                             1288.54  1314.61  1339.93  1368.96  1379.75
                             1384.80  1404.32  1410.35  1467.27  1472.04
                             1484.35  1492.06  1511.22  1535.07  1540.61
                             1551.88  1570.36  1624.06  1641.81  1647.54
                             1650.75  1691.41  1697.27  1727.22  1753.20
                             1769.38  1784.21  1797.71  1828.02  1837.23
                             1844.53  1876.91  1889.00  1895.91  1908.33
                             1931.87  1952.23  1968.12  1974.70  1979.33
                             1986.33  1994.22  2018.49  2023.40  2029.76
                             2032.33  2033.48  2034.39  2038.85  2119.17
                             2125.25  2131.67  2135.96  2143.82  2149.63
                             2151.13  2152.04  2155.21  2156.30  2159.55
                             2164.00  2167.82  2170.87  2176.93  2179.72
                             2180.35  4289.01  4324.62  4325.77  4328.75
                             4339.46  4344.05  4353.17  4360.04  4360.05
                             4361.08  4369.36  4374.99  4375.58  4376.47
                             4377.89  4389.10  4393.97  4398.20  4401.83
                             4424.83  4440.04  4440.55  4452.63  4452.88
                             4453.20  4455.76  4458.15  4466.26  4476.64
                             4481.40  4482.73  4499.10

 Zero-point correction=                           0.449467 (Hartree/Particle)
 Thermal correction to Energy=                    0.469816
 Thermal correction to Enthalpy=                  0.470760
 Thermal correction to Gibbs Free Energy=         0.400577
 Sum of electronic and zero-point Energies=           -628.562716
 Sum of electronic and thermal Energies=              -628.542366
 Sum of electronic and thermal Enthalpies=            -628.541422
 Sum of electronic and thermal Free Energies=         -628.611605

                     E (Thermal)             CV                S
                      KCal/Mol        Cal/Mol-Kelvin    Cal/Mol-Kelvin
 Total                  294.814             76.997            147.713
 Electronic               0.000              0.000              0.000
 Translational            0.889              2.981             42.125
 Rotational               0.889              2.981             33.368
 Vibrational            293.037             71.036             72.219
 Vibration     1          0.593              1.984              6.027
 Vibration     2          0.594              1.982              5.373
 Vibration     3          0.596              1.977              4.757
 Vibration     4          0.597              1.972              4.332
 Vibration     5          0.598              1.968              4.121
 Vibration     6          0.602              1.957              3.686
 Vibration     7          0.608              1.937              3.178
 Vibration     8          0.608              1.936              3.155
 Vibration     9          0.614              1.915              2.830
 Vibration    10          0.619              1.899              2.626
 Vibration    11          0.635              1.850              2.203
 Vibration    12          0.640              1.831              2.080
 Vibration    13          0.643              1.824              2.037
 Vibration    14          0.653              1.793              1.869
 Vibration    15          0.654              1.788              1.844
 Vibration    16          0.661              1.768              1.751
 Vibration    17          0.675              1.724              1.580
 Vibration    18          0.682              1.704              1.513
 Vibration    19          0.683              1.702              1.505
 Vibration    20          0.698              1.659              1.373
 Vibration    21          0.699              1.654              1.359
 Vibration    22          0.708              1.628              1.292
 Vibration    23          0.736              1.551              1.116
 Vibration    24          0.764              1.475              0.970
 Vibration    25          0.772              1.455              0.937
 Vibration    26          0.793              1.400              0.851
 Vibration    27          0.802              1.379              0.820
 Vibration    28          0.845              1.274              0.686
 Vibration    29          0.853              1.256              0.665
 Vibration    30          0.907              1.135              0.540
 Vibration    31          0.965              1.018              0.438

                           ! Non-Optimized Parameters !
 Normal termination of Gaussian 16 at Tue May 23 17:28:01 2023.
