 Gaussian 16, Revision A.03,
 Gaussian 16:  ES64L-G16RevA.03 25-Dec-2016

 -----------------------------
 # opt freq b3lyp/6-31g(2df,p)
 -----------------------------

 -------------------
 Title Card Required
 -------------------
 Symbolic Z-matrix:
 Charge =  0 Multiplicity = 1

 SCF Done:  E(RB3LYP) =  -416.894953477     A.U. after   12 cycles
 SCF Done:  E(RB3LYP) =  -416.895713624     A.U. after   10 cycles
 SCF Done:  E(RB3LYP) =  -416.895795973     A.U. after    8 cycles
 SCF Done:  E(RB3LYP) =  -416.895800751     A.U. after    7 cycles
 Optimization completed.
    -- Stationary point found.
 Normal termination of Gaussian 16 at Sat May 27 18:20:42 2023.

 ----------------------------------------------------------------------
 #N Geom=AllCheck Guess=TCheck SCRF=Check GenChk RB3LYP/6-31G(2df,p) Fr
 eq
 ----------------------------------------------------------------------

 Structure from the checkpoint file:  "CCCqFrqFrF.chk"
 -------------------
 Title Card Required
 -------------------
 Charge =  0 Multiplicity = 1

                         Standard orientation:
 ---------------------------------------------------------------------
 Center     Atomic      Atomic             Coordinates (Angstroms)
 Number     Number       Type             X           Y           Z
 ---------------------------------------------------------------------
      1          6           0       -2.078096   -0.092145    0.000000
      2          6           0       -0.841329    0.808358   -0.000001
      3          6           0        0.451482    0.020435    0.000000
      4          9           0        0.552707   -0.771513    1.081413
      5          9           0        0.552707   -0.771516   -1.081412
      6          9           0        1.519691    0.834344   -0.000001
      7          1           0       -2.987884    0.512924   -0.000001
      8          1           0       -2.092616   -0.732994    0.885317
      9          1           0       -2.092616   -0.732996   -0.885315
     10          1           0       -0.822582    1.455672    0.881956
     11          1           0       -0.822582    1.455670   -0.881959
 ---------------------------------------------------------------------

 SCF Done:  E(RB3LYP) =  -416.895800751     A.U. after    1 cycles

 The electronic state is 1-A.
 Alpha  occ. eigenvalues --  -24.71254 -24.71254 -24.71202 -10.41175 -10.20881
 Alpha  occ. eigenvalues --  -10.19203  -1.29931  -1.21029  -1.21013  -0.80605
 Alpha  occ. eigenvalues --   -0.69756  -0.63677  -0.57940  -0.57716  -0.53400
 Alpha  occ. eigenvalues --   -0.47011  -0.45385  -0.44655  -0.43105  -0.40743
 Alpha  occ. eigenvalues --   -0.40704  -0.39376  -0.38250  -0.36597  -0.35426
 Alpha virt. eigenvalues --    0.09218   0.12776   0.13730   0.14610   0.15559
 Alpha virt. eigenvalues --    0.17801   0.22362   0.22492   0.23258   0.24938
 Alpha virt. eigenvalues --    0.38508   0.42982   0.43275   0.46882   0.49168

 Mulliken charges:
               1
     1  C   -0.391727
     2  C   -0.300981
     3  C    0.285275
     4  F   -0.086042
     5  F   -0.086043
     6  F   -0.081425
     7  H    0.124906
     8  H    0.137267
     9  H    0.137267
    10  H    0.130751
    11  H    0.130751
 Sum of Mulliken charges =  -0.00000

 Dipole moment (field-independent basis, Debye):
    X=             -1.8314    Y=              0.9375    Z=              0.0000  Tot=              2.0574
 Quadrupole moment (field-independent basis, Debye-Ang):
   XX=            -33.3934   YY=            -33.4093   ZZ=            -33.9125
   XY=             -0.7995   XZ=              0.0000   YZ=             -0.0000

  Exact polarizability:  38.755   0.702  34.778  -0.000   0.000  33.977
 Approx polarizability:  47.726   1.261  48.536  -0.000   0.000  49.492

                      1                      2                      3
                      A                      A                      A
 Frequencies --     98.2778               211.8345               222.3933
 Red. masses --      2.3863                 1.1593                 4.2195
 Frc consts  --      0.0136                 0.0306                 0.1230
 IR Inten    --      0.0848                 0.0561                 0.9000

                      4                      5                      6
                      A                      A                      A
 Frequencies --    363.7027               407.1707               538.7250
 Red. masses --      3.2350                 5.8708                 7.0371
 Frc consts  --      0.2521                 0.5735                 1.2033
 IR Inten    --      0.4597                 4.1757                 0.6113

                      7                      8                      9
                      A                      A                      A
 Frequencies --    547.9932               620.7920               796.4424
 Red. masses --      9.0850                 5.1939                 1.2235
 Frc consts  --      1.6074                 1.1793                 0.4573
 IR Inten    --      5.5876                 7.4839                 0.0110

                     10                     11                     12
                      A                      A                      A
 Frequencies --    810.3657               990.5495              1039.1530
 Red. masses --      5.9934                 1.7421                 1.8574
 Frc consts  --      2.3189                 1.0071                 1.1817
 IR Inten    --      0.1233                20.9235                82.5588

                     13                     14                     15
                      A                      A                      A
 Frequencies --   1076.8427              1198.8820              1212.9092
 Red. masses --      2.5742                 5.1578                 2.3465
 Frc consts  --      1.7587                 4.3678                 2.0339
 IR Inten    --     28.2889               202.9245                82.5731

                     16                     17                     18
                      A                      A                      A
 Frequencies --   1273.5086              1325.2355              1395.5609
 Red. masses --      3.8853                 1.4877                 1.9509
 Frc consts  --      3.7126                 1.5394                 2.2387
 IR Inten    --    146.7627                67.6471                40.7115

                     19                     20                     21
                      A                      A                      A
 Frequencies --   1413.3769              1477.8308              1497.0641
 Red. masses --      1.2433                 1.0861                 1.0387
 Frc consts  --      1.4633                 1.3976                 1.3715
 IR Inten    --      7.0235                 2.9893                 2.8943

                     22                     23                     24
                      A                      A                      A
 Frequencies --   1511.7703              3053.7701              3062.6309
 Red. masses --      1.0768                 1.0351                 1.0596
 Frc consts  --      1.4499                 5.6874                 5.8560
 IR Inten    --     15.2159                12.5257                13.4500

                     25                     26                     27
                      A                      A                      A
 Frequencies --   3103.5037              3128.8331              3133.1381
 Red. masses --      1.1031                 1.1021                 1.1031
 Frc consts  --      6.2602                 6.3569                 6.3798
 IR Inten    --      2.4337                17.7811                22.5092

 - Thermochemistry -
 -------------------
 Temperature   298.150 Kelvin.  Pressure   1.00000 Atm.
 Atom     1 has atomic number  6 and mass  12.00000

 Molecular mass:    98.03433 amu.
 Principal axes and moments of inertia in atomic units:
                           1         2         3
     Eigenvalues --   346.01050 656.09813 662.26332
           X            0.99984  -0.01814   0.00000
           Y            0.01814   0.99984  -0.00000
           Z            0.00000   0.00000   1.00000
 This molecule is an asymmetric top.
 Rotational symmetry number  1.
 Rotational temperatures (Kelvin)      0.25032     0.13201     0.13078
 Rotational constants (GHZ):           5.21586     2.75072     2.72511
 Zero-point vibrational energy     212410.5 (Joules/Mol)
                                   50.76732 (Kcal/Mol)
 Warning -- explicit consideration of   7 degrees of freedom as
           vibrations may cause significant error
 Vibrational temperatures:    141.40   304.78   319.97   523.29   585.83
          (Kelvin)            775.11   788.44   893.18  1145.90  1165.94
                             1425.18  1495.11  1549.34  1724.92  1745.11
                             1832.29  1906.72  2007.90  2033.53  2126.27
                             2153.94  2175.10  4393.69  4406.44  4465.25
                             4501.69  4507.89

 Zero-point correction=                           0.080903 (Hartree/Particle)
 Thermal correction to Energy=                    0.087065
 Thermal correction to Enthalpy=                  0.088009
 Thermal correction to Gibbs Free Energy=         0.050919
 Sum of electronic and zero-point Energies=           -416.814898
 Sum of electronic and thermal Energies=              -416.808736
 Sum of electronic and thermal Enthalpies=            -416.807792
 Sum of electronic and thermal Free Energies=         -416.844881

                     E (Thermal)             CV                S
                      KCal/Mol        Cal/Mol-Kelvin    Cal/Mol-Kelvin
 Total                   54.634             21.292             78.062
 Electronic               0.000              0.000              0.000
 Translational            0.889              2.981             39.659
 Rotational               0.889              2.981             26.511
 Vibrational             52.857             15.331             11.892
 Vibration     1          0.604              1.950              3.488
 Vibration     2          0.643              1.823              2.028
 Vibration     3          0.648              1.807              1.940
 Vibration     4          0.737              1.547              1.106
 Vibration     5          0.772              1.455              0.937
 Vibration     6          0.894              1.164              0.568
 Vibration     7          0.903              1.144              0.548

 Optimization completed.
    -- Stationary point found.
 Normal termination of Gaussian 16 at Sat May 27 18:28:46 2023.
