 Gaussian 16, Revision A.03,
 Gaussian 16:  ES64L-G16RevA.03 25-Dec-2016

 -----------------------------
 # opt freq b3lyp/6-31g(2df,p)
 -----------------------------

 -------------------
 Title Card Required
 -------------------
 Symbolic Z-matrix:
 Charge =  0 Multiplicity = 1

 SCF Done:  E(RB3LYP) =  -678.771309842     A.U. after   12 cycles
 SCF Done:  E(RB3LYP) =  -678.781812522     A.U. after   11 cycles
 SCF Done:  E(RB3LYP) =  -678.783525418     A.U. after   10 cycles
 SCF Done:  E(RB3LYP) =  -678.784072999     A.U. after   10 cycles
 SCF Done:  E(RB3LYP) =  -678.784630637     A.U. after   10 cycles
 SCF Done:  E(RB3LYP) =  -678.784800617     A.U. after    9 cycles
 SCF Done:  E(RB3LYP) =  -678.784877707     A.U. after    9 cycles
 SCF Done:  E(RB3LYP) =  -678.784939157     A.U. after    9 cycles
 SCF Done:  E(RB3LYP) =  -678.783537127     A.U. after   10 cycles
 SCF Done:  E(RB3LYP) =  -678.785482060     A.U. after   10 cycles
 SCF Done:  E(RB3LYP) =  -678.786016914     A.U. after    8 cycles
 SCF Done:  E(RB3LYP) =  -678.784912316     A.U. after   10 cycles
 SCF Done:  E(RB3LYP) =  -678.786229004     A.U. after   10 cycles
 SCF Done:  E(RB3LYP) =  -678.785978924     A.U. after   10 cycles
 SCF Done:  E(RB3LYP) =  -678.786333632     A.U. after   10 cycles
 SCF Done:  E(RB3LYP) =  -678.786340700     A.U. after    8 cycles
 SCF Done:  E(RB3LYP) =  -678.786341526     A.U. after    6 cycles
 SCF Done:  E(RB3LYP) =  -678.786341680     A.U. after    6 cycles
 SCF Done:  E(RB3LYP) =  -678.786341703     A.U. after    6 cycles
 Optimization completed.
    -- Stationary point found.
 Normal termination of Gaussian 16 at Tue May 23 03:10:17 2023.

 ----------------------------------------------------------------------
 #N Geom=AllCheck Guess=TCheck SCRF=Check GenChk RB3LYP/6-31G(2df,p) Fr
 eq
 ----------------------------------------------------------------------

 Structure from the checkpoint file:  "CCCqCCrCCOCqNrCCCCO.chk"
 -------------------
 Title Card Required
 -------------------
 Charge =  0 Multiplicity = 1

                         Standard orientation:
 ---------------------------------------------------------------------
 Center     Atomic      Atomic             Coordinates (Angstroms)
 Number     Number       Type             X           Y           Z
 ---------------------------------------------------------------------
      1          6           0        6.040529   -1.459944    0.413770
      2          6           0        4.601861   -1.606191   -0.090750
      3          6           0        3.690046   -0.379803    0.117764
      4          6           0        4.237872    0.896485   -0.576371
      5          6           0        5.007304    1.848920    0.346803
      6          6           0        2.262105   -0.717332   -0.354579
      7          6           0        1.191659    0.220783    0.192247
      8          8           0       -0.056053   -0.164628   -0.346825
      9          6           0       -1.184385    0.536492    0.175201
     10          7           0       -1.272136    1.929984   -0.208825
     11          6           0       -2.412541   -0.234178   -0.308236
     12          6           0       -3.722929    0.236774    0.327661
     13          6           0       -4.945911   -0.532066   -0.182811
     14          6           0       -6.254600   -0.055109    0.447130
     15          8           0       -7.384564   -0.799898    0.018032
     16          1           0        6.594134   -2.394519    0.277400
     17          1           0        6.065607   -1.213606    1.481320
     18          1           0        6.586697   -0.677547   -0.121900
     19          1           0        4.139845   -2.467626    0.407804
     20          1           0        4.616632   -1.851366   -1.162091
     21          1           0        3.644866   -0.184287    1.200517
     22          1           0        3.407912    1.453296   -1.026405
     23          1           0        4.878108    0.600238   -1.417600
     24          1           0        4.362852    2.214893    1.154155
     25          1           0        5.376218    2.720985   -0.203216
     26          1           0        5.868264    1.361408    0.812979
     27          1           0        1.997318   -1.736852   -0.051322
     28          1           0        2.217658   -0.699513   -1.451121
     29          1           0        1.423386    1.267175   -0.065073
     30          1           0        1.165754    0.160250    1.294926
     31          1           0       -1.134691    0.511965    1.276555
     32          1           0       -1.192133    2.013647   -1.218766
     33          1           0       -0.526444    2.479473    0.203371
     34          1           0       -2.243436   -1.295625   -0.098524
     35          1           0       -2.466761   -0.139622   -1.401537
     36          1           0       -3.844979    1.309178    0.138951
     37          1           0       -3.656304    0.125586    1.419139
     38          1           0       -4.834526   -1.605531    0.014772
     39          1           0       -5.016131   -0.423827   -1.275713
     40          1           0       -6.390350    1.022502    0.256807
     41          1           0       -6.215260   -0.183304    1.534838
     42          1           0       -7.460417   -0.690048   -0.935122
 ---------------------------------------------------------------------

 SCF Done:  E(RB3LYP) =  -678.786341703     A.U. after    1 cycles

 The electronic state is 1-A.
 Alpha  occ. eigenvalues --  -19.13034 -19.12612 -14.31284 -10.25075 -10.22316
 Alpha  occ. eigenvalues --  -10.21816 -10.18430 -10.17841 -10.17765 -10.17486
 Alpha  occ. eigenvalues --  -10.17473 -10.17450 -10.17428 -10.17317 -10.17237
 Alpha  occ. eigenvalues --   -1.02883  -1.00684  -0.87825  -0.81647  -0.79087
 Alpha  occ. eigenvalues --   -0.75144  -0.74426  -0.72347  -0.67653  -0.64135
 Alpha  occ. eigenvalues --   -0.61253  -0.59844  -0.59014  -0.57684  -0.55722
 Alpha  occ. eigenvalues --   -0.50754  -0.49580  -0.49251  -0.47403  -0.46302
 Alpha  occ. eigenvalues --   -0.46030  -0.44148  -0.43132  -0.42861  -0.41766
 Alpha  occ. eigenvalues --   -0.41000  -0.40313  -0.40113  -0.38712  -0.37801
 Alpha  occ. eigenvalues --   -0.37215  -0.36444  -0.35309  -0.34871  -0.34496
 Alpha  occ. eigenvalues --   -0.33563  -0.33151  -0.32538  -0.31701  -0.31632
 Alpha  occ. eigenvalues --   -0.31095  -0.30523  -0.30214  -0.26810  -0.25751
 Alpha  occ. eigenvalues --   -0.24224
 Alpha virt. eigenvalues --    0.07341   0.08240   0.08478   0.10232   0.10429
 Alpha virt. eigenvalues --    0.10733   0.11536   0.11806   0.13373   0.13535
 Alpha virt. eigenvalues --    0.13925   0.14450   0.14902   0.15260   0.16021

 Mulliken charges:
               1
     1  C   -0.392562
     2  C   -0.178369
     3  C    0.050713
     4  C   -0.177044
     5  C   -0.382856
     6  C   -0.213811
     7  C   -0.079722
     8  O   -0.252770
     9  C    0.121251
    10  N   -0.507042
    11  C   -0.190182
    12  C   -0.179209
    13  C   -0.199351
    14  C   -0.057012
    15  O   -0.419977
    16  H    0.111240
    17  H    0.112740
    18  H    0.119291
    19  H    0.092081
    20  H    0.094012
    21  H    0.062741
    22  H    0.092557
    23  H    0.093819
    24  H    0.111412
    25  H    0.109572
    26  H    0.120402
    27  H    0.097860
    28  H    0.101010
    29  H    0.074592
    30  H    0.080060
    31  H    0.068847
    32  H    0.225982
    33  H    0.231361
    34  H    0.104456
    35  H    0.092824
    36  H    0.113893
    37  H    0.091671
    38  H    0.103225
    39  H    0.081305
    40  H    0.084003
    41  H    0.108822
    42  H    0.278165
 Sum of Mulliken charges =  -0.00000

 Dipole moment (field-independent basis, Debye):
    X=              2.2933    Y=              1.2043    Z=             -0.7861  Tot=              2.7069
 Quadrupole moment (field-independent basis, Debye-Ang):
   XX=           -111.6708   YY=            -97.6030   ZZ=            -92.9969
   XY=             -3.9174   XZ=              8.2896   YZ=             -1.0661

  Exact polarizability: 188.970   0.474 137.882   2.617   0.354 125.978
 Approx polarizability: 204.721   1.626 198.758   2.272  -0.344 201.356

                      1                      2                      3
                      A                      A                      A
 Frequencies --     17.5661                23.5924                34.8942
 Red. masses --      3.8285                 3.6647                 2.5453
 Frc consts  --      0.0007                 0.0012                 0.0018
 IR Inten    --      0.2751                 0.3959                 0.5146

                      4                      5                      6
                      A                      A                      A
 Frequencies --     51.5961                60.6419                65.4943
 Red. masses --      3.1792                 2.6083                 2.6985
 Frc consts  --      0.0050                 0.0057                 0.0068
 IR Inten    --      0.3739                 0.9878                 0.9791

                      7                      8                      9
                      A                      A                      A
 Frequencies --     95.8055               114.3610               124.2204
 Red. masses --      2.8095                 2.9075                 2.6236
 Frc consts  --      0.0152                 0.0224                 0.0239
 IR Inten    --      0.3710                 2.2297                 0.6501

                     10                     11                     12
                      A                      A                      A
 Frequencies --    144.9764               148.6577               159.1313
 Red. masses --      1.8172                 2.0795                 2.4027
 Frc consts  --      0.0225                 0.0271                 0.0358
 IR Inten    --      0.4828                 0.7376                 0.0645

                     13                     14                     15
                      A                      A                      A
 Frequencies --    182.9361               191.3765               215.9946
 Red. masses --      3.0521                 3.2421                 1.3221
 Frc consts  --      0.0602                 0.0700                 0.0363
 IR Inten    --      0.1267                 0.4051                 0.2541

                     16                     17                     18
                      A                      A                      A
 Frequencies --    249.6924               268.2431               296.2144
 Red. masses --      2.3067                 1.2763                 2.4620
 Frc consts  --      0.0847                 0.0541                 0.1273
 IR Inten    --      2.6072                 0.4173                 6.2233

                     19                     20                     21
                      A                      A                      A
 Frequencies --    304.8253               315.7386               318.3078
 Red. masses --      1.2416                 2.0633                 1.7886
 Frc consts  --      0.0680                 0.1212                 0.1068
 IR Inten    --     96.8437                 0.4352                25.2997

                     22                     23                     24
                      A                      A                      A
 Frequencies --    335.2223               393.4680               421.4639
 Red. masses --      1.7081                 2.9135                 2.8207
 Frc consts  --      0.1131                 0.2658                 0.2952
 IR Inten    --     17.2523                 4.5445                 5.5369

                     25                     26                     27
                      A                      A                      A
 Frequencies --    453.0586               489.4535               506.3096
 Red. masses --      2.3040                 3.0316                 2.8899
 Frc consts  --      0.2786                 0.4279                 0.4365
 IR Inten    --      2.7027                 7.2485                13.9505

                     28                     29                     30
                      A                      A                      A
 Frequencies --    555.2581               598.7497               743.7457
 Red. masses --      2.5809                 2.7402                 1.0856
 Frc consts  --      0.4688                 0.5788                 0.3538
 IR Inten    --      8.2235                40.5571                 1.9460

                     31                     32                     33
                      A                      A                      A
 Frequencies --    758.1879               766.7514               790.3842
 Red. masses --      1.4300                 1.2223                 1.2109
 Frc consts  --      0.4843                 0.4234                 0.4457
 IR Inten    --      3.5822                 4.7554                 5.9309

                     34                     35                     36
                      A                      A                      A
 Frequencies --    792.5685               825.7854               859.4968
 Red. masses --      1.2205                 1.8520                 1.5330
 Frc consts  --      0.4517                 0.7441                 0.6672
 IR Inten    --      1.9858               142.7833                 6.1180

                     37                     38                     39
                      A                      A                      A
 Frequencies --    901.3953               912.5324               950.8358
 Red. masses --      1.4843                 1.8253                 1.9734
 Frc consts  --      0.7106                 0.8955                 1.0512
 IR Inten    --      2.4093                 1.4913                10.8075

                     40                     41                     42
                      A                      A                      A
 Frequencies --    972.6507              1006.0374              1012.9562
 Red. masses --      4.7530                 2.4234                 2.5817
 Frc consts  --      2.6493                 1.4451                 1.5608
 IR Inten    --     98.0223                 8.9619                41.7651

                     43                     44                     45
                      A                      A                      A
 Frequencies --   1023.8789              1032.3893              1039.7695
 Red. masses --      1.4921                 2.1777                 1.4552
 Frc consts  --      0.9216                 1.3675                 0.9269
 IR Inten    --      2.4921                 0.2778                 2.5752

                     46                     47                     48
                      A                      A                      A
 Frequencies --   1049.5054              1053.7690              1055.3909
 Red. masses --      1.4568                 2.0089                 2.5421
 Frc consts  --      0.9454                 1.3143                 1.6683
 IR Inten    --      6.5827                 3.9907                 0.6756

                     49                     50                     51
                      A                      A                      A
 Frequencies --   1074.7962              1080.2167              1088.1253
 Red. masses --      2.7642                 4.0370                 2.1968
 Frc consts  --      1.8813                 2.7754                 1.5325
 IR Inten    --      3.7111               126.9580                16.2288

                     52                     53                     54
                      A                      A                      A
 Frequencies --   1108.2130              1134.3360              1151.9963
 Red. masses --      5.0950                 1.3473                 2.5264
 Frc consts  --      3.6867                 1.0214                 1.9754
 IR Inten    --    267.9620                13.5233                13.4233

                     55                     56                     57
                      A                      A                      A
 Frequencies --   1163.7935              1171.2197              1184.9765
 Red. masses --      2.1503                 2.3171                 2.0048
 Frc consts  --      1.7159                 1.8727                 1.6586
 IR Inten    --      8.5203                31.6701                 3.1559

                     58                     59                     60
                      A                      A                      A
 Frequencies --   1232.4206              1244.2805              1247.8020
 Red. masses --      1.2735                 1.5216                 1.3204
 Frc consts  --      1.1396                 1.3880                 1.2113
 IR Inten    --      2.4753                 5.3765                 2.9907

                     61                     62                     63
                      A                      A                      A
 Frequencies --   1274.1524              1290.0664              1299.5394
 Red. masses --      1.2796                 1.2490                 1.4026
 Frc consts  --      1.2239                 1.2247                 1.3956
 IR Inten    --      1.9988                 3.5035                11.6946

                     64                     65                     66
                      A                      A                      A
 Frequencies --   1310.2395              1315.1880              1317.4744
 Red. masses --      1.1126                 1.1322                 1.1563
 Frc consts  --      1.1253                 1.1538                 1.1825
 IR Inten    --      1.4954                 0.4779                 1.9527

                     67                     68                     69
                      A                      A                      A
 Frequencies --   1324.9062              1330.7065              1347.6932
 Red. masses --      1.1342                 1.2233                 1.2597
 Frc consts  --      1.1730                 1.2763                 1.3480
 IR Inten    --      3.7085                 2.6454                 3.4355

                     70                     71                     72
                      A                      A                      A
 Frequencies --   1353.2340              1370.1129              1383.0897
 Red. masses --      1.2917                 1.2927                 1.4144
 Frc consts  --      1.3937                 1.4297                 1.5941
 IR Inten    --      4.6498                23.8057                 0.2585

                     73                     74                     75
                      A                      A                      A
 Frequencies --   1391.7614              1397.1913              1403.0443
 Red. masses --      1.3725                 1.4648                 1.4866
 Frc consts  --      1.5664                 1.6847                 1.7242
 IR Inten    --     21.3436                 0.7497                 2.0818

                     76                     77                     78
                      A                      A                      A
 Frequencies --   1410.7886              1413.9996              1423.8764
 Red. masses --      1.2449                 1.2311                 1.2927
 Frc consts  --      1.4598                 1.4503                 1.5441
 IR Inten    --      1.4556                 3.3448                56.6938

                     79                     80                     81
                      A                      A                      A
 Frequencies --   1433.3982              1437.0059              1482.0574
 Red. masses --      1.4330                 1.4701                 1.0729
 Frc consts  --      1.7347                 1.7886                 1.3885
 IR Inten    --      9.4255                 2.7491                 0.0826

                     82                     83                     84
                      A                      A                      A
 Frequencies --   1483.2207              1487.5851              1489.7730
 Red. masses --      1.0803                 1.0797                 1.0520
 Frc consts  --      1.4002                 1.4077                 1.3756
 IR Inten    --      0.8303                 0.4256                 0.6709

                     85                     86                     87
                      A                      A                      A
 Frequencies --   1493.1341              1499.2566              1503.9219
 Red. masses --      1.0689                 1.0572                 1.0913
 Frc consts  --      1.4041                 1.4000                 1.4542
 IR Inten    --      1.3916                 4.0157                 1.7119

                     88                     89                     90
                      A                      A                      A
 Frequencies --   1504.4868              1509.6774              1511.7313
 Red. masses --      1.0476                 1.0746                 1.0546
 Frc consts  --      1.3971                 1.4429                 1.4200
 IR Inten    --      6.1089                 5.4224                 3.9163

                     91                     92                     93
                      A                      A                      A
 Frequencies --   1518.5545              1525.9353              1659.8462
 Red. masses --      1.0964                 1.0883                 1.0993
 Frc consts  --      1.4897                 1.4931                 1.7844
 IR Inten    --      0.7642                 4.1873                18.6066

                     94                     95                     96
                      A                      A                      A
 Frequencies --   2942.8094              2967.0538              2969.8373
 Red. masses --      1.0598                 1.0709                 1.0830
 Frc consts  --      5.4073                 5.5546                 5.6281
 IR Inten    --     34.3837                54.7059                45.2843

                     97                     98                     99
                      A                      A                      A
 Frequencies --   2976.5152              2978.5807              2995.5360
 Red. masses --      1.0961                 1.0813                 1.0656
 Frc consts  --      5.7217                 5.6523                 5.6337
 IR Inten    --     34.7809                17.6327                11.4117

                    100                    101                    102
                      A                      A                      A
 Frequencies --   3008.0041              3010.7024              3019.9310
 Red. masses --      1.0611                 1.0666                 1.0623
 Frc consts  --      5.6566                 5.6960                 5.7083
 IR Inten    --     18.9591                10.6981                13.2446

                    103                    104                    105
                      A                      A                      A
 Frequencies --   3024.7152              3028.5745              3030.5446
 Red. masses --      1.0647                 1.0604                 1.0367
 Frc consts  --      5.7392                 5.7304                 5.6096
 IR Inten    --     54.7924                52.1803                10.6183

                    106                    107                    108
                      A                      A                      A
 Frequencies --   3032.0934              3043.7590              3045.1429
 Red. masses --      1.0381                 1.0991                 1.0889
 Frc consts  --      5.6232                 5.9995                 5.9493
 IR Inten    --     50.4772                17.1601                10.2109

                    109                    110                    111
                      A                      A                      A
 Frequencies --   3052.8081              3061.3354              3070.0994
 Red. masses --      1.0977                 1.0906                 1.1029
 Frc consts  --      6.0276                 6.0218                 6.1246
 IR Inten    --     23.4727                12.7988                49.0001

                    112                    113                    114
                      A                      A                      A
 Frequencies --   3070.5633              3087.0717              3093.8769
 Red. masses --      1.0979                 1.0997                 1.1010
 Frc consts  --      6.0989                 6.1750                 6.2095
 IR Inten    --     12.7414                72.7786                31.3976

                    115                    116                    117
                      A                      A                      A
 Frequencies --   3095.5162              3103.9821              3112.3951
 Red. masses --      1.1009                 1.1011                 1.0999
 Frc consts  --      6.2152                 6.2505                 6.2775
 IR Inten    --     50.5426                62.5699                20.8871

                    118                    119                    120
                      A                      A                      A
 Frequencies --   3496.3528              3585.9651              3814.3903
 Red. masses --      1.0492                 1.0920                 1.0661
 Frc consts  --      7.5565                 8.2732                 9.1386
 IR Inten    --      0.5559                 1.0429                14.2645

 - Thermochemistry -
 -------------------
 Temperature   298.150 Kelvin.  Pressure   1.00000 Atm.
 Atom     1 has atomic number  6 and mass  12.00000

 Molecular mass:   217.20418 amu.
 Principal axes and moments of inertia in atomic units:
                           1         2         3
     Eigenvalues --  1030.60487********************
           X            1.00000  -0.00181   0.00184
           Y            0.00180   0.99998   0.00530
           Z           -0.00185  -0.00530   0.99998
 This molecule is an asymmetric top.
 Rotational symmetry number  1.
 Warning -- assumption of classical behavior for rotation
           may cause significant error
 Rotational temperatures (Kelvin)      0.08404     0.00616     0.00586
 Rotational constants (GHZ):           1.75115     0.12828     0.12208
 Zero-point vibrational energy    1011934.6 (Joules/Mol)
                                  241.85818 (Kcal/Mol)
 Warning -- explicit consideration of  29 degrees of freedom as
           vibrations may cause significant error
 Vibrational temperatures:     25.27    33.94    50.20    74.24    87.25
          (Kelvin)             94.23   137.84   164.54   178.73   208.59
                              213.89   228.95   263.20   275.35   310.77
                              359.25   385.94   426.19   438.58   454.28
                              457.97   482.31   566.11   606.39   651.85
                              704.21   728.47   798.89   861.47  1070.08
                             1090.86  1103.18  1137.19  1140.33  1188.12
                             1236.62  1296.91  1312.93  1368.04  1399.43
                             1447.46  1457.42  1473.13  1485.38  1496.00
                             1510.00  1516.14  1518.47  1546.39  1554.19
                             1565.57  1594.47  1632.06  1657.47  1674.44
                             1685.12  1704.92  1773.18  1790.24  1795.31
                             1833.22  1856.12  1869.75  1885.14  1892.26
                             1895.55  1906.24  1914.59  1939.03  1947.00
                             1971.29  1989.96  2002.43  2010.25  2018.67
                             2029.81  2034.43  2048.64  2062.34  2067.53
                             2132.35  2134.02  2140.30  2143.45  2148.29
                             2157.10  2163.81  2164.62  2172.09  2175.04
                             2184.86  2195.48  2388.15  4234.05  4268.93
                             4272.93  4282.54  4285.51  4309.91  4327.85
                             4331.73  4345.01  4351.89  4357.44  4360.28
                             4362.51  4379.29  4381.28  4392.31  4404.58
                             4417.19  4417.86  4441.61  4451.40  4453.76
                             4465.94  4478.04  5030.47  5159.40  5488.06

 Zero-point correction=                           0.385426 (Hartree/Particle)
 Thermal correction to Energy=                    0.405266
 Thermal correction to Enthalpy=                  0.406210
 Thermal correction to Gibbs Free Energy=         0.334420
 Sum of electronic and zero-point Energies=           -678.400916
 Sum of electronic and thermal Energies=              -678.381076
 Sum of electronic and thermal Enthalpies=            -678.380131
 Sum of electronic and thermal Free Energies=         -678.451922

                     E (Thermal)             CV                S
                      KCal/Mol        Cal/Mol-Kelvin    Cal/Mol-Kelvin
 Total                  254.308             71.030            151.096
 Electronic               0.000              0.000              0.000
 Translational            0.889              2.981             42.030
 Rotational               0.889              2.981             33.727
 Vibrational            252.531             65.069             75.339
 Vibration     1          0.593              1.986              6.892
 Vibration     2          0.593              1.985              6.306
 Vibration     3          0.594              1.983              5.530
 Vibration     4          0.596              1.977              4.755
 Vibration     5          0.597              1.973              4.436
 Vibration     6          0.597              1.971              4.284
 Vibration     7          0.603              1.952              3.538
 Vibration     8          0.607              1.938              3.194
 Vibration     9          0.610              1.929              3.034
 Vibration    10          0.616              1.908              2.737
 Vibration    11          0.618              1.904              2.689
 Vibration    12          0.621              1.892              2.560
 Vibration    13          0.630              1.863              2.298
 Vibration    14          0.634              1.852              2.214
 Vibration    15          0.645              1.817              1.992
 Vibration    16          0.662              1.763              1.733
 Vibration    17          0.673              1.732              1.608
 Vibration    18          0.690              1.681              1.438
 Vibration    19          0.696              1.665              1.390
 Vibration    20          0.703              1.644              1.332
 Vibration    21          0.705              1.639              1.319
 Vibration    22          0.716              1.605              1.235
 Vibration    23          0.761              1.484              0.987
 Vibration    24          0.784              1.424              0.887
 Vibration    25          0.812              1.354              0.787
 Vibration    26          0.845              1.273              0.685
 Vibration    27          0.862              1.236              0.643
 Vibration    28          0.911              1.128              0.533
 Vibration    29          0.957              1.034              0.452

                           ! Non-Optimized Parameters !
 Normal termination of Gaussian 16 at Tue May 23 05:57:08 2023.
