 Gaussian 16, Revision A.03,
 Gaussian 16:  ES64L-G16RevA.03 25-Dec-2016

 -----------------------------
 # opt freq b3lyp/6-31g(2df,p)
 -----------------------------

 -------------------
 Title Card Required
 -------------------
 Symbolic Z-matrix:
 Charge =  0 Multiplicity = 1

 SCF Done:  E(RB3LYP) =  -355.035089353     A.U. after   12 cycles
 SCF Done:  E(RB3LYP) =  -355.035921311     A.U. after   10 cycles
 SCF Done:  E(RB3LYP) =  -355.038129420     A.U. after   10 cycles
 SCF Done:  E(RB3LYP) =  -355.040131512     A.U. after   10 cycles
 SCF Done:  E(RB3LYP) =  -355.041917652     A.U. after   10 cycles
 SCF Done:  E(RB3LYP) =  -355.042972762     A.U. after   10 cycles
 SCF Done:  E(RB3LYP) =  -355.044161257     A.U. after   10 cycles
 SCF Done:  E(RB3LYP) =  -355.044552925     A.U. after    9 cycles
 SCF Done:  E(RB3LYP) =  -355.044736429     A.U. after    9 cycles
 SCF Done:  E(RB3LYP) =  -355.044781612     A.U. after    8 cycles
 SCF Done:  E(RB3LYP) =  -355.045316170     A.U. after    9 cycles
 SCF Done:  E(RB3LYP) =  -355.045400580     A.U. after    6 cycles
 SCF Done:  E(RB3LYP) =  -355.045419722     A.U. after    9 cycles
 SCF Done:  E(RB3LYP) =  -355.045452072     A.U. after    9 cycles
 SCF Done:  E(RB3LYP) =  -355.045458374     A.U. after    8 cycles
 SCF Done:  E(RB3LYP) =  -355.045458687     A.U. after    7 cycles
 SCF Done:  E(RB3LYP) =  -355.045458791     A.U. after    5 cycles
 SCF Done:  E(RB3LYP) =  -355.045458920     A.U. after    6 cycles
 SCF Done:  E(RB3LYP) =  -355.045458936     A.U. after    5 cycles
 Optimization completed.
    -- Stationary point found.
 Normal termination of Gaussian 16 at Sun May 28 16:57:42 2023.

 ----------------------------------------------------------------------
 #N Geom=AllCheck Guess=TCheck SCRF=Check GenChk RB3LYP/6-31G(2df,p) Fr
 eq
 ----------------------------------------------------------------------

 Structure from the checkpoint file:  "CCCqCrCqCCrCC.chk"
 -------------------
 Title Card Required
 -------------------
 Charge =  0 Multiplicity = 1

                         Standard orientation:
 ---------------------------------------------------------------------
 Center     Atomic      Atomic             Coordinates (Angstroms)
 Number     Number       Type             X           Y           Z
 ---------------------------------------------------------------------
      1          6           0        3.332674    0.597797   -0.164436
      2          6           0        1.916622    0.570339    0.421662
      3          6           0        0.963058   -0.456132   -0.231268
      4          6           0        1.365716   -1.881620    0.179411
      5          6           0       -0.517772   -0.106435    0.098471
      6          6           0       -0.946595    1.209638   -0.612126
      7          6           0       -1.628974    2.236051    0.299814
      8          6           0       -1.494626   -1.256235   -0.224520
      9          6           0       -2.955799   -0.987010    0.154330
     10          1           0        3.946796    1.355486    0.332879
     11          1           0        3.310875    0.838835   -1.233328
     12          1           0        3.847325   -0.361594   -0.053412
     13          1           0        1.492140    1.576614    0.336411
     14          1           0        1.967970    0.358868    1.498907
     15          1           0        1.079067   -0.378008   -1.323576
     16          1           0        1.156090   -2.058543    1.241706
     17          1           0        2.436255   -2.045527    0.025757
     18          1           0        0.839297   -2.645394   -0.397857
     19          1           0       -0.567225    0.061264    1.186058
     20          1           0       -1.613919    0.965113   -1.448079
     21          1           0       -0.073869    1.684452   -1.073350
     22          1           0       -2.528658    1.826859    0.769523
     23          1           0       -1.922533    3.131188   -0.258844
     24          1           0       -0.955942    2.552403    1.104659
     25          1           0       -1.174915   -2.163454    0.296993
     26          1           0       -1.434077   -1.483822   -1.298627
     27          1           0       -3.052972   -0.768849    1.224012
     28          1           0       -3.577439   -1.862042   -0.061405
     29          1           0       -3.380095   -0.142210   -0.396455
 ---------------------------------------------------------------------

 SCF Done:  E(RB3LYP) =  -355.045458936     A.U. after    1 cycles

 The electronic state is 1-A.
 Alpha  occ. eigenvalues --  -10.17875 -10.17653 -10.17252 -10.17202 -10.17187
 Alpha  occ. eigenvalues --  -10.16882 -10.16846 -10.16817 -10.16578  -0.81999
 Alpha  occ. eigenvalues --   -0.77115  -0.73987  -0.71670  -0.67122  -0.62839
 Alpha  occ. eigenvalues --   -0.60135  -0.56678  -0.54587  -0.46538  -0.45319
 Alpha  occ. eigenvalues --   -0.44070  -0.43063  -0.41277  -0.40196  -0.39046
 Alpha  occ. eigenvalues --   -0.38372  -0.38022  -0.37063  -0.35550  -0.35168
 Alpha  occ. eigenvalues --   -0.34249  -0.33166  -0.32455  -0.32177  -0.30459
 Alpha  occ. eigenvalues --   -0.29327  -0.29049
 Alpha virt. eigenvalues --    0.08559   0.09747   0.11090   0.11316   0.12946
 Alpha virt. eigenvalues --    0.13807   0.14842   0.14938   0.15784   0.16731
 Alpha virt. eigenvalues --    0.16940   0.17245   0.17631   0.18102   0.18639

 Mulliken charges:
               1
     1  C   -0.389544
     2  C   -0.172173
     3  C    0.037744
     4  C   -0.412179
     5  C    0.061540
     6  C   -0.184217
     7  C   -0.382336
     8  C   -0.195146
     9  C   -0.389674
    10  H    0.110003
    11  H    0.112540
    12  H    0.116950
    13  H    0.096485
    14  H    0.088881
    15  H    0.062939
    16  H    0.109922
    17  H    0.109269
    18  H    0.114806
    19  H    0.058816
    20  H    0.089499
    21  H    0.092853
    22  H    0.117575
    23  H    0.107556
    24  H    0.113848
    25  H    0.096112
    26  H    0.089193
    27  H    0.112052
    28  H    0.108347
    29  H    0.118340
 Sum of Mulliken charges =  -0.00000

 Dipole moment (field-independent basis, Debye):
    X=              0.0264    Y=             -0.0248    Z=             -0.0419  Tot=              0.0553
 Quadrupole moment (field-independent basis, Debye-Ang):
   XX=            -62.2728   YY=            -61.6829   ZZ=            -60.9725
   XY=              0.3528   XZ=              0.3518   YZ=             -0.1747

  Exact polarizability: 113.147   0.889 101.109   0.020   0.057  84.888
 Approx polarizability: 137.644   0.714 136.441   0.653  -0.372 135.725

                      1                      2                      3
                      A                      A                      A
 Frequencies --     55.2403                62.0676                84.2969
 Red. masses --      2.5864                 2.2349                 2.0793
 Frc consts  --      0.0047                 0.0051                 0.0087
 IR Inten    --      0.0037                 0.0048                 0.0039

                      4                      5                      6
                      A                      A                      A
 Frequencies --    134.9433               178.8327               203.8294
 Red. masses --      1.8547                 2.6155                 1.2262
 Frc consts  --      0.0199                 0.0493                 0.0300
 IR Inten    --      0.0370                 0.0273                 0.0354

                      7                      8                      9
                      A                      A                      A
 Frequencies --    220.5011               237.0885               270.2775
 Red. masses --      1.0904                 1.1547                 1.1916
 Frc consts  --      0.0312                 0.0382                 0.0513
 IR Inten    --      0.0026                 0.0264                 0.0300

                     10                     11                     12
                      A                      A                      A
 Frequencies --    291.6190               311.5527               335.2279
 Red. masses --      2.2409                 1.8194                 2.3108
 Frc consts  --      0.1123                 0.1040                 0.1530
 IR Inten    --      0.0201                 0.0575                 0.0876

                     13                     14                     15
                      A                      A                      A
 Frequencies --    342.2488               375.5447               432.4918
 Red. masses --      3.0762                 2.3727                 2.2764
 Frc consts  --      0.2123                 0.1972                 0.2509
 IR Inten    --      0.0113                 0.1665                 0.0615

                     16                     17                     18
                      A                      A                      A
 Frequencies --    480.8562               527.6131               762.7527
 Red. masses --      2.2839                 2.3097                 1.2521
 Frc consts  --      0.3111                 0.3788                 0.4292
 IR Inten    --      0.0230                 0.2874                 1.5478

                     19                     20                     21
                      A                      A                      A
 Frequencies --    772.8102               775.5161               840.6893
 Red. masses --      1.2843                 1.3212                 1.8893
 Frc consts  --      0.4519                 0.4681                 0.7867
 IR Inten    --      2.0817                 2.4174                 0.4111

                     22                     23                     24
                      A                      A                      A
 Frequencies --    845.7321               923.0846               926.5868
 Red. masses --      1.5396                 2.0445                 1.6819
 Frc consts  --      0.6488                 1.0264                 0.8508
 IR Inten    --      1.1101                 1.9651                 2.7952

                     25                     26                     27
                      A                      A                      A
 Frequencies --    979.6182               999.4863              1029.8310
 Red. masses --      1.2097                 1.8362                 2.3345
 Frc consts  --      0.6840                 1.0807                 1.4587
 IR Inten    --      1.7058                 1.8469                 0.5197

                     28                     29                     30
                      A                      A                      A
 Frequencies --   1031.8260              1039.8316              1053.5656
 Red. masses --      1.6545                 1.6361                 2.3736
 Frc consts  --      1.0379                 1.0423                 1.5523
 IR Inten    --      1.0665                 1.3390                 0.3686

                     31                     32                     33
                      A                      A                      A
 Frequencies --   1059.8123              1105.3570              1164.1442
 Red. masses --      1.6447                 1.9636                 1.9685
 Frc consts  --      1.0884                 1.4136                 1.5718
 IR Inten    --      1.3742                 0.6047                 4.0026

                     34                     35                     36
                      A                      A                      A
 Frequencies --   1175.1899              1176.4885              1190.4034
 Red. masses --      2.3165                 2.0440                 1.9517
 Frc consts  --      1.8850                 1.6669                 1.6295
 IR Inten    --      1.4270                 0.2655                 0.6435

                     37                     38                     39
                      A                      A                      A
 Frequencies --   1264.0889              1281.2057              1302.1105
 Red. masses --      1.3444                 1.2765                 1.2194
 Frc consts  --      1.2657                 1.2345                 1.2181
 IR Inten    --      6.4297                 0.7117                 1.6076

                     40                     41                     42
                      A                      A                      A
 Frequencies --   1311.5621              1341.9918              1343.5193
 Red. masses --      1.1331                 1.2489                 1.2024
 Frc consts  --      1.1484                 1.3252                 1.2788
 IR Inten    --      0.8897                 0.6506                 4.5500

                     43                     44                     45
                      A                      A                      A
 Frequencies --   1368.8788              1377.0690              1382.2016
 Red. masses --      1.3629                 1.3945                 1.4127
 Frc consts  --      1.5047                 1.5581                 1.5902
 IR Inten    --      1.0400                 0.2276                 1.5419

                     46                     47                     48
                      A                      A                      A
 Frequencies --   1393.3544              1406.4120              1411.0582
 Red. masses --      1.4484                 1.2535                 1.2454
 Frc consts  --      1.6567                 1.4608                 1.4610
 IR Inten    --      0.9294                 3.7317                 1.0722

                     49                     50                     51
                      A                      A                      A
 Frequencies --   1412.8518              1416.2154              1479.9626
 Red. masses --      1.2299                 1.2174                 1.0670
 Frc consts  --      1.4465                 1.4385                 1.3769
 IR Inten    --      3.1161                 1.4382                 1.2661

                     52                     53                     54
                      A                      A                      A
 Frequencies --   1485.6441              1493.2910              1495.3468
 Red. masses --      1.0600                 1.0444                 1.0445
 Frc consts  --      1.3784                 1.3721                 1.3760
 IR Inten    --      1.4495                 0.8920                 1.9812

                     55                     56                     57
                      A                      A                      A
 Frequencies --   1497.5010              1501.5070              1505.6143
 Red. masses --      1.0470                 1.0548                 1.0471
 Frc consts  --      1.3834                 1.4011                 1.3986
 IR Inten    --      1.4482                 2.2586                 2.7850

                     58                     59                     60
                      A                      A                      A
 Frequencies --   1506.5477              1511.4752              1515.3849
 Red. masses --      1.0594                 1.0523                 1.0627
 Frc consts  --      1.4167                 1.4164                 1.4379
 IR Inten    --      8.3886                 3.5189                 3.9208

                     61                     62                     63
                      A                      A                      A
 Frequencies --   1519.0518              2970.4578              2983.6656
 Red. masses --      1.0676                 1.0797                 1.0821
 Frc consts  --      1.4514                 5.6128                 5.6755
 IR Inten    --      6.8366                 1.1679                16.3164

                     64                     65                     66
                      A                      A                      A
 Frequencies --   3007.9787              3014.3301              3026.8950
 Red. masses --      1.0686                 1.0665                 1.0633
 Frc consts  --      5.6968                 5.7094                 5.7398
 IR Inten    --     17.9147                31.6407                28.6402

                     67                     68                     69
                      A                      A                      A
 Frequencies --   3029.1296              3029.8970              3031.0394
 Red. masses --      1.0400                 1.0373                 1.0366
 Frc consts  --      5.6221                 5.6106                 5.6111
 IR Inten    --     30.1089                13.1806                65.3694

                     70                     71                     72
                      A                      A                      A
 Frequencies --   3031.8539              3053.9690              3062.5518
 Red. masses --      1.0380                 1.0972                 1.0935
 Frc consts  --      5.6217                 6.0292                 6.0425
 IR Inten    --     13.3496                17.0859                19.4276

                     73                     74                     75
                      A                      A                      A
 Frequencies --   3071.0211              3093.4240              3093.9727
 Red. masses --      1.0923                 1.1013                 1.1010
 Frc consts  --      6.0695                 6.2089                 6.2097
 IR Inten    --     12.8142                18.1060                64.9142

                     76                     77                     78
                      A                      A                      A
 Frequencies --   3095.3883              3095.5972              3104.1702
 Red. masses --      1.0990                 1.0989                 1.1001
 Frc consts  --      6.2040                 6.2046                 6.2454
 IR Inten    --     44.2471                21.5249                31.0113

                     79                     80                     81
                      A                      A                      A
 Frequencies --   3105.6478              3108.6226              3116.0651
 Red. masses --      1.0994                 1.1002                 1.0993
 Frc consts  --      6.2477                 6.2642                 6.2889
 IR Inten    --     98.1746                22.1232                26.6794

 - Thermochemistry -
 -------------------
 Temperature   298.150 Kelvin.  Pressure   1.00000 Atm.
 Atom     1 has atomic number  6 and mass  12.00000

 Molecular mass:   128.15650 amu.
 Principal axes and moments of inertia in atomic units:
                           1         2         3
     Eigenvalues --   874.122101872.287332549.17448
           X            0.99999  -0.00296  -0.00257
           Y            0.00296   0.99999   0.00130
           Z            0.00256  -0.00131   1.00000
 This molecule is an asymmetric top.
 Rotational symmetry number  1.
 Warning -- assumption of classical behavior for rotation
           may cause significant error
 Rotational temperatures (Kelvin)      0.09909     0.04626     0.03398
 Rotational constants (GHZ):           2.06463     0.96392     0.70797
 Zero-point vibrational energy     718037.4 (Joules/Mol)
                                  171.61506 (Kcal/Mol)
 Warning -- explicit consideration of  17 degrees of freedom as
           vibrations may cause significant error
 Vibrational temperatures:     79.48    89.30   121.28   194.15   257.30
          (Kelvin)            293.27   317.25   341.12   388.87   419.57
                              448.25   482.32   492.42   540.33   622.26
                              691.84   759.12  1097.43  1111.90  1115.79
                             1209.56  1216.82  1328.11  1333.15  1409.45
                             1438.04  1481.70  1484.57  1496.09  1515.85
                             1524.83  1590.36  1674.94  1690.84  1692.70
                             1712.72  1818.74  1843.37  1873.45  1887.05
                             1930.83  1933.02  1969.51  1981.30  1988.68
                             2004.73  2023.51  2030.20  2032.78  2037.62
                             2129.34  2137.51  2148.51  2151.47  2154.57
                             2160.33  2166.24  2167.59  2174.68  2180.30
                             2185.58  4273.83  4292.83  4327.81  4336.95
                             4355.03  4358.24  4359.35  4360.99  4362.16
                             4393.98  4406.33  4418.51  4450.75  4451.54
                             4453.57  4453.87  4466.21  4468.33  4472.61
                             4483.32

 Zero-point correction=                           0.273486 (Hartree/Particle)
 Thermal correction to Energy=                    0.285675
 Thermal correction to Enthalpy=                  0.286620
 Thermal correction to Gibbs Free Energy=         0.235881
 Sum of electronic and zero-point Energies=           -354.771973
 Sum of electronic and thermal Energies=              -354.759783
 Sum of electronic and thermal Enthalpies=            -354.758839
 Sum of electronic and thermal Free Energies=         -354.809578

                     E (Thermal)             CV                S
                      KCal/Mol        Cal/Mol-Kelvin    Cal/Mol-Kelvin
 Total                  179.264             45.108            106.789
 Electronic               0.000              0.000              0.000
 Translational            0.889              2.981             40.457
 Rotational               0.889              2.981             29.813
 Vibrational            177.487             39.147             36.518
 Vibration     1          0.596              1.975              4.620
 Vibration     2          0.597              1.972              4.390
 Vibration     3          0.601              1.960              3.788
 Vibration     4          0.613              1.918              2.874
 Vibration     5          0.629              1.868              2.341
 Vibration     6          0.640              1.834              2.098
 Vibration     7          0.647              1.810              1.955
 Vibration     8          0.656              1.784              1.825
 Vibration     9          0.674              1.728              1.594
 Vibration    10          0.687              1.689              1.465
 Vibration    11          0.700              1.652              1.354
 Vibration    12          0.716              1.605              1.235
 Vibration    13          0.721              1.591              1.202
 Vibration    14          0.746              1.522              1.057
 Vibration    15          0.793              1.399              0.851
 Vibration    16          0.837              1.293              0.708
 Vibration    17          0.883              1.189              0.593

 Optimization completed.
    -- Stationary point found.
 Normal termination of Gaussian 16 at Sun May 28 17:48:00 2023.
