 Gaussian 16, Revision A.03,
 Gaussian 16:  ES64L-G16RevA.03 25-Dec-2016

 -----------------------------
 # opt freq b3lyp/6-31g(2df,p)
 -----------------------------

 -------------------
 Title Card Required
 -------------------
 Symbolic Z-matrix:
 Charge =  0 Multiplicity = 1

 SCF Done:  E(RB3LYP) =  -698.575848639     A.U. after   12 cycles
 SCF Done:  E(RB3LYP) =  -698.601747817     A.U. after   13 cycles
 SCF Done:  E(RB3LYP) =  -698.578769510     A.U. after   13 cycles
 SCF Done:  E(RB3LYP) =  -698.619187227     A.U. after   11 cycles
 SCF Done:  E(RB3LYP) =  -698.621837134     A.U. after   11 cycles
 SCF Done:  E(RB3LYP) =  -698.623168734     A.U. after   10 cycles
 SCF Done:  E(RB3LYP) =  -698.625107110     A.U. after   11 cycles
 SCF Done:  E(RB3LYP) =  -698.628517991     A.U. after   13 cycles
 SCF Done:  E(RB3LYP) =  -698.630940249     A.U. after   11 cycles
 SCF Done:  E(RB3LYP) =  -698.631195891     A.U. after   11 cycles
 SCF Done:  E(RB3LYP) =  -698.635159297     A.U. after    9 cycles
 SCF Done:  E(RB3LYP) =  -698.635174355     A.U. after    9 cycles
 SCF Done:  E(RB3LYP) =  -698.635179413     A.U. after    8 cycles
 SCF Done:  E(RB3LYP) =  -698.635182014     A.U. after    8 cycles
 SCF Done:  E(RB3LYP) =  -698.635182400     A.U. after    7 cycles
 SCF Done:  E(RB3LYP) =  -698.635182540     A.U. after    7 cycles
 SCF Done:  E(RB3LYP) =  -698.635182608     A.U. after    6 cycles
 SCF Done:  E(RB3LYP) =  -698.635182664     A.U. after    6 cycles
 SCF Done:  E(RB3LYP) =  -698.635182671     A.U. after    5 cycles
 Optimization completed.
    -- Stationary point found.
 Normal termination of Gaussian 16 at Tue May 23 00:37:33 2023.

 ----------------------------------------------------------------------
 #N Geom=AllCheck Guess=TCheck SCRF=Check GenChk RB3LYP/6-31G(2df,p) Fr
 eq
 ----------------------------------------------------------------------

 Structure from the checkpoint file:  "CCCqCCrCCOCqCCOCrOC.chk"
 -------------------
 Title Card Required
 -------------------
 Charge =  0 Multiplicity = 1

                         Standard orientation:
 ---------------------------------------------------------------------
 Center     Atomic      Atomic             Coordinates (Angstroms)
 Number     Number       Type             X           Y           Z
 ---------------------------------------------------------------------
      1          6           0        5.119146    0.977504   -1.452713
      2          6           0        3.872549    1.423488   -0.678686
      3          6           0        3.000476    0.264386   -0.127293
      4          6           0        3.313369   -0.067893    1.347033
      5          6           0        4.765404   -0.452359    1.650082
      6          6           0        1.506816    0.593226   -0.321270
      7          6           0        0.544449   -0.529780    0.046716
      8          8           0       -0.755574   -0.144935   -0.389739
      9          6           0       -1.774722   -1.019617   -0.031953
     10          6           0       -3.100426   -0.378005   -0.428703
     11          6           0       -3.359742    0.940499    0.288187
     12          8           0       -4.661656    1.375842   -0.043936
     13          6           0       -4.987976    2.611792    0.541091
     14          8           0       -1.569812   -2.249610   -0.707735
     15          6           0       -2.132369   -3.375630   -0.073551
     16          1           0        5.685293    1.841031   -1.817292
     17          1           0        4.839819    0.373911   -2.323574
     18          1           0        5.793129    0.373683   -0.838815
     19          1           0        3.261648    2.042260   -1.346594
     20          1           0        4.165161    2.084273    0.147940
     21          1           0        3.217960   -0.633678   -0.725578
     22          1           0        2.668233   -0.892381    1.672260
     23          1           0        3.031816    0.796880    1.964831
     24          1           0        5.085999   -1.307950    1.045207
     25          1           0        4.878232   -0.731714    2.702648
     26          1           0        5.458176    0.371742    1.455998
     27          1           0        1.329986    0.836104   -1.375515
     28          1           0        1.245943    1.493666    0.250721
     29          1           0        0.522389   -0.709016    1.132618
     30          1           0        0.838517   -1.469071   -0.439299
     31          1           0       -1.744261   -1.215456    1.060380
     32          1           0       -3.916665   -1.070621   -0.198278
     33          1           0       -3.093358   -0.222301   -1.511581
     34          1           0       -2.609807    1.688596   -0.009087
     35          1           0       -3.269847    0.809343    1.382229
     36          1           0       -6.003224    2.866854    0.226800
     37          1           0       -4.304029    3.412670    0.217049
     38          1           0       -4.958960    2.565430    1.642100
     39          1           0       -1.813227   -4.254548   -0.638739
     40          1           0       -3.231921   -3.349370   -0.064612
     41          1           0       -1.782518   -3.476374    0.965824
 ---------------------------------------------------------------------

 SCF Done:  E(RB3LYP) =  -698.635182671     A.U. after    1 cycles

 The electronic state is 1-A.
 Alpha  occ. eigenvalues --  -19.14088 -19.13928 -19.13347 -10.27447 -10.22639
 Alpha  occ. eigenvalues --  -10.22096 -10.22062 -10.21920 -10.18281 -10.17761
 Alpha  occ. eigenvalues --  -10.17510 -10.17474 -10.17385 -10.17197 -10.16964
 Alpha  occ. eigenvalues --   -1.06503  -1.02683  -1.00488  -0.81639  -0.78279
 Alpha  occ. eigenvalues --   -0.74374  -0.74241  -0.70750  -0.67673  -0.66564
 Alpha  occ. eigenvalues --   -0.61857  -0.61247  -0.59617  -0.58388  -0.55398
 Alpha  occ. eigenvalues --   -0.51263  -0.50563  -0.48320  -0.47267  -0.46781
 Alpha  occ. eigenvalues --   -0.46017  -0.44672  -0.43993  -0.43485  -0.42682
 Alpha  occ. eigenvalues --   -0.42220  -0.40845  -0.40361  -0.39960  -0.39080
 Alpha  occ. eigenvalues --   -0.37313  -0.36751  -0.36074  -0.35248  -0.34842
 Alpha  occ. eigenvalues --   -0.34295  -0.33507  -0.32364  -0.31959  -0.31417
 Alpha  occ. eigenvalues --   -0.31179  -0.30627  -0.29872  -0.26848  -0.25602
 Alpha  occ. eigenvalues --   -0.24826
 Alpha virt. eigenvalues --    0.08428   0.08719   0.09610   0.10519   0.11376
 Alpha virt. eigenvalues --    0.11601   0.12069   0.12738   0.13514   0.14197
 Alpha virt. eigenvalues --    0.14520   0.15173   0.15261   0.15827   0.16191

 Mulliken charges:
               1
     1  C   -0.382976
     2  C   -0.186355
     3  C    0.042881
     4  C   -0.168954
     5  C   -0.390311
     6  C   -0.211796
     7  C   -0.078645
     8  O   -0.248129
     9  C    0.205426
    10  C   -0.230301
    11  C   -0.054206
    12  O   -0.231084
    13  C   -0.226513
    14  O   -0.242465
    15  C   -0.240800
    16  H    0.109535
    17  H    0.114169
    18  H    0.118189
    19  H    0.093812
    20  H    0.092173
    21  H    0.065712
    22  H    0.095687
    23  H    0.091518
    24  H    0.113992
    25  H    0.109250
    26  H    0.120567
    27  H    0.106145
    28  H    0.096350
    29  H    0.084201
    30  H    0.107876
    31  H    0.043363
    32  H    0.106242
    33  H    0.122282
    34  H    0.104131
    35  H    0.075873
    36  H    0.124472
    37  H    0.102687
    38  H    0.099478
    39  H    0.130430
    40  H    0.110920
    41  H    0.105173
 Sum of Mulliken charges =  -0.00000

 Dipole moment (field-independent basis, Debye):
    X=              0.6268    Y=             -0.2817    Z=              1.8580  Tot=              1.9810
 Quadrupole moment (field-independent basis, Debye-Ang):
   XX=            -97.6126   YY=            -89.2148   ZZ=            -96.5885
   XY=              0.2723   XZ=             -4.1876   YZ=             -0.7214

  Exact polarizability: 170.656  -0.848 145.456  -1.053  -2.310 127.384
 Approx polarizability: 198.079   0.403 198.864  -0.055  -0.351 191.663

                      1                      2                      3
                      A                      A                      A
 Frequencies --     16.2112                26.8917                42.7077
 Red. masses --      3.1204                 3.7845                 3.4095
 Frc consts  --      0.0005                 0.0016                 0.0037
 IR Inten    --      0.0369                 0.2164                 0.2350

                      4                      5                      6
                      A                      A                      A
 Frequencies --     62.2052                65.6766                68.7726
 Red. masses --      2.3163                 2.4313                 2.2260
 Frc consts  --      0.0053                 0.0062                 0.0062
 IR Inten    --      1.4227                 1.3805                 2.5127

                      7                      8                      9
                      A                      A                      A
 Frequencies --     92.6581                95.7132               113.9918
 Red. masses --      2.6214                 2.6436                 1.9075
 Frc consts  --      0.0133                 0.0143                 0.0146
 IR Inten    --      0.3689                 0.2490                 0.0175

                     10                     11                     12
                      A                      A                      A
 Frequencies --    130.2422               132.3407               156.3613
 Red. masses --      1.9577                 2.6596                 1.5923
 Frc consts  --      0.0196                 0.0274                 0.0229
 IR Inten    --      0.7774                 0.7560                 1.2373

                     13                     14                     15
                      A                      A                      A
 Frequencies --    188.0318               200.2093               211.4756
 Red. masses --      2.0444                 1.8069                 1.8093
 Frc consts  --      0.0426                 0.0427                 0.0477
 IR Inten    --      3.4572                 1.4023                 0.2522

                     16                     17                     18
                      A                      A                      A
 Frequencies --    233.3861               238.3481               251.1459
 Red. masses --      1.2808                 1.8493                 2.6060
 Frc consts  --      0.0411                 0.0619                 0.0968
 IR Inten    --      1.8031                 1.1356                 2.3514

                     19                     20                     21
                      A                      A                      A
 Frequencies --    275.6286               290.5616               320.8623
 Red. masses --      1.2692                 4.1009                 2.6712
 Frc consts  --      0.0568                 0.2040                 0.1620
 IR Inten    --      0.3679                 1.8905                 1.4733

                     22                     23                     24
                      A                      A                      A
 Frequencies --    337.0581               375.5540               405.4199
 Red. masses --      3.1731                 3.3150                 2.8762
 Frc consts  --      0.2124                 0.2755                 0.2785
 IR Inten    --      0.7598                 3.0378                 3.2084

                     25                     26                     27
                      A                      A                      A
 Frequencies --    438.8364               496.5957               526.2404
 Red. masses --      2.2752                 3.1465                 3.3957
 Frc consts  --      0.2582                 0.4572                 0.5540
 IR Inten    --      1.5302                 3.1042                 0.1952

                     28                     29                     30
                      A                      A                      A
 Frequencies --    580.1672               606.7551               756.3663
 Red. masses --      2.6627                 3.2684                 1.6278
 Frc consts  --      0.5281                 0.7089                 0.5487
 IR Inten    --      7.5576                 2.7615                 0.8813

                     31                     32                     33
                      A                      A                      A
 Frequencies --    766.6164               790.8975               807.0180
 Red. masses --      1.1686                 1.1965                 1.3386
 Frc consts  --      0.4046                 0.4410                 0.5136
 IR Inten    --      2.6491                 0.5100                 0.8805

                     34                     35                     36
                      A                      A                      A
 Frequencies --    850.6019               919.0746               927.2014
 Red. masses --      1.4309                 1.8991                 2.3171
 Frc consts  --      0.6100                 0.9451                 1.1737
 IR Inten    --      1.2862                 2.2617                 5.0501

                     37                     38                     39
                      A                      A                      A
 Frequencies --    969.1203              1005.6970              1007.9254
 Red. masses --      3.4753                 1.3618                 3.9518
 Frc consts  --      1.9231                 0.8115                 2.3654
 IR Inten    --     31.1470                 2.2860                55.4239

                     40                     41                     42
                      A                      A                      A
 Frequencies --   1017.3866              1033.4000              1038.3246
 Red. masses --      2.1373                 1.4282                 1.9112
 Frc consts  --      1.3035                 0.8986                 1.2140
 IR Inten    --     11.9231                 7.5581                 0.6138

                     43                     44                     45
                      A                      A                      A
 Frequencies --   1054.1632              1054.7084              1078.9368
 Red. masses --      2.6336                 3.3269                 2.5808
 Frc consts  --      1.7243                 2.1805                 1.7701
 IR Inten    --      1.4405                18.7218                 7.1839

                     46                     47                     48
                      A                      A                      A
 Frequencies --   1082.5941              1118.6169              1142.4652
 Red. masses --      3.2221                 5.8276                 2.3975
 Frc consts  --      2.2250                 4.2964                 1.8437
 IR Inten    --     10.2234               241.8047                66.3629

                     49                     50                     51
                      A                      A                      A
 Frequencies --   1154.3714              1161.9105              1165.5212
 Red. masses --      3.3707                 2.3021                 1.9479
 Frc consts  --      2.6465                 1.8311                 1.5591
 IR Inten    --    240.2956                33.8345                57.6239

                     52                     53                     54
                      A                      A                      A
 Frequencies --   1170.3348              1183.0036              1188.0032
 Red. masses --      3.5478                 1.2865                 1.5272
 Frc consts  --      2.8631                 1.0608                 1.2699
 IR Inten    --     47.6349                 4.6253                11.1851

                     55                     56                     57
                      A                      A                      A
 Frequencies --   1192.5727              1225.7432              1228.2811
 Red. masses --      1.8933                 1.5667                 1.6759
 Frc consts  --      1.5865                 1.3868                 1.4897
 IR Inten    --     12.8466                66.9266                10.1550

                     58                     59                     60
                      A                      A                      A
 Frequencies --   1237.9404              1249.7886              1277.2554
 Red. masses --      1.2820                 1.4476                 1.2719
 Frc consts  --      1.1576                 1.3322                 1.2226
 IR Inten    --      4.8762                 4.5847                 2.2347

                     61                     62                     63
                      A                      A                      A
 Frequencies --   1297.8702              1302.7146              1305.2009
 Red. masses --      1.2070                 1.2839                 1.1504
 Frc consts  --      1.1979                 1.2838                 1.1546
 IR Inten    --      1.3031                 1.5553                 0.8291

                     64                     65                     66
                      A                      A                      A
 Frequencies --   1309.5429              1326.2408              1348.3113
 Red. masses --      1.1920                 1.1524                 1.2679
 Frc consts  --      1.2044                 1.1943                 1.3581
 IR Inten    --      9.0460                 1.7047                 4.5540

                     67                     68                     69
                      A                      A                      A
 Frequencies --   1352.8928              1379.5251              1387.4648
 Red. masses --      1.2615                 1.3753                 1.3434
 Frc consts  --      1.3604                 1.5421                 1.5237
 IR Inten    --      4.6449                23.2289                44.6656

                     70                     71                     72
                      A                      A                      A
 Frequencies --   1400.1485              1401.6365              1410.4221
 Red. masses --      1.4684                 1.2578                 1.2411
 Frc consts  --      1.6961                 1.4560                 1.4547
 IR Inten    --      1.5905                15.3815                 0.9844

                     73                     74                     75
                      A                      A                      A
 Frequencies --   1414.3016              1426.1619              1442.5514
 Red. masses --      1.2278                 1.4299                 1.4631
 Frc consts  --      1.4470                 1.7135                 1.7939
 IR Inten    --      3.2187                47.9832                 7.4916

                     76                     77                     78
                      A                      A                      A
 Frequencies --   1477.6317              1480.6313              1481.7511
 Red. masses --      1.1023                 1.1044                 1.1622
 Frc consts  --      1.4180                 1.4265                 1.5034
 IR Inten    --      1.5343                 3.3663                 1.5754

                     79                     80                     81
                      A                      A                      A
 Frequencies --   1482.9107              1484.9427              1488.7270
 Red. masses --      1.0682                 1.0476                 1.0578
 Frc consts  --      1.3841                 1.3610                 1.3813
 IR Inten    --      0.5238                 4.8068                 0.1516

                     82                     83                     84
                      A                      A                      A
 Frequencies --   1492.7407              1492.8728              1498.5078
 Red. masses --      1.0825                 1.0805                 1.0520
 Frc consts  --      1.4212                 1.4189                 1.3918
 IR Inten    --      2.4830                 0.1943                 2.5278

                     85                     86                     87
                      A                      A                      A
 Frequencies --   1504.2128              1505.4530              1509.3834
 Red. masses --      1.0477                 1.0619                 1.0708
 Frc consts  --      1.3967                 1.4180                 1.4374
 IR Inten    --      6.6643                 9.4326                 3.4675

                     88                     89                     90
                      A                      A                      A
 Frequencies --   1511.8991              1512.4972              1528.2126
 Red. masses --      1.0630                 1.0536                 1.0884
 Frc consts  --      1.4316                 1.4200                 1.4976
 IR Inten    --      5.6092                 4.9173                 0.6876

                     91                     92                     93
                      A                      A                      A
 Frequencies --   1533.0160              2880.8782              2937.0699
 Red. masses --      1.0913                 1.0801                 1.0662
 Frc consts  --      1.5111                 5.2814                 5.4190
 IR Inten    --      0.9062                42.7341                49.9644

                     94                     95                     96
                      A                      A                      A
 Frequencies --   2964.7731              2976.6342              2982.1726
 Red. masses --      1.0397                 1.0386                 1.0708
 Frc consts  --      5.3845                 5.4220                 5.6108
 IR Inten    --     71.6243                50.8121                25.0811

                     97                     98                     99
                      A                      A                      A
 Frequencies --   2984.3839              3005.3685              3008.0589
 Red. masses --      1.0723                 1.0973                 1.0708
 Frc consts  --      5.6270                 5.8394                 5.7086
 IR Inten    --     26.1105                88.7703                18.6467

                    100                    101                    102
                      A                      A                      A
 Frequencies --   3008.2037              3016.0141              3022.8007
 Red. masses --      1.0887                 1.0613                 1.0653
 Frc consts  --      5.8046                 5.6877                 5.7352
 IR Inten    --     11.3115                 5.2115                33.6885

                    103                    104                    105
                      A                      A                      A
 Frequencies --   3024.9141              3031.6532              3033.5794
 Red. masses --      1.1016                 1.0363                 1.0389
 Frc consts  --      5.9387                 5.6116                 5.6328
 IR Inten    --     55.3331                13.0005                39.8870

                    106                    107                    108
                      A                      A                      A
 Frequencies --   3038.1338              3049.2442              3054.2966
 Red. masses --      1.0898                 1.0983                 1.0961
 Frc consts  --      5.9269                 6.0167                 6.0244
 IR Inten    --     39.2937                24.7535                22.4660

                    109                    110                    111
                      A                      A                      A
 Frequencies --   3055.1676              3070.2122              3094.8369
 Red. masses --      1.0597                 1.1029                 1.1012
 Frc consts  --      5.8279                 6.1252                 6.2144
 IR Inten    --     20.6087                47.6225                20.3476

                    112                    113                    114
                      A                      A                      A
 Frequencies --   3095.4050              3105.7480              3106.7422
 Red. masses --      1.1009                 1.1034                 1.1011
 Frc consts  --      6.2151                 6.2705                 6.2614
 IR Inten    --     60.8476                20.8081                58.4101

                    115                    116                    117
                      A                      A                      A
 Frequencies --   3109.8622              3114.1630              3115.2794
 Red. masses --      1.0954                 1.0962                 1.0994
 Frc consts  --      6.2418                 6.2637                 6.2866
 IR Inten    --     35.1964                27.8070                21.3250

 - Thermochemistry -
 -------------------
 Temperature   298.150 Kelvin.  Pressure   1.00000 Atm.
 Atom     1 has atomic number  6 and mass  12.00000

 Molecular mass:   218.18819 amu.
 Principal axes and moments of inertia in atomic units:
                           1         2         3
     Eigenvalues --  2301.662299258.03691**********
           X            0.99999   0.00054  -0.00360
           Y           -0.00058   0.99992  -0.01289
           Z            0.00359   0.01290   0.99991
 This molecule is an asymmetric top.
 Rotational symmetry number  1.
 Warning -- assumption of classical behavior for rotation
           may cause significant error
 Rotational temperatures (Kelvin)      0.03763     0.00936     0.00824
 Rotational constants (GHZ):           0.78410     0.19494     0.17161
 Zero-point vibrational energy     976223.7 (Joules/Mol)
                                  233.32307 (Kcal/Mol)
 Warning -- explicit consideration of  29 degrees of freedom as
           vibrations may cause significant error
 Vibrational temperatures:     23.32    38.69    61.45    89.50    94.49
          (Kelvin)             98.95   133.31   137.71   164.01   187.39
                              190.41   224.97   270.54   288.06   304.27
                              335.79   342.93   361.34   396.57   418.05
                              461.65   484.95   540.34   583.31   631.39
                              714.49   757.14   834.73   872.99  1088.24
                             1102.99  1137.93  1161.12  1223.83  1322.34
                             1334.04  1394.35  1446.97  1450.18  1463.79
                             1486.83  1493.92  1516.71  1517.49  1552.35
                             1557.61  1609.44  1643.75  1660.88  1671.73
                             1676.93  1683.85  1702.08  1709.27  1715.85
                             1763.57  1767.22  1781.12  1798.17  1837.69
                             1867.35  1874.32  1877.89  1884.14  1908.16
                             1939.92  1946.51  1984.83  1996.25  2014.50
                             2016.64  2029.28  2034.86  2051.93  2075.51
                             2125.98  2130.30  2131.91  2133.58  2136.50
                             2141.95  2147.72  2147.91  2156.02  2164.23
                             2166.01  2171.67  2175.29  2176.15  2198.76
                             2205.67  4144.94  4225.79  4265.65  4282.71
                             4290.68  4293.86  4324.05  4327.93  4328.13
                             4339.37  4349.14  4352.18  4361.87  4364.64
                             4371.20  4387.18  4394.45  4395.70  4417.35
                             4452.78  4453.60  4468.48  4469.91  4474.40
                             4480.59  4482.19

 Zero-point correction=                           0.371824 (Hartree/Particle)
 Thermal correction to Energy=                    0.391680
 Thermal correction to Enthalpy=                  0.392624
 Thermal correction to Gibbs Free Energy=         0.320727
 Sum of electronic and zero-point Energies=           -698.263359
 Sum of electronic and thermal Energies=              -698.243502
 Sum of electronic and thermal Enthalpies=            -698.242558
 Sum of electronic and thermal Free Energies=         -698.314456

                     E (Thermal)             CV                S
                      KCal/Mol        Cal/Mol-Kelvin    Cal/Mol-Kelvin
 Total                  245.783             69.453            151.321
 Electronic               0.000              0.000              0.000
 Translational            0.889              2.981             42.044
 Rotational               0.889              2.981             33.771
 Vibrational            244.006             63.491             75.506
 Vibration     1          0.593              1.986              7.051
 Vibration     2          0.593              1.984              6.046
 Vibration     3          0.595              1.980              5.129
 Vibration     4          0.597              1.972              4.386
 Vibration     5          0.597              1.971              4.279
 Vibration     6          0.598              1.969              4.188
 Vibration     7          0.602              1.954              3.603
 Vibration     8          0.603              1.952              3.540
 Vibration     9          0.607              1.938              3.200
 Vibration    10          0.612              1.923              2.942
 Vibration    11          0.612              1.921              2.912
 Vibration    12          0.620              1.896              2.593
 Vibration    13          0.633              1.856              2.247
 Vibration    14          0.638              1.840              2.131
 Vibration    15          0.643              1.823              2.031
 Vibration    16          0.654              1.790              1.853
 Vibration    17          0.656              1.782              1.815
 Vibration    18          0.663              1.761              1.723
 Vibration    19          0.677              1.718              1.561
 Vibration    20          0.687              1.691              1.471
 Vibration    21          0.706              1.634              1.306
 Vibration    22          0.718              1.601              1.226
 Vibration    23          0.746              1.522              1.057
 Vibration    24          0.770              1.458              0.943
 Vibration    25          0.799              1.386              0.830
 Vibration    26          0.852              1.258              0.667
 Vibration    27          0.881              1.192              0.596
 Vibration    28          0.937              1.074              0.485
 Vibration    29          0.965              1.017              0.438

 Optimization completed.
    -- Stationary point found.
 Normal termination of Gaussian 16 at Tue May 23 03:25:52 2023.
