 Gaussian 16, Revision A.03,
 Gaussian 16:  ES64L-G16RevA.03 25-Dec-2016

 -----------------------------
 # opt freq b3lyp/6-31g(2df,p)
 -----------------------------

 -------------------
 Title Card Required
 -------------------
 Symbolic Z-matrix:
 Charge =  0 Multiplicity = 1

 SCF Done:  E(RB3LYP) =  -619.967412819     A.U. after   12 cycles
 SCF Done:  E(RB3LYP) =  -619.979268312     A.U. after   11 cycles
 SCF Done:  E(RB3LYP) =  -619.982221412     A.U. after   11 cycles
 SCF Done:  E(RB3LYP) =  -619.988745861     A.U. after   11 cycles
 SCF Done:  E(RB3LYP) =  -619.991544630     A.U. after   10 cycles
 SCF Done:  E(RB3LYP) =  -619.993229953     A.U. after   10 cycles
 SCF Done:  E(RB3LYP) =  -619.994318107     A.U. after   10 cycles
 SCF Done:  E(RB3LYP) =  -619.994779504     A.U. after   10 cycles
 SCF Done:  E(RB3LYP) =  -619.995261371     A.U. after    9 cycles
 SCF Done:  E(RB3LYP) =  -619.995595919     A.U. after    9 cycles
 SCF Done:  E(RB3LYP) =  -620.003856698     A.U. after    9 cycles
 SCF Done:  E(RB3LYP) =  -620.003988910     A.U. after    9 cycles
 SCF Done:  E(RB3LYP) =  -620.004080812     A.U. after    9 cycles
 SCF Done:  E(RB3LYP) =  -620.004157633     A.U. after    9 cycles
 SCF Done:  E(RB3LYP) =  -620.004180300     A.U. after    8 cycles
 SCF Done:  E(RB3LYP) =  -620.004183278     A.U. after    8 cycles
 SCF Done:  E(RB3LYP) =  -620.004184466     A.U. after    7 cycles
 SCF Done:  E(RB3LYP) =  -620.004184620     A.U. after    6 cycles
 SCF Done:  E(RB3LYP) =  -620.004184666     A.U. after    5 cycles
 Optimization completed.
    -- Stationary point found.
 Normal termination of Gaussian 16 at Tue May 23 11:26:25 2023.

 ----------------------------------------------------------------------
 #N Geom=AllCheck Guess=TCheck SCRF=Check GenChk RB3LYP/6-31G(2df,p) Fr
 eq
 ----------------------------------------------------------------------

 Structure from the checkpoint file:  "CCCqCqCrCrCqOCrOCOC.chk"
 -------------------
 Title Card Required
 -------------------
 Charge =  0 Multiplicity = 1

                         Standard orientation:
 ---------------------------------------------------------------------
 Center     Atomic      Atomic             Coordinates (Angstroms)
 Number     Number       Type             X           Y           Z
 ---------------------------------------------------------------------
      1          6           0        2.687937    2.134824   -0.611994
      2          6           0        2.299929    1.061614    0.410536
      3          6           0        1.372964   -0.046562   -0.147911
      4          6           0        1.698382   -1.422780    0.508432
      5          6           0        0.639555   -2.521650    0.313911
      6          6           0        3.051128   -1.955142    0.004765
      7          6           0       -0.109090    0.343469    0.019766
      8          8           0       -0.334452    1.725240   -0.166315
      9          6           0       -0.992648    2.383648    0.901675
     10          8           0       -0.826574   -0.379772   -0.967865
     11          6           0       -2.202021   -0.207075   -0.971260
     12          8           0       -2.742021   -0.669452    0.250179
     13          6           0       -4.147517   -0.571769    0.290025
     14          1           0        3.331897    2.896233   -0.158802
     15          1           0        1.801611    2.628129   -1.015447
     16          1           0        3.239228    1.691187   -1.449061
     17          1           0        1.819322    1.533439    1.276407
     18          1           0        3.213216    0.602964    0.801921
     19          1           0        1.540103   -0.137830   -1.229136
     20          1           0        1.788246   -1.239999    1.590450
     21          1           0        0.501028   -2.750664   -0.747330
     22          1           0       -0.338654   -2.251526    0.715497
     23          1           0        0.970216   -3.437668    0.816285
     24          1           0        2.988976   -2.203539   -1.061465
     25          1           0        3.330095   -2.868675    0.540006
     26          1           0        3.867112   -1.238224    0.130363
     27          1           0       -0.469427    0.060754    1.018650
     28          1           0       -1.265531    3.379149    0.542286
     29          1           0       -0.340725    2.495855    1.779511
     30          1           0       -1.900688    1.848307    1.208357
     31          1           0       -2.583096   -0.804765   -1.812619
     32          1           0       -2.476320    0.850881   -1.121190
     33          1           0       -4.471982   -0.930645    1.269011
     34          1           0       -4.620724   -1.189399   -0.489101
     35          1           0       -4.491243    0.466446    0.159730
 ---------------------------------------------------------------------

 SCF Done:  E(RB3LYP) =  -620.004184666     A.U. after    1 cycles

 The electronic state is 1-A.
 Alpha  occ. eigenvalues --  -19.14762 -19.14438 -19.14262 -10.27106 -10.26933
 Alpha  occ. eigenvalues --  -10.23197 -10.22703 -10.17995 -10.17590 -10.17060
 Alpha  occ. eigenvalues --  -10.16366 -10.15882 -10.15554  -1.08022  -1.03773
 Alpha  occ. eigenvalues --   -0.99833  -0.81209  -0.75311  -0.73679  -0.69949
 Alpha  occ. eigenvalues --   -0.67589  -0.66755  -0.64766  -0.59528  -0.57927
 Alpha  occ. eigenvalues --   -0.55488  -0.52083  -0.50852  -0.49517  -0.48160
 Alpha  occ. eigenvalues --   -0.46588  -0.44455  -0.43685  -0.42804  -0.42440
 Alpha  occ. eigenvalues --   -0.41651  -0.40981  -0.39375  -0.38441  -0.37513
 Alpha  occ. eigenvalues --   -0.36753  -0.35658  -0.33944  -0.33662  -0.33229
 Alpha  occ. eigenvalues --   -0.32884  -0.32555  -0.30811  -0.30271  -0.29864
 Alpha  occ. eigenvalues --   -0.28146  -0.26165  -0.25709
 Alpha virt. eigenvalues --    0.07078   0.09545   0.10616   0.11428   0.12095
 Alpha virt. eigenvalues --    0.12797   0.13897   0.14102   0.14582   0.15048
 Alpha virt. eigenvalues --    0.15156   0.15832   0.16087   0.16573   0.17219

 Mulliken charges:
               1
     1  C   -0.386466
     2  C   -0.184011
     3  C    0.009492
     4  C    0.022277
     5  C   -0.393832
     6  C   -0.391600
     7  C    0.170434
     8  O   -0.243197
     9  C   -0.254319
    10  O   -0.232097
    11  C    0.027012
    12  O   -0.234950
    13  C   -0.230503
    14  H    0.100659
    15  H    0.134543
    16  H    0.108225
    17  H    0.089107
    18  H    0.090553
    19  H    0.078172
    20  H    0.065174
    21  H    0.115746
    22  H    0.127701
    23  H    0.094297
    24  H    0.113470
    25  H    0.108186
    26  H    0.111566
    27  H    0.080704
    28  H    0.127017
    29  H    0.112962
    30  H    0.123020
    31  H    0.100599
    32  H    0.089921
    33  H    0.132988
    34  H    0.110397
    35  H    0.106752
 Sum of Mulliken charges =  -0.00000

 Dipole moment (field-independent basis, Debye):
    X=             -1.8683    Y=              0.6590    Z=              0.9671  Tot=              2.2046
 Quadrupole moment (field-independent basis, Debye-Ang):
   XX=            -73.7865   YY=            -83.4678   ZZ=            -82.2475
   XY=             -1.8856   XZ=              0.8941   YZ=              2.4481

  Exact polarizability: 140.296   0.832 127.462  -0.855   1.573 103.068
 Approx polarizability: 170.544  -0.376 167.084  -0.681   2.322 163.727

                      1                      2                      3
                      A                      A                      A
 Frequencies --     37.3910                41.9525                64.3108
 Red. masses --      3.8513                 3.4592                 2.5937
 Frc consts  --      0.0032                 0.0036                 0.0063
 IR Inten    --      0.3946                 0.1594                 1.0167

                      4                      5                      6
                      A                      A                      A
 Frequencies --     76.1473                95.1043                96.5682
 Red. masses --      2.7682                 3.0381                 2.4554
 Frc consts  --      0.0095                 0.0162                 0.0135
 IR Inten    --      1.4513                 5.8464                 0.9504

                      7                      8                      9
                      A                      A                      A
 Frequencies --    130.8208               146.3584               171.7361
 Red. masses --      2.2126                 1.0655                 2.3580
 Frc consts  --      0.0223                 0.0134                 0.0410
 IR Inten    --      1.1062                 0.0688                 0.5658

                     10                     11                     12
                      A                      A                      A
 Frequencies --    189.6965               213.6527               218.3163
 Red. masses --      2.9775                 1.4406                 1.0984
 Frc consts  --      0.0631                 0.0387                 0.0308
 IR Inten    --      1.9128                 0.5988                 0.2310

                     13                     14                     15
                      A                      A                      A
 Frequencies --    226.0253               265.8223               289.1034
 Red. masses --      1.1773                 1.5095                 1.8556
 Frc consts  --      0.0354                 0.0628                 0.0914
 IR Inten    --      0.7813                 1.1842                 7.5507

                     16                     17                     18
                      A                      A                      A
 Frequencies --    309.8857               318.9864               342.6168
 Red. masses --      3.2932                 2.1760                 2.8444
 Frc consts  --      0.1863                 0.1305                 0.1967
 IR Inten    --      4.9900                 1.8343                 0.5382

                     19                     20                     21
                      A                      A                      A
 Frequencies --    349.1129               371.2312               389.0244
 Red. masses --      3.1695                 2.6898                 2.7477
 Frc consts  --      0.2276                 0.2184                 0.2450
 IR Inten    --      2.0965                 0.8257                 0.1760

                     22                     23                     24
                      A                      A                      A
 Frequencies --    459.9204               479.3631               527.1954
 Red. masses --      2.6289                 2.8799                 2.8434
 Frc consts  --      0.3276                 0.3899                 0.4656
 IR Inten    --      0.9522                 2.3549                 0.8483

                     25                     26                     27
                      A                      A                      A
 Frequencies --    573.8392               616.0611               767.0961
 Red. masses --      5.1735                 3.7044                 1.2434
 Frc consts  --      1.0037                 0.8284                 0.4311
 IR Inten    --      4.9999                 2.0954                10.4320

                     28                     29                     30
                      A                      A                      A
 Frequencies --    847.3368               898.4985               931.6614
 Red. masses --      2.2153                 2.1153                 1.2121
 Frc consts  --      0.9371                 1.0061                 0.6199
 IR Inten    --      4.3809                11.3180                10.0758

                     31                     32                     33
                      A                      A                      A
 Frequencies --    953.0802               962.6398               968.0848
 Red. masses --      2.3386                 2.7386                 1.5567
 Frc consts  --      1.2516                 1.4952                 0.8596
 IR Inten    --     39.3614                34.5829                 0.4235

                     34                     35                     36
                      A                      A                      A
 Frequencies --    977.0154               999.4201              1025.1741
 Red. masses --      2.8489                 3.4170                 2.5768
 Frc consts  --      1.6022                 2.0109                 1.5956
 IR Inten    --     43.6017                40.0242                 8.6858

                     37                     38                     39
                      A                      A                      A
 Frequencies --   1060.1645              1077.3364              1107.6211
 Red. masses --      1.7955                 2.5573                 6.4422
 Frc consts  --      1.1890                 1.7488                 4.6566
 IR Inten    --      3.2307                25.9250               161.4087

                     40                     41                     42
                      A                      A                      A
 Frequencies --   1129.8846              1134.9676              1148.1311
 Red. masses --      3.3493                 2.7201                 1.9661
 Frc consts  --      2.5192                 2.0644                 1.5270
 IR Inten    --    214.7547                28.5146                12.4848

                     43                     44                     45
                      A                      A                      A
 Frequencies --   1166.8616              1177.0931              1182.4177
 Red. masses --      1.9141                 2.1525                 1.3756
 Frc consts  --      1.5355                 1.7572                 1.1332
 IR Inten    --    107.8988                 3.8654                36.7326

                     46                     47                     48
                      A                      A                      A
 Frequencies --   1187.4583              1197.2702              1201.2697
 Red. masses --      1.7098                 1.7347                 1.9064
 Frc consts  --      1.4205                 1.4651                 1.6208
 IR Inten    --     59.5410                16.4076                48.3465

                     49                     50                     51
                      A                      A                      A
 Frequencies --   1222.5274              1238.8772              1274.2344
 Red. masses --      1.5537                 1.9190                 1.1919
 Frc consts  --      1.3681                 1.7353                 1.1403
 IR Inten    --     16.9078                37.0094                 0.9676

                     52                     53                     54
                      A                      A                      A
 Frequencies --   1280.3111              1292.4053              1324.4980
 Red. masses --      1.2763                 1.2599                 1.1826
 Frc consts  --      1.2327                 1.2399                 1.2224
 IR Inten    --      3.8717                 2.9531                 3.5676

                     55                     56                     57
                      A                      A                      A
 Frequencies --   1345.7894              1374.0850              1378.6807
 Red. masses --      1.3598                 1.3211                 1.4096
 Frc consts  --      1.4511                 1.4696                 1.5786
 IR Inten    --      0.7490                 3.3962                 7.8530

                     58                     59                     60
                      A                      A                      A
 Frequencies --   1385.3715              1404.1465              1406.6167
 Red. masses --      1.3399                 1.2297                 1.2509
 Frc consts  --      1.5152                 1.4284                 1.4582
 IR Inten    --     14.4166                 5.5826                 1.7172

                     61                     62                     63
                      A                      A                      A
 Frequencies --   1427.5550              1431.1527              1444.4487
 Red. masses --      1.2194                 1.1813                 1.1875
 Frc consts  --      1.4641                 1.4255                 1.4597
 IR Inten    --      0.0294                 7.7496                38.6992

                     64                     65                     66
                      A                      A                      A
 Frequencies --   1478.8779              1482.7536              1484.4403
 Red. masses --      1.0988                 1.1454                 1.0602
 Frc consts  --      1.4159                 1.4837                 1.3764
 IR Inten    --      3.5326                 1.3462                 0.6583

                     67                     68                     69
                      A                      A                      A
 Frequencies --   1485.6294              1487.3733              1492.3779
 Red. masses --      1.0722                 1.0545                 1.0650
 Frc consts  --      1.3943                 1.3745                 1.3976
 IR Inten    --      2.1321                 3.7764                 1.1739

                     70                     71                     72
                      A                      A                      A
 Frequencies --   1495.7919              1500.1304              1507.8554
 Red. masses --      1.0468                 1.0540                 1.0622
 Frc consts  --      1.3799                 1.3974                 1.4229
 IR Inten    --      0.9112                 2.4589                 4.9619

                     73                     74                     75
                      A                      A                      A
 Frequencies --   1508.5997              1513.3634              1514.3936
 Red. masses --      1.0688                 1.0507                 1.0573
 Frc consts  --      1.4331                 1.4178                 1.4286
 IR Inten    --      1.9783                 3.9634                10.0296

                     76                     77                     78
                      A                      A                      A
 Frequencies --   1518.1853              1536.2971              2958.6003
 Red. masses --      1.0638                 1.0891                 1.0552
 Frc consts  --      1.4446                 1.5145                 5.4421
 IR Inten    --      7.0409                 1.4227                37.5058

                     79                     80                     81
                      A                      A                      A
 Frequencies --   2974.9011              2981.0748              2992.1043
 Red. masses --      1.0411                 1.0816                 1.0405
 Frc consts  --      5.4286                 5.6633                 5.4886
 IR Inten    --     92.5921                15.0900                38.5327

                     82                     83                     84
                      A                      A                      A
 Frequencies --   3008.8331              3013.6882              3018.2826
 Red. masses --      1.0774                 1.1015                 1.1035
 Frc consts  --      5.7466                 5.8942                 5.9231
 IR Inten    --     14.2752                82.6083                32.4910

                     85                     86                     87
                      A                      A                      A
 Frequencies --   3023.7869              3028.5068              3031.3752
 Red. masses --      1.0743                 1.0409                 1.0406
 Frc consts  --      5.7871                 5.6250                 5.6341
 IR Inten    --      4.6712                17.1659                33.3793

                     88                     89                     90
                      A                      A                      A
 Frequencies --   3035.8074              3036.1138              3052.2767
 Red. masses --      1.0485                 1.0604                 1.1016
 Frc consts  --      5.6933                 5.7591                 6.0466
 IR Inten    --     33.9243                54.6663                42.1538

                     91                     92                     93
                      A                      A                      A
 Frequencies --   3069.6104              3090.5732              3091.3351
 Red. masses --      1.0945                 1.1007                 1.1003
 Frc consts  --      6.0761                 6.1944                 6.1953
 IR Inten    --     26.4790                22.0611                36.7224

                     94                     95                     96
                      A                      A                      A
 Frequencies --   3099.6482              3108.1141              3114.1041
 Red. masses --      1.0991                 1.0990                 1.0996
 Frc consts  --      6.2219                 6.2553                 6.2830
 IR Inten    --     60.0430                33.5874                25.5495

                     97                     98                     99
                      A                      A                      A
 Frequencies --   3120.7870              3131.0228              3134.9359
 Red. masses --      1.0960                 1.0987                 1.0984
 Frc consts  --      6.2890                 6.3462                 6.3599
 IR Inten    --     22.9737                20.0989                21.6274

 - Thermochemistry -
 -------------------
 Temperature   298.150 Kelvin.  Pressure   1.00000 Atm.
 Atom     1 has atomic number  6 and mass  12.00000

 Molecular mass:   190.15689 amu.
 Principal axes and moments of inertia in atomic units:
                           1         2         3
     Eigenvalues --  1812.855253462.756264741.82655
           X            0.99996  -0.00826  -0.00312
           Y            0.00828   0.99995   0.00520
           Z            0.00308  -0.00523   0.99998
 This molecule is an asymmetric top.
 Rotational symmetry number  1.
 Warning -- assumption of classical behavior for rotation
           may cause significant error
 Rotational temperatures (Kelvin)      0.04778     0.02501     0.01827
 Rotational constants (GHZ):           0.99552     0.52119     0.38060
 Zero-point vibrational energy     828132.7 (Joules/Mol)
                                  197.92847 (Kcal/Mol)
 Warning -- explicit consideration of  26 degrees of freedom as
           vibrations may cause significant error
 Vibrational temperatures:     53.80    60.36    92.53   109.56   136.83
          (Kelvin)            138.94   188.22   210.58   247.09   272.93
                              307.40   314.11   325.20   382.46   415.96
                              445.86   458.95   492.95   502.30   534.12
                              559.72   661.72   689.70   758.52   825.63
                              886.37  1103.68  1219.13  1292.74  1340.45
                             1371.27  1385.02  1392.86  1405.71  1437.94
                             1475.00  1525.34  1550.05  1593.62  1625.65
                             1632.97  1651.90  1678.85  1693.57  1701.24
                             1708.49  1722.60  1728.36  1758.94  1782.47
                             1833.34  1842.08  1859.48  1905.66  1936.29
                             1977.00  1983.61  1993.24  2020.25  2023.81
                             2053.93  2059.11  2078.24  2127.78  2133.35
                             2135.78  2137.49  2140.00  2147.20  2152.11
                             2158.35  2169.47  2170.54  2177.39  2178.87
                             2184.33  2210.39  4256.77  4280.22  4289.10
                             4304.97  4329.04  4336.03  4342.64  4350.55
                             4357.35  4361.47  4367.85  4368.29  4391.55
                             4416.48  4446.65  4447.74  4459.70  4471.88
                             4480.50  4490.12  4504.84  4510.47

 Zero-point correction=                           0.315419 (Hartree/Particle)
 Thermal correction to Energy=                    0.332220
 Thermal correction to Enthalpy=                  0.333164
 Thermal correction to Gibbs Free Energy=         0.270838
 Sum of electronic and zero-point Energies=           -619.688766
 Sum of electronic and thermal Energies=              -619.671964
 Sum of electronic and thermal Enthalpies=            -619.671020
 Sum of electronic and thermal Free Energies=         -619.733346

                     E (Thermal)             CV                S
                      KCal/Mol        Cal/Mol-Kelvin    Cal/Mol-Kelvin
 Total                  208.471             60.138            131.176
 Electronic               0.000              0.000              0.000
 Translational            0.889              2.981             41.634
 Rotational               0.889              2.981             31.765
 Vibrational            206.694             54.176             57.777
 Vibration     1          0.594              1.982              5.393
 Vibration     2          0.595              1.980              5.165
 Vibration     3          0.597              1.971              4.320
 Vibration     4          0.599              1.965              3.988
 Vibration     5          0.603              1.953              3.552
 Vibration     6          0.603              1.952              3.522
 Vibration     7          0.612              1.923              2.934
 Vibration     8          0.617              1.907              2.719
 Vibration     9          0.626              1.877              2.416
 Vibration    10          0.633              1.854              2.231
 Vibration    11          0.644              1.820              2.012
 Vibration    12          0.646              1.813              1.973
 Vibration    13          0.650              1.801              1.910
 Vibration    14          0.672              1.736              1.623
 Vibration    15          0.686              1.694              1.479
 Vibration    16          0.699              1.655              1.363
 Vibration    17          0.705              1.637              1.315
 Vibration    18          0.722              1.590              1.200
 Vibration    19          0.726              1.577              1.170
 Vibration    20          0.743              1.531              1.075
 Vibration    21          0.757              1.494              1.004
 Vibration    22          0.818              1.339              0.766
 Vibration    23          0.836              1.296              0.712
 Vibration    24          0.882              1.190              0.594
 Vibration    25          0.930              1.088              0.497
 Vibration    26          0.976              0.998              0.423

 Optimization completed.
    -- Stationary point found.
 Normal termination of Gaussian 16 at Tue May 23 13:25:19 2023.
