 Gaussian 16, Revision A.03,
 Gaussian 16:  ES64L-G16RevA.03 25-Dec-2016

 -----------------------------
 # opt freq b3lyp/6-31g(2df,p)
 -----------------------------

 -------------------
 Title Card Required
 -------------------
 Symbolic Z-matrix:
 Charge =  0 Multiplicity = 1

 SCF Done:  E(RB3LYP) =  -625.578939569     A.U. after   12 cycles
 SCF Done:  E(RB3LYP) =  -625.593116577     A.U. after   11 cycles
 SCF Done:  E(RB3LYP) =  -625.604502355     A.U. after   10 cycles
 SCF Done:  E(RB3LYP) =  -625.612812607     A.U. after   11 cycles
 SCF Done:  E(RB3LYP) =  -625.615759086     A.U. after   10 cycles
 SCF Done:  E(RB3LYP) =  -625.618306278     A.U. after   10 cycles
 SCF Done:  E(RB3LYP) =  -625.619225189     A.U. after   10 cycles
 SCF Done:  E(RB3LYP) =  -625.619409434     A.U. after   10 cycles
 SCF Done:  E(RB3LYP) =  -625.619851917     A.U. after   10 cycles
 SCF Done:  E(RB3LYP) =  -625.620005976     A.U. after    9 cycles
 SCF Done:  E(RB3LYP) =  -625.623815183     A.U. after    9 cycles
 SCF Done:  E(RB3LYP) =  -625.623890403     A.U. after    9 cycles
 SCF Done:  E(RB3LYP) =  -625.624013556     A.U. after    9 cycles
 SCF Done:  E(RB3LYP) =  -625.624031831     A.U. after    8 cycles
 SCF Done:  E(RB3LYP) =  -625.624034612     A.U. after    6 cycles
 SCF Done:  E(RB3LYP) =  -625.624035227     A.U. after    7 cycles
 SCF Done:  E(RB3LYP) =  -625.624035844     A.U. after    6 cycles
 SCF Done:  E(RB3LYP) =  -625.624036390     A.U. after    6 cycles
 SCF Done:  E(RB3LYP) =  -625.624036544     A.U. after    6 cycles
 Optimization completed.
    -- Stationary point found.
 Normal termination of Gaussian 16 at Tue May 23 18:07:44 2023.

 ----------------------------------------------------------------------
 #N Geom=AllCheck Guess=TCheck SCRF=Check GenChk RB3LYP/6-31G(2df,p) Fr
 eq
 ----------------------------------------------------------------------

 Structure from the checkpoint file:  "CCCqCqCrCOrC1CCCqCrCqCrC1.chk"
 -------------------
 Title Card Required
 -------------------
 Charge =  0 Multiplicity = 1

                         Standard orientation:
 ---------------------------------------------------------------------
 Center     Atomic      Atomic             Coordinates (Angstroms)
 Number     Number       Type             X           Y           Z
 ---------------------------------------------------------------------
      1          6           0        3.614297    1.352860    1.069735
      2          6           0        2.096209    1.225843    1.253140
      3          6           0        1.269397    0.970905   -0.033284
      4          6           0        1.526175   -0.416006   -0.709379
      5          6           0        2.634896   -0.362181   -1.774933
      6          6           0        1.785485   -1.569512    0.276387
      7          8           0        1.797063   -2.839126   -0.365705
      8          6           0       -0.225690    1.359169    0.214979
      9          6           0       -1.046338    1.633395   -1.074600
     10          6           0       -1.830583    0.441836   -1.651288
     11          6           0       -2.690431   -0.281440   -0.596360
     12          6           0       -3.910011    0.555248   -0.174246
     13          6           0       -1.781451   -0.722985    0.577746
     14          6           0       -2.528720   -1.516744    1.656476
     15          6           0       -1.031575    0.471973    1.199323
     16          1           0        4.086008    1.666826    2.006836
     17          1           0        3.860123    2.101853    0.308701
     18          1           0        4.084506    0.412119    0.771339
     19          1           0        1.735272    2.163718    1.693201
     20          1           0        1.889873    0.455199    2.004830
     21          1           0        1.615726    1.720577   -0.759753
     22          1           0        0.609406   -0.689328   -1.243241
     23          1           0        3.587126   -0.021661   -1.358148
     24          1           0        2.365257    0.323146   -2.585242
     25          1           0        2.793479   -1.355867   -2.202143
     26          1           0        1.049147   -1.557282    1.092205
     27          1           0        2.774555   -1.474760    0.735260
     28          1           0        0.927668   -2.977185   -0.755741
     29          1           0       -0.141040    2.336897    0.706617
     30          1           0       -0.388531    2.049580   -1.847011
     31          1           0       -1.766618    2.428212   -0.844153
     32          1           0       -1.145175   -0.283224   -2.104770
     33          1           0       -2.469324    0.798462   -2.468981
     34          1           0       -3.082820   -1.196717   -1.061120
     35          1           0       -3.630113    1.485066    0.330023
     36          1           0       -4.565619   -0.000756    0.501876
     37          1           0       -4.502697    0.827876   -1.054017
     38          1           0       -1.039781   -1.404770    0.140128
     39          1           0       -3.231103   -0.885024    2.210492
     40          1           0       -1.828491   -1.940323    2.384533
     41          1           0       -3.097570   -2.345418    1.220067
     42          1           0       -0.380532    0.113323    2.004578
     43          1           0       -1.775206    1.108296    1.697093
 ---------------------------------------------------------------------

 SCF Done:  E(RB3LYP) =  -625.624036544     A.U. after    1 cycles

 The electronic state is 1-A.
 Alpha  occ. eigenvalues --  -19.13029 -10.21803 -10.18278 -10.18198 -10.18197
 Alpha  occ. eigenvalues --  -10.18113 -10.18032 -10.17668 -10.17467 -10.17429
 Alpha  occ. eigenvalues --  -10.17381 -10.17156 -10.17088 -10.17014 -10.16340
 Alpha  occ. eigenvalues --   -1.01007  -0.83972  -0.80838  -0.76001  -0.75436
 Alpha  occ. eigenvalues --   -0.74697  -0.69625  -0.67282  -0.67032  -0.65276
 Alpha  occ. eigenvalues --   -0.60416  -0.59441  -0.57826  -0.54564  -0.51673
 Alpha  occ. eigenvalues --   -0.49135  -0.47562  -0.46050  -0.46017  -0.45168
 Alpha  occ. eigenvalues --   -0.43209  -0.42835  -0.42300  -0.41097  -0.40323
 Alpha  occ. eigenvalues --   -0.39283  -0.38974  -0.38262  -0.37856  -0.37446
 Alpha  occ. eigenvalues --   -0.36822  -0.36127  -0.35720  -0.34904  -0.34537
 Alpha  occ. eigenvalues --   -0.34104  -0.33424  -0.32224  -0.31790  -0.30948
 Alpha  occ. eigenvalues --   -0.30180  -0.28867  -0.28272  -0.27996  -0.25816
 Alpha virt. eigenvalues --    0.05242   0.06804   0.09137   0.09284   0.10192
 Alpha virt. eigenvalues --    0.11377   0.11663   0.12703   0.13119   0.14671
 Alpha virt. eigenvalues --    0.14993   0.15261   0.15783   0.16074   0.16382

 Mulliken charges:
               1
     1  C   -0.396907
     2  C   -0.179899
     3  C   -0.013921
     4  C    0.016382
     5  C   -0.409717
     6  C   -0.070784
     7  O   -0.429275
     8  C   -0.009997
     9  C   -0.230156
    10  C   -0.219507
    11  C    0.034488
    12  C   -0.401384
    13  C    0.050423
    14  C   -0.417551
    15  C   -0.217712
    16  H    0.110139
    17  H    0.113204
    18  H    0.123994
    19  H    0.089060
    20  H    0.100401
    21  H    0.066725
    22  H    0.060448
    23  H    0.117057
    24  H    0.104851
    25  H    0.123495
    26  H    0.093161
    27  H    0.108917
    28  H    0.280154
    29  H    0.067112
    30  H    0.088518
    31  H    0.095900
    32  H    0.096906
    33  H    0.084447
    34  H    0.058697
    35  H    0.116385
    36  H    0.114185
    37  H    0.110282
    38  H    0.054210
    39  H    0.116407
    40  H    0.111011
    41  H    0.106762
    42  H    0.090635
    43  H    0.092454
 Sum of Mulliken charges =  -0.00000

 Dipole moment (field-independent basis, Debye):
    X=             -1.3265    Y=              1.1178    Z=              0.0189  Tot=              1.7348
 Quadrupole moment (field-independent basis, Debye-Ang):
   XX=           -101.0232   YY=           -101.5351   ZZ=            -97.5112
   XY=              5.4039   XZ=              1.7727   YZ=              0.8888

  Exact polarizability: 172.737   3.725 142.959   1.569  -0.809 141.774
 Approx polarizability: 219.594  -0.004 215.124   2.050   1.916 213.233

                      1                      2                      3
                      A                      A                      A
 Frequencies --     44.1084                62.9861                79.5225
 Red. masses --      3.3322                 4.5738                 2.8627
 Frc consts  --      0.0038                 0.0107                 0.0107
 IR Inten    --      0.0007                 0.7554                 0.1274

                      4                      5                      6
                      A                      A                      A
 Frequencies --    102.7479               113.5556               127.4716
 Red. masses --      2.7944                 2.4248                 2.6112
 Frc consts  --      0.0174                 0.0184                 0.0250
 IR Inten    --      0.3427                 0.1424                 0.6883

                      7                      8                      9
                      A                      A                      A
 Frequencies --    169.4921               191.4187               203.5686
 Red. masses --      2.3269                 1.7293                 1.5851
 Frc consts  --      0.0394                 0.0373                 0.0387
 IR Inten    --      0.6110                 0.7472                 1.3586

                     10                     11                     12
                      A                      A                      A
 Frequencies --    211.6279               219.1481               230.1910
 Red. masses --      1.8766                 1.1884                 1.7246
 Frc consts  --      0.0495                 0.0336                 0.0538
 IR Inten    --      0.7165                 0.7874                 1.3856

                     13                     14                     15
                      A                      A                      A
 Frequencies --    240.9483               262.1842               272.0286
 Red. masses --      1.5219                 1.3979                 1.8986
 Frc consts  --      0.0521                 0.0566                 0.0828
 IR Inten    --      0.3663                 0.6240                 0.1837

                     16                     17                     18
                      A                      A                      A
 Frequencies --    280.2873               296.0538               301.4956
 Red. masses --      2.1044                 1.1938                 2.4279
 Frc consts  --      0.0974                 0.0616                 0.1300
 IR Inten    --      0.0229                80.2852                 2.0695

                     19                     20                     21
                      A                      A                      A
 Frequencies --    341.6337               347.8182               381.1666
 Red. masses --      2.4808                 2.2744                 2.2208
 Frc consts  --      0.1706                 0.1621                 0.1901
 IR Inten    --      0.3080                 0.3144                 1.1415

                     22                     23                     24
                      A                      A                      A
 Frequencies --    395.5650               429.9969               444.0776
 Red. masses --      2.0746                 3.1496                 2.9564
 Frc consts  --      0.1913                 0.3431                 0.3435
 IR Inten    --      0.0070                 2.3171                 6.5630

                     25                     26                     27
                      A                      A                      A
 Frequencies --    488.0015               518.5038               561.2364
 Red. masses --      2.4579                 2.1883                 3.1493
 Frc consts  --      0.3449                 0.3466                 0.5845
 IR Inten    --      0.9315                 0.7029                 0.0912

                     28                     29                     30
                      A                      A                      A
 Frequencies --    587.7767               706.2082               744.5714
 Red. masses --      2.2634                 3.3281                 2.1507
 Frc consts  --      0.4607                 0.9779                 0.7025
 IR Inten    --      3.3373                 0.5052                 1.0681

                     31                     32                     33
                      A                      A                      A
 Frequencies --    764.5345               789.2122               823.1855
 Red. masses --      1.6814                 1.9224                 2.3020
 Frc consts  --      0.5790                 0.7055                 0.9191
 IR Inten    --      1.9596                 0.2023                 0.1715

                     34                     35                     36
                      A                      A                      A
 Frequencies --    837.0732               853.9866               883.9879
 Red. masses --      2.0436                 2.0743                 1.9845
 Frc consts  --      0.8437                 0.8913                 0.9137
 IR Inten    --      2.1963                 1.3261                 1.9305

                     37                     38                     39
                      A                      A                      A
 Frequencies --    908.1309               926.9225               932.9618
 Red. masses --      1.3958                 1.9570                 1.7296
 Frc consts  --      0.6782                 0.9907                 0.8870
 IR Inten    --      9.5085                 1.9369                 1.9583

                     40                     41                     42
                      A                      A                      A
 Frequencies --    951.5114               962.2771               985.0115
 Red. masses --      1.8104                 1.6278                 1.6060
 Frc consts  --      0.9657                 0.8881                 0.9181
 IR Inten    --      1.9814                 2.2706                 2.7141

                     43                     44                     45
                      A                      A                      A
 Frequencies --   1017.5595              1024.4024              1032.6697
 Red. masses --      1.5561                 2.1092                 1.8279
 Frc consts  --      0.9493                 1.3041                 1.1485
 IR Inten    --      0.2911                 1.6498                10.0240

                     46                     47                     48
                      A                      A                      A
 Frequencies --   1041.6359              1047.8797              1062.2602
 Red. masses --      1.9272                 1.8535                 3.4697
 Frc consts  --      1.2320                 1.1991                 2.3068
 IR Inten    --      2.7038                 8.6596                89.7903

                     49                     50                     51
                      A                      A                      A
 Frequencies --   1074.3100              1099.7950              1107.9399
 Red. masses --      1.9534                 1.9742                 1.6299
 Frc consts  --      1.3283                 1.4069                 1.1788
 IR Inten    --      9.4823                 0.1657                 3.0722

                     52                     53                     54
                      A                      A                      A
 Frequencies --   1113.2738              1123.3121              1128.0789
 Red. masses --      1.6662                 1.4845                 1.8110
 Frc consts  --      1.2167                 1.1036                 1.3579
 IR Inten    --     12.0729                 0.3989                 1.7471

                     55                     56                     57
                      A                      A                      A
 Frequencies --   1141.6934              1170.7160              1179.2546
 Red. masses --      1.7451                 2.2941                 2.5567
 Frc consts  --      1.3402                 1.8526                 2.0948
 IR Inten    --      0.2793                 3.4099                 2.5251

                     58                     59                     60
                      A                      A                      A
 Frequencies --   1197.5308              1237.7249              1249.8599
 Red. masses --      1.3033                 1.6002                 1.3372
 Frc consts  --      1.1012                 1.4444                 1.2307
 IR Inten    --      1.0089                11.1606                 0.7891

                     61                     62                     63
                      A                      A                      A
 Frequencies --   1271.3407              1285.4916              1298.1003
 Red. masses --      1.3608                 1.2545                 1.3437
 Frc consts  --      1.2959                 1.2214                 1.3341
 IR Inten    --      0.6065                 1.1083                 0.5727

                     64                     65                     66
                      A                      A                      A
 Frequencies --   1320.3836              1327.7456              1330.1381
 Red. masses --      1.2285                 1.2080                 1.3419
 Frc consts  --      1.2619                 1.2547                 1.3988
 IR Inten    --      6.7295                 0.4760                 0.7440

                     67                     68                     69
                      A                      A                      A
 Frequencies --   1341.0336              1353.7280              1360.0702
 Red. masses --      1.3211                 1.3895                 1.3380
 Frc consts  --      1.3998                 1.5003                 1.4583
 IR Inten    --      0.4367                 5.4996                 4.1846

                     70                     71                     72
                      A                      A                      A
 Frequencies --   1366.0335              1377.7598              1381.1763
 Red. masses --      1.3477                 1.3987                 1.3088
 Frc consts  --      1.4817                 1.5643                 1.4710
 IR Inten    --      2.7794                 0.6562                 3.7816

                     73                     74                     75
                      A                      A                      A
 Frequencies --   1384.4300              1395.6917              1398.5284
 Red. masses --      1.3241                 1.3787                 1.4084
 Frc consts  --      1.4953                 1.5824                 1.6230
 IR Inten    --      1.9968                 4.1007                 0.4612

                     76                     77                     78
                      A                      A                      A
 Frequencies --   1400.8970              1402.3988              1407.6453
 Red. masses --      1.3136                 1.2852                 1.2563
 Frc consts  --      1.5189                 1.4892                 1.4667
 IR Inten    --      4.0384                17.0623                11.6896

                     79                     80                     81
                      A                      A                      A
 Frequencies --   1412.9234              1417.0041              1420.5374
 Red. masses --      1.3046                 1.2486                 1.2575
 Frc consts  --      1.5345                 1.4772                 1.4950
 IR Inten    --      2.5589                 7.0092                 8.2228

                     82                     83                     84
                      A                      A                      A
 Frequencies --   1428.5556              1479.5200              1484.7856
 Red. masses --      1.2663                 1.0752                 1.0709
 Frc consts  --      1.5226                 1.3867                 1.3910
 IR Inten    --     12.0687                 5.0184                 1.3859

                     85                     86                     87
                      A                      A                      A
 Frequencies --   1490.3989              1492.3142              1496.0292
 Red. masses --      1.0535                 1.0563                 1.0519
 Frc consts  --      1.3788                 1.3860                 1.3871
 IR Inten    --      0.8697                 2.0713                 5.7171

                     88                     89                     90
                      A                      A                      A
 Frequencies --   1497.5280              1499.6196              1502.7851
 Red. masses --      1.0732                 1.0581                 1.0698
 Frc consts  --      1.4181                 1.4019                 1.4235
 IR Inten    --      7.8706                 0.5665                 4.9267

                     91                     92                     93
                      A                      A                      A
 Frequencies --   1506.1830              1507.7092              1512.0572
 Red. masses --      1.0609                 1.0582                 1.0685
 Frc consts  --      1.4180                 1.4173                 1.4393
 IR Inten    --      3.8367                 0.9080                 3.8413

                     94                     95                     96
                      A                      A                      A
 Frequencies --   1512.2542              1514.2824              2984.4799
 Red. masses --      1.0582                 1.0593                 1.0825
 Frc consts  --      1.4258                 1.4311                 5.6808
 IR Inten    --      3.4225                 5.8181                13.9118

                     97                     98                     99
                      A                      A                      A
 Frequencies --   2993.1565              2996.2811              3002.4825
 Red. masses --      1.0807                 1.0809                 1.0692
 Frc consts  --      5.7044                 5.7172                 5.6791
 IR Inten    --     13.1806                36.4403                51.4852

                    100                    101                    102
                      A                      A                      A
 Frequencies --   3008.6535              3018.3839              3021.2091
 Red. masses --      1.0774                 1.0628                 1.0641
 Frc consts  --      5.7461                 5.7047                 5.7227
 IR Inten    --     10.7276                11.0536                 7.5436

                    103                    104                    105
                      A                      A                      A
 Frequencies --   3024.9584              3025.7826              3029.5480
 Red. masses --      1.0630                 1.0406                 1.0636
 Frc consts  --      5.7309                 5.6133                 5.7517
 IR Inten    --     78.1680                33.5717                41.4757

                    106                    107                    108
                      A                      A                      A
 Frequencies --   3032.6965              3039.0552              3039.9494
 Red. masses --      1.0374                 1.0525                 1.0392
 Frc consts  --      5.6216                 5.7270                 5.6582
 IR Inten    --     21.9528                 5.2888                36.5623

                    109                    110                    111
                      A                      A                      A
 Frequencies --   3042.9875              3049.7710              3054.0538
 Red. masses --      1.0690                 1.0957                 1.0976
 Frc consts  --      5.8319                 6.0045                 6.0317
 IR Inten    --     38.3199                21.7120                26.5745

                    112                    113                    114
                      A                      A                      A
 Frequencies --   3062.1748              3064.7084              3082.2800
 Red. masses --      1.0954                 1.0987                 1.0944
 Frc consts  --      6.0518                 6.0799                 6.1257
 IR Inten    --     26.7717                94.7780                33.2602

                    115                    116                    117
                      A                      A                      A
 Frequencies --   3091.2220              3094.7662              3095.1624
 Red. masses --      1.1012                 1.1008                 1.1008
 Frc consts  --      6.1997                 6.2119                 6.2136
 IR Inten    --     26.8499                40.7198                44.3306

                    118                    119                    120
                      A                      A                      A
 Frequencies --   3100.8976              3105.4493              3111.5872
 Red. masses --      1.0993                 1.1000                 1.1003
 Frc consts  --      6.2278                 6.2501                 6.2768
 IR Inten    --     37.2244                22.0418                28.2505

                    121                    122                    123
                      A                      A                      A
 Frequencies --   3113.7319              3123.3984              3809.0733
 Red. masses --      1.0993                 1.1002                 1.0660
 Frc consts  --      6.2795                 6.3241                 9.1127
 IR Inten    --     59.2588                12.1280                10.0529

 - Thermochemistry -
 -------------------
 Temperature   298.150 Kelvin.  Pressure   1.00000 Atm.
 Atom     1 has atomic number  6 and mass  12.00000

 Molecular mass:   212.21402 amu.
 Principal axes and moments of inertia in atomic units:
                           1         2         3
     Eigenvalues --  2244.199044755.527605199.55020
           X            0.99984   0.01770  -0.00198
           Y           -0.01773   0.99970  -0.01686
           Z            0.00169   0.01689   0.99986
 This molecule is an asymmetric top.
 Rotational symmetry number  1.
 Warning -- assumption of classical behavior for rotation
           may cause significant error
 Rotational temperatures (Kelvin)      0.03859     0.01821     0.01666
 Rotational constants (GHZ):           0.80418     0.37950     0.34710
 Zero-point vibrational energy    1051631.5 (Joules/Mol)
                                  251.34597 (Kcal/Mol)
 Warning -- explicit consideration of  28 degrees of freedom as
           vibrations may cause significant error
 Vibrational temperatures:     63.46    90.62   114.42   147.83   163.38
          (Kelvin)            183.40   243.86   275.41   292.89   304.49
                              315.31   331.19   346.67   377.22   391.39
                              403.27   425.96   433.78   491.53   500.43
                              548.41   569.13   618.67   638.93   702.13
                              746.01   807.49   845.68  1016.08  1071.27
                             1099.99  1135.50  1184.38  1204.36  1228.70
                             1271.86  1306.60  1333.63  1342.32  1369.01
                             1384.50  1417.21  1464.04  1473.89  1485.78
                             1498.68  1507.67  1528.36  1545.69  1582.36
                             1594.08  1601.75  1616.20  1623.05  1642.64
                             1684.40  1696.68  1722.98  1780.81  1798.27
                             1829.18  1849.54  1867.68  1899.74  1910.33
                             1913.77  1929.45  1947.71  1956.84  1965.42
                             1982.29  1987.20  1991.89  2008.09  2012.17
                             2015.58  2017.74  2025.29  2032.88  2038.75
                             2043.84  2055.37  2128.70  2136.28  2144.35
                             2147.11  2152.45  2154.61  2157.62  2162.17
                             2167.06  2169.26  2175.51  2175.80  2178.71
                             4294.00  4306.48  4310.98  4319.90  4328.78
                             4342.78  4346.85  4352.24  4353.43  4358.84
                             4363.37  4372.52  4373.81  4378.18  4387.94
                             4394.10  4405.79  4409.43  4434.71  4447.58
                             4452.68  4453.25  4461.50  4468.05  4476.88
                             4479.97  4493.87  5480.41

 Zero-point correction=                           0.400545 (Hartree/Particle)
 Thermal correction to Energy=                    0.418300
 Thermal correction to Enthalpy=                  0.419244
 Thermal correction to Gibbs Free Energy=         0.356631
 Sum of electronic and zero-point Energies=           -625.223491
 Sum of electronic and thermal Energies=              -625.205737
 Sum of electronic and thermal Enthalpies=            -625.204793
 Sum of electronic and thermal Free Energies=         -625.267406

                     E (Thermal)             CV                S
                      KCal/Mol        Cal/Mol-Kelvin    Cal/Mol-Kelvin
 Total                  262.487             69.015            131.780
 Electronic               0.000              0.000              0.000
 Translational            0.889              2.981             41.961
 Rotational               0.889              2.981             32.384
 Vibrational            260.710             63.053             57.435
 Vibration     1          0.595              1.980              5.065
 Vibration     2          0.597              1.972              4.361
 Vibration     3          0.600              1.963              3.903
 Vibration     4          0.605              1.947              3.402
 Vibration     5          0.607              1.938              3.207
 Vibration     6          0.611              1.926              2.984
 Vibration     7          0.625              1.880              2.441
 Vibration     8          0.634              1.852              2.214
 Vibration     9          0.639              1.835              2.101
 Vibration    10          0.643              1.823              2.030
 Vibration    11          0.647              1.812              1.966
 Vibration    12          0.652              1.795              1.877
 Vibration    13          0.658              1.778              1.796
 Vibration    14          0.669              1.742              1.647
 Vibration    15          0.675              1.725              1.583
 Vibration    16          0.680              1.710              1.532
 Vibration    17          0.690              1.681              1.439
 Vibration    18          0.693              1.671              1.409
 Vibration    19          0.721              1.592              1.205
 Vibration    20          0.725              1.580              1.176
 Vibration    21          0.751              1.510              1.035
 Vibration    22          0.762              1.480              0.979
 Vibration    23          0.791              1.405              0.859
 Vibration    24          0.804              1.374              0.814
 Vibration    25          0.844              1.277              0.689
 Vibration    26          0.874              1.209              0.613
 Vibration    27          0.917              1.115              0.521
 Vibration    28          0.945              1.058              0.471

 Optimization completed.
    -- Stationary point found.
 Normal termination of Gaussian 16 at Tue May 23 23:31:10 2023.
