 Gaussian 16, Revision A.03,
 Gaussian 16:  ES64L-G16RevA.03 25-Dec-2016

 -----------------------------
 # opt freq b3lyp/6-31g(2df,p)
 -----------------------------

 -------------------
 Title Card Required
 -------------------
 Symbolic Z-matrix:
 Charge =  0 Multiplicity = 1

 SCF Done:  E(RB3LYP) =  -735.250652813     A.U. after   13 cycles
 SCF Done:  E(RB3LYP) =  -735.305253947     A.U. after   13 cycles
 SCF Done:  E(RB3LYP) =  -735.352191568     A.U. after   12 cycles
 SCF Done:  E(RB3LYP) =  -735.385701171     A.U. after   12 cycles
 SCF Done:  E(RB3LYP) =  -735.406439841     A.U. after   12 cycles
 SCF Done:  E(RB3LYP) =  -735.412781310     A.U. after   12 cycles
 SCF Done:  E(RB3LYP) =  -735.416693786     A.U. after   12 cycles
 SCF Done:  E(RB3LYP) =  -735.420246440     A.U. after   12 cycles
 SCF Done:  E(RB3LYP) =  -735.424295385     A.U. after   12 cycles
 SCF Done:  E(RB3LYP) =  -735.427593571     A.U. after   12 cycles
 SCF Done:  E(RB3LYP) =  -735.439612393     A.U. after    9 cycles
 SCF Done:  E(RB3LYP) =  -735.439625517     A.U. after    9 cycles
 SCF Done:  E(RB3LYP) =  -735.439643046     A.U. after   10 cycles
 SCF Done:  E(RB3LYP) =  -735.439655097     A.U. after    9 cycles
 SCF Done:  E(RB3LYP) =  -735.439658109     A.U. after    9 cycles
 SCF Done:  E(RB3LYP) =  -735.439658821     A.U. after    7 cycles
 SCF Done:  E(RB3LYP) =  -735.439659246     A.U. after    7 cycles
 SCF Done:  E(RB3LYP) =  -735.439659334     A.U. after    7 cycles
 SCF Done:  E(RB3LYP) =  -735.439659371     A.U. after    6 cycles
 Optimization completed.
    -- Stationary point found.
 Normal termination of Gaussian 16 at Mon May 22 10:21:45 2023.

 ----------------------------------------------------------------------
 #N Geom=AllCheck Guess=TCheck SCRF=Check GenChk RB3LYP/6-31G(2df,p) Fr
 eq
 ----------------------------------------------------------------------

 Structure from the checkpoint file:  "CCCqCCrCqdCC1CCCqOCrC1rOO.chk"
 -------------------
 Title Card Required
 -------------------
 Charge =  0 Multiplicity = 1

                         Standard orientation:
 ---------------------------------------------------------------------
 Center     Atomic      Atomic             Coordinates (Angstroms)
 Number     Number       Type             X           Y           Z
 ---------------------------------------------------------------------
      1          6           0       -2.910916   -1.695166   -2.111027
      2          6           0       -1.731097   -1.025092   -1.396381
      3          6           0       -2.095779   -0.452309    0.003460
      4          6           0       -1.674724   -1.361936    1.183292
      5          6           0       -2.324174   -2.748966    1.184404
      6          6           0       -1.589167    0.962110    0.229753
      7          6           0       -0.356643    1.461438    0.132409
      8          6           0        0.891475    0.722310   -0.245522
      9          6           0        1.613875    1.293938   -1.490993
     10          6           0        3.079523    0.806906   -1.376338
     11          6           0        3.256308    0.280744    0.069072
     12          8           0        3.294686   -1.143229   -0.002837
     13          6           0        3.757674   -1.769236    1.169044
     14          6           0        2.009421    0.781327    0.819143
     15          8           0       -2.699827    1.703658    0.617150
     16          8           0       -2.382043    3.072285    0.913514
     17          1           0       -2.604403   -2.091893   -3.084334
     18          1           0       -3.719937   -0.977157   -2.284230
     19          1           0       -3.324698   -2.524050   -1.528941
     20          1           0       -1.353519   -0.216178   -2.028304
     21          1           0       -0.907948   -1.743047   -1.297616
     22          1           0       -3.189429   -0.367590    0.043715
     23          1           0       -1.928746   -0.846889    2.117439
     24          1           0       -0.583537   -1.468680    1.179994
     25          1           0       -3.417513   -2.677144    1.192162
     26          1           0       -2.022445   -3.314368    2.071880
     27          1           0       -2.033952   -3.337376    0.308596
     28          1           0       -0.233212    2.520021    0.339264
     29          1           0        0.679409   -0.334030   -0.430367
     30          1           0        1.568428    2.389036   -1.457257
     31          1           0        1.134968    0.986857   -2.424503
     32          1           0        3.790046    1.608651   -1.594357
     33          1           0        3.297110   -0.015882   -2.061430
     34          1           0        4.188935    0.636033    0.531919
     35          1           0        3.795370   -2.843340    0.968913
     36          1           0        3.098420   -1.600460    2.033862
     37          1           0        4.768384   -1.424142    1.440406
     38          1           0        2.163675    1.821773    1.135513
     39          1           0        1.784791    0.198832    1.716955
     40          1           0       -2.207385    3.022892    1.866198
 ---------------------------------------------------------------------

 SCF Done:  E(RB3LYP) =  -735.439659371     A.U. after    1 cycles

 The electronic state is 1-A.
 Alpha  occ. eigenvalues --  -19.21033 -19.19749 -19.13398 -10.22695 -10.22446
 Alpha  occ. eigenvalues --  -10.22064 -10.19161 -10.18237 -10.18076 -10.17927
 Alpha  occ. eigenvalues --  -10.17417 -10.17285 -10.17174 -10.17131 -10.17125
 Alpha  occ. eigenvalues --  -10.15946  -1.12986  -1.02552  -0.92633  -0.83160
 Alpha  occ. eigenvalues --   -0.80845  -0.75349  -0.74578  -0.70749  -0.70303
 Alpha  occ. eigenvalues --   -0.67833  -0.65208  -0.61113  -0.59922  -0.56329
 Alpha  occ. eigenvalues --   -0.55669  -0.54454  -0.51498  -0.49072  -0.48529
 Alpha  occ. eigenvalues --   -0.47354  -0.46430  -0.45165  -0.44520  -0.43682
 Alpha  occ. eigenvalues --   -0.43219  -0.41692  -0.41080  -0.40310  -0.39691
 Alpha  occ. eigenvalues --   -0.38455  -0.37898  -0.36381  -0.35544  -0.35120
 Alpha  occ. eigenvalues --   -0.34840  -0.34281  -0.33774  -0.33318  -0.33006
 Alpha  occ. eigenvalues --   -0.32396  -0.31903  -0.31266  -0.30950  -0.29920
 Alpha  occ. eigenvalues --   -0.29195  -0.24905  -0.20970
 Alpha virt. eigenvalues --    0.02894   0.04301   0.07467   0.08548   0.09162
 Alpha virt. eigenvalues --    0.09664   0.10708   0.12023   0.12440   0.13262
 Alpha virt. eigenvalues --    0.13906   0.13997   0.15032   0.15710   0.15814

 Mulliken charges:
               1
     1  C   -0.398420
     2  C   -0.187405
     3  C   -0.072994
     4  C   -0.181724
     5  C   -0.391167
     6  C    0.367802
     7  C   -0.235835
     8  C    0.004568
     9  C   -0.221624
    10  C   -0.238634
    11  C    0.124830
    12  O   -0.246704
    13  C   -0.236473
    14  C   -0.241458
    15  O   -0.213842
    16  O   -0.295766
    17  H    0.112015
    18  H    0.120435
    19  H    0.118594
    20  H    0.112906
    21  H    0.102882
    22  H    0.091802
    23  H    0.096845
    24  H    0.107542
    25  H    0.115868
    26  H    0.111681
    27  H    0.122410
    28  H    0.086650
    29  H    0.079539
    30  H    0.094917
    31  H    0.098929
    32  H    0.097196
    33  H    0.115175
    34  H    0.054153
    35  H    0.124161
    36  H    0.102409
    37  H    0.101824
    38  H    0.088558
    39  H    0.095872
    40  H    0.312483
 Sum of Mulliken charges =  -0.00000

 Dipole moment (field-independent basis, Debye):
    X=              1.0456    Y=             -0.5334    Z=              1.8853  Tot=              2.2209
 Quadrupole moment (field-independent basis, Debye-Ang):
   XX=           -101.6212   YY=            -99.5260   ZZ=            -94.3362
   XY=              5.2613   XZ=              0.7630   YZ=              2.6641

  Exact polarizability: 172.428   3.915 156.503  -1.458   0.086 136.363
 Approx polarizability: 232.242   6.858 222.968  -4.139   4.494 197.592

                      1                      2                      3
                      A                      A                      A
 Frequencies --     23.7973                34.0622                48.8734
 Red. masses --      3.4230                 3.1714                 3.6961
 Frc consts  --      0.0011                 0.0022                 0.0052
 IR Inten    --      0.1149                 0.2382                 0.3552

                      4                      5                      6
                      A                      A                      A
 Frequencies --     62.4505                67.8181                75.5473
 Red. masses --      2.4321                 3.9483                 2.3226
 Frc consts  --      0.0056                 0.0107                 0.0078
 IR Inten    --      0.0563                 1.1841                 0.1138

                      7                      8                      9
                      A                      A                      A
 Frequencies --    110.4238               113.0740               131.5909
 Red. masses --      2.3295                 2.0130                 2.5362
 Frc consts  --      0.0167                 0.0152                 0.0259
 IR Inten    --      3.5645                 1.9824                 2.6370

                     10                     11                     12
                      A                      A                      A
 Frequencies --    146.0974               178.5378               191.9170
 Red. masses --      2.7658                 1.6268                 1.5082
 Frc consts  --      0.0348                 0.0306                 0.0327
 IR Inten    --      1.4725                41.0979                70.9295

                     13                     14                     15
                      A                      A                      A
 Frequencies --    206.4557               217.3382               222.1327
 Red. masses --      1.5675                 1.6468                 2.5710
 Frc consts  --      0.0394                 0.0458                 0.0747
 IR Inten    --      2.6107                 1.1703                 2.4724

                     16                     17                     18
                      A                      A                      A
 Frequencies --    247.0264               278.5920               288.2160
 Red. masses --      1.7237                 1.5722                 2.4630
 Frc consts  --      0.0620                 0.0719                 0.1205
 IR Inten    --      1.9479                 0.9448                 2.7179

                     19                     20                     21
                      A                      A                      A
 Frequencies --    312.3741               344.8061               376.0827
 Red. masses --      2.2640                 3.1412                 3.3158
 Frc consts  --      0.1302                 0.2200                 0.2763
 IR Inten    --      1.1816                 0.3896                 8.9017

                     22                     23                     24
                      A                      A                      A
 Frequencies --    380.8517               413.3167               439.5316
 Red. masses --      2.8842                 3.6766                 3.0615
 Frc consts  --      0.2465                 0.3701                 0.3485
 IR Inten    --      2.4358                 3.1474                 0.7422

                     25                     26                     27
                      A                      A                      A
 Frequencies --    467.4955               490.1547               564.2798
 Red. masses --      2.5306                 2.8691                 3.4900
 Frc consts  --      0.3259                 0.4061                 0.6547
 IR Inten    --      0.6405                 2.9385                 1.3723

                     28                     29                     30
                      A                      A                      A
 Frequencies --    630.4932               694.4140               732.6208
 Red. masses --      4.5160                 2.8606                 2.9111
 Frc consts  --      1.0577                 0.8127                 0.9206
 IR Inten    --      1.6848                 7.7753                 4.5933

                     31                     32                     33
                      A                      A                      A
 Frequencies --    766.7342               775.0138               790.3729
 Red. masses --      1.3812                 1.2806                 2.0114
 Frc consts  --      0.4784                 0.4532                 0.7403
 IR Inten    --      0.7373                 5.1529                 2.2381

                     34                     35                     36
                      A                      A                      A
 Frequencies --    833.1409               848.7768               882.3151
 Red. masses --      2.1340                 1.7826                 2.0481
 Frc consts  --      0.8727                 0.7566                 0.9394
 IR Inten    --      6.5438                 4.9119                 4.6449

                     37                     38                     39
                      A                      A                      A
 Frequencies --    886.9549               909.8541               920.9246
 Red. masses --      1.7555                 4.4093                 2.4772
 Frc consts  --      0.8137                 2.1506                 1.2378
 IR Inten    --      7.7902                21.8135                 1.1619

                     40                     41                     42
                      A                      A                      A
 Frequencies --    927.3629               945.9901               963.1255
 Red. masses --      1.8637                 1.7631                 4.2872
 Frc consts  --      0.9443                 0.9296                 2.3431
 IR Inten    --      6.8021                 6.8444                 4.9255

                     43                     44                     45
                      A                      A                      A
 Frequencies --    984.3864               993.7433              1025.0558
 Red. masses --      1.9727                 1.8800                 1.9541
 Frc consts  --      1.1263                 1.0938                 1.2098
 IR Inten    --      6.6890                 4.5423                 4.0892

                     46                     47                     48
                      A                      A                      A
 Frequencies --   1033.6845              1050.7040              1062.4733
 Red. masses --      1.4146                 2.7468                 2.7363
 Frc consts  --      0.8906                 1.7867                 1.8199
 IR Inten    --      0.4262                 7.3449                44.9547

                     49                     50                     51
                      A                      A                      A
 Frequencies --   1074.4986              1088.5791              1116.9546
 Red. masses --      3.9189                 1.8121                 2.1650
 Frc consts  --      2.6658                 1.2652                 1.5914
 IR Inten    --      0.6683                 2.7862                 4.8523

                     52                     53                     54
                      A                      A                      A
 Frequencies --   1131.6764              1140.5422              1148.4104
 Red. masses --      4.4533                 2.2779                 2.3227
 Frc consts  --      3.3603                 1.7459                 1.8049
 IR Inten    --    115.8606                 2.9679                14.4762

                     55                     56                     57
                      A                      A                      A
 Frequencies --   1180.4587              1183.2341              1183.7438
 Red. masses --      1.4351                 1.4971                 1.5489
 Frc consts  --      1.1782                 1.2349                 1.2787
 IR Inten    --     18.9907                 0.3373                 6.4791

                     58                     59                     60
                      A                      A                      A
 Frequencies --   1213.2138              1219.2943              1241.0585
 Red. masses --      1.4991                 1.5203                 1.6433
 Frc consts  --      1.3000                 1.3317                 1.4913
 IR Inten    --      3.2953                14.1572                34.6408

                     61                     62                     63
                      A                      A                      A
 Frequencies --   1267.2112              1276.0626              1292.1720
 Red. masses --      1.3312                 1.2867                 1.3468
 Frc consts  --      1.2595                 1.2345                 1.3250
 IR Inten    --      4.1792                 0.6095                 3.6040

                     64                     65                     66
                      A                      A                      A
 Frequencies --   1307.9175              1314.1988              1324.6887
 Red. masses --      1.2656                 1.1646                 1.3729
 Frc consts  --      1.2755                 1.1851                 1.4194
 IR Inten    --      8.5539                 0.7068                 0.1696

                     67                     68                     69
                      A                      A                      A
 Frequencies --   1333.8106              1337.7264              1342.7283
 Red. masses --      1.2097                 1.2309                 1.4058
 Frc consts  --      1.2680                 1.2978                 1.4933
 IR Inten    --      2.4312                 0.2287                 1.5724

                     70                     71                     72
                      A                      A                      A
 Frequencies --   1363.1690              1367.2724              1387.3497
 Red. masses --      1.4395                 1.3386                 1.3239
 Frc consts  --      1.5760                 1.4744                 1.5014
 IR Inten    --      6.9072                 1.9392                28.7325

                     73                     74                     75
                      A                      A                      A
 Frequencies --   1392.6973              1401.2522              1404.6476
 Red. masses --      1.3954                 1.1923                 1.4842
 Frc consts  --      1.5947                 1.3793                 1.7253
 IR Inten    --     19.7347                23.3437                22.2979

                     76                     77                     78
                      A                      A                      A
 Frequencies --   1409.8908              1413.6237              1473.0917
 Red. masses --      1.2636                 1.2252                 1.1079
 Frc consts  --      1.4799                 1.4426                 1.4165
 IR Inten    --      3.3984                 1.3366                 2.7708

                     79                     80                     81
                      A                      A                      A
 Frequencies --   1478.4928              1479.9869              1482.4892
 Red. masses --      1.0899                 1.0895                 1.0693
 Frc consts  --      1.4036                 1.4060                 1.3846
 IR Inten    --      0.6292                 2.3444                 0.3854

                     82                     83                     84
                      A                      A                      A
 Frequencies --   1489.7194              1491.6718              1498.0542
 Red. masses --      1.0509                 1.0767                 1.0493
 Frc consts  --      1.3741                 1.4115                 1.3874
 IR Inten    --      1.1206                 4.5115                 2.0163

                     85                     86                     87
                      A                      A                      A
 Frequencies --   1502.1654              1503.6628              1507.6702
 Red. masses --      1.0742                 1.0659                 1.0707
 Frc consts  --      1.4281                 1.4200                 1.4340
 IR Inten    --      5.1599                 3.1148                 5.3402

                     88                     89                     90
                      A                      A                      A
 Frequencies --   1510.7782              1511.4852              1743.2344
 Red. masses --      1.0532                 1.0639                 8.0026
 Frc consts  --      1.4163                 1.4321                14.3282
 IR Inten    --      5.1085                 5.6063                81.2567

                     91                     92                     93
                      A                      A                      A
 Frequencies --   2969.6111              2985.2611              3016.0188
 Red. masses --      1.0405                 1.0810                 1.0992
 Frc consts  --      5.4064                 5.6761                 5.8912
 IR Inten    --     43.8148                70.2458                58.3065

                     94                     95                     96
                      A                      A                      A
 Frequencies --   3017.1969              3024.7372              3028.2383
 Red. masses --      1.0788                 1.0695                 1.0605
 Frc consts  --      5.7864                 5.7651                 5.7296
 IR Inten    --      1.3117                29.5610                18.1119

                     97                     98                     99
                      A                      A                      A
 Frequencies --   3031.5858              3032.6919              3033.7874
 Red. masses --      1.0374                 1.0611                 1.0663
 Frc consts  --      5.6172                 5.7498                 5.7825
 IR Inten    --     20.0529                12.1153                21.7949

                    100                    101                    102
                      A                      A                      A
 Frequencies --   3034.6817              3063.3856              3064.8559
 Red. masses --      1.0416                 1.0995                 1.0633
 Frc consts  --      5.6519                 6.0790                 5.8848
 IR Inten    --     59.0162                10.8667                47.1123

                    103                    104                    105
                      A                      A                      A
 Frequencies --   3074.3443              3077.4892              3086.8962
 Red. masses --      1.0826                 1.0966                 1.0970
 Frc consts  --      6.0286                 6.1194                 6.1589
 IR Inten    --      4.7105                 3.4657                28.2671

                    106                    107                    108
                      A                      A                      A
 Frequencies --   3094.5246              3098.2984              3099.9217
 Red. masses --      1.0963                 1.1011                 1.1015
 Frc consts  --      6.1854                 6.2275                 6.2364
 IR Inten    --     19.4330                30.3449                38.3757

                    109                    110                    111
                      A                      A                      A
 Frequencies --   3105.5831              3106.5672              3113.2222
 Red. masses --      1.1015                 1.0958                 1.1006
 Frc consts  --      6.2592                 6.2310                 6.2851
 IR Inten    --     54.5866                29.2318                27.9630

                    112                    113                    114
                      A                      A                      A
 Frequencies --   3113.6059              3172.9360              3724.5090
 Red. masses --      1.1036                 1.0857                 1.0685
 Frc consts  --      6.3037                 6.4399                 8.7330
 IR Inten    --     26.3351                 4.2125                26.5923

 - Thermochemistry -
 -------------------
 Temperature   298.150 Kelvin.  Pressure   1.00000 Atm.
 Atom     1 has atomic number  6 and mass  12.00000

 Molecular mass:   228.17254 amu.
 Principal axes and moments of inertia in atomic units:
                           1         2         3
     Eigenvalues --  3053.673165891.186997013.24706
           X            0.99905   0.04190   0.01192
           Y           -0.04167   0.99895  -0.01881
           Z           -0.01269   0.01830   0.99975
 This molecule is an asymmetric top.
 Rotational symmetry number  1.
 Warning -- assumption of classical behavior for rotation
           may cause significant error
 Rotational temperatures (Kelvin)      0.02836     0.01470     0.01235
 Rotational constants (GHZ):           0.59101     0.30635     0.25733
 Zero-point vibrational energy     931840.2 (Joules/Mol)
                                  222.71516 (Kcal/Mol)
 Warning -- explicit consideration of  27 degrees of freedom as
           vibrations may cause significant error
 Vibrational temperatures:     34.24    49.01    70.32    89.85    97.58
          (Kelvin)            108.70   158.88   162.69   189.33   210.20
                              256.88   276.13   297.04   312.70   319.60
                              355.42   400.83   414.68   449.44   496.10
                              541.10   547.96   594.67   632.39   672.62
                              705.22   811.87   907.14   999.11  1054.08
                             1103.16  1115.07  1137.17  1198.70  1221.20
                             1269.45  1276.13  1309.08  1325.01  1334.27
                             1361.07  1385.72  1416.31  1429.77  1474.83
                             1487.24  1511.73  1528.66  1545.96  1566.22
                             1607.05  1628.23  1640.99  1652.31  1698.42
                             1702.41  1703.14  1745.54  1754.29  1785.61
                             1823.23  1835.97  1859.15  1881.80  1890.84
                             1905.93  1919.06  1924.69  1931.89  1961.30
                             1967.20  1996.09  2003.78  2016.09  2020.97
                             2028.52  2033.89  2119.45  2127.22  2129.37
                             2132.97  2143.37  2146.18  2155.37  2161.28
                             2163.44  2169.20  2173.67  2174.69  2508.13
                             4272.61  4295.12  4339.38  4341.07  4351.92
                             4356.96  4361.78  4363.37  4364.94  4366.23
                             4407.53  4409.64  4423.30  4427.82  4441.36
                             4452.33  4457.76  4460.10  4468.24  4469.66
                             4479.23  4479.78  4565.15  5358.74

 Zero-point correction=                           0.354919 (Hartree/Particle)
 Thermal correction to Energy=                    0.374073
 Thermal correction to Enthalpy=                  0.375017
 Thermal correction to Gibbs Free Energy=         0.306105
 Sum of electronic and zero-point Energies=           -735.084740
 Sum of electronic and thermal Energies=              -735.065586
 Sum of electronic and thermal Enthalpies=            -735.064642
 Sum of electronic and thermal Free Energies=         -735.133555

                     E (Thermal)             CV                S
                      KCal/Mol        Cal/Mol-Kelvin    Cal/Mol-Kelvin
 Total                  234.734             69.848            145.038
 Electronic               0.000              0.000              0.000
 Translational            0.889              2.981             42.177
 Rotational               0.889              2.981             33.200
 Vibrational            232.957             63.887             69.661
 Vibration     1          0.593              1.985              6.289
 Vibration     2          0.594              1.983              5.578
 Vibration     3          0.595              1.978              4.862
 Vibration     4          0.597              1.972              4.378
 Vibration     5          0.598              1.970              4.216
 Vibration     6          0.599              1.965              4.003
 Vibration     7          0.606              1.941              3.261
 Vibration     8          0.607              1.939              3.215
 Vibration     9          0.612              1.922              2.923
 Vibration    10          0.617              1.907              2.722
 Vibration    11          0.629              1.869              2.344
 Vibration    12          0.634              1.851              2.209
 Vibration    13          0.641              1.831              2.075
 Vibration    14          0.646              1.815              1.981
 Vibration    15          0.648              1.807              1.942
 Vibration    16          0.661              1.768              1.752
 Vibration    17          0.679              1.713              1.542
 Vibration    18          0.685              1.696              1.484
 Vibration    19          0.701              1.650              1.350
 Vibration    20          0.723              1.586              1.190
 Vibration    21          0.747              1.521              1.055
 Vibration    22          0.751              1.511              1.036
 Vibration    23          0.777              1.441              0.915
 Vibration    24          0.800              1.384              0.828
 Vibration    25          0.825              1.322              0.745
 Vibration    26          0.846              1.272              0.683
 Vibration    27          0.920              1.109              0.515

                           ! Non-Optimized Parameters !
 Normal termination of Gaussian 16 at Mon May 22 14:39:11 2023.
