 Gaussian 16, Revision A.03,
 Gaussian 16:  ES64L-G16RevA.03 25-Dec-2016

 -----------------------------
 # opt freq b3lyp/6-31g(2df,p)
 -----------------------------

 -------------------
 Title Card Required
 -------------------
 Symbolic Z-matrix:
 Charge =  0 Multiplicity = 1

 SCF Done:  E(RB3LYP) =  -705.469449793     A.U. after   12 cycles
 SCF Done:  E(RB3LYP) =  -705.479969335     A.U. after   10 cycles
 SCF Done:  E(RB3LYP) =  -705.481382797     A.U. after   10 cycles
 SCF Done:  E(RB3LYP) =  -705.481628225     A.U. after    9 cycles
 SCF Done:  E(RB3LYP) =  -705.481667163     A.U. after    8 cycles
 SCF Done:  E(RB3LYP) =  -705.481676673     A.U. after    7 cycles
 SCF Done:  E(RB3LYP) =  -705.481679656     A.U. after    7 cycles
 SCF Done:  E(RB3LYP) =  -705.481680265     A.U. after    6 cycles
 SCF Done:  E(RB3LYP) =  -705.481680751     A.U. after    6 cycles
 SCF Done:  E(RB3LYP) =  -705.481680863     A.U. after    5 cycles
 Optimization completed.
    -- Stationary point found.
 Normal termination of Gaussian 16 at Mon May 22 02:05:01 2023.

 ----------------------------------------------------------------------
 #N Geom=AllCheck Guess=TCheck SCRF=Check GenChk RB3LYP/6-31G(2df,p) Fr
 eq
 ----------------------------------------------------------------------

 Structure from the checkpoint file:  "CCCqCrCCCqCrCCCCCqCrCCO.chk"
 -------------------
 Title Card Required
 -------------------
 Charge =  0 Multiplicity = 1

                         Standard orientation:
 ---------------------------------------------------------------------
 Center     Atomic      Atomic             Coordinates (Angstroms)
 Number     Number       Type             X           Y           Z
 ---------------------------------------------------------------------
      1          6           0        8.137213    0.177397    0.227768
      2          6           0        6.819539   -0.345549   -0.353753
      3          6           0        5.548533    0.345615    0.178688
      4          6           0        5.517121    1.837192   -0.186875
      5          6           0        4.294843   -0.400661   -0.322293
      6          6           0        2.976943    0.028517    0.336047
      7          6           0        1.722303   -0.715560   -0.166933
      8          6           0        1.753862   -2.208214    0.195210
      9          6           0        0.452265   -0.023917    0.367345
     10          6           0       -0.871506   -0.529389   -0.219543
     11          6           0       -2.086902    0.271905    0.264540
     12          6           0       -3.410121   -0.233335   -0.323544
     13          6           0       -4.679107    0.461197    0.209099
     14          6           0       -4.715785    1.952719   -0.160390
     15          6           0       -5.932675   -0.285097   -0.286674
     16          6           0       -7.250711    0.152054    0.356883
     17          8           0       -8.340001   -0.680224   -0.018197
     18          1           0        8.984636   -0.412994   -0.135109
     19          1           0        8.137085    0.117739    1.322284
     20          1           0        8.325477    1.219571   -0.047075
     21          1           0        6.743766   -1.419730   -0.141237
     22          1           0        6.841500   -0.256371   -1.449153
     23          1           0        5.565834    0.265717    1.276860
     24          1           0        5.503994    1.968639   -1.276158
     25          1           0        6.391940    2.366801    0.200734
     26          1           0        4.633349    2.337495    0.218565
     27          1           0        4.451016   -1.473254   -0.156351
     28          1           0        4.214616   -0.271498   -1.411967
     29          1           0        2.822156    1.101511    0.171564
     30          1           0        3.056419   -0.102275    1.425538
     31          1           0        1.706335   -0.632822   -1.264793
     32          1           0        1.761625   -2.342151    1.284209
     33          1           0        2.640883   -2.705567   -0.206719
     34          1           0        0.882264   -2.738694   -0.198262
     35          1           0        0.532541    1.052917    0.164846
     36          1           0        0.425039   -0.121826    1.462672
     37          1           0       -1.020247   -1.586357    0.033736
     38          1           0       -0.822172   -0.483978   -1.316892
     39          1           0       -1.937895    1.329099    0.012023
     40          1           0       -2.137007    0.225663    1.361755
     41          1           0       -3.492937   -1.309415   -0.119670
     42          1           0       -3.382205   -0.136367   -1.418891
     43          1           0       -4.660750    0.384042    1.307210
     44          1           0       -4.738149    2.081338   -1.249793
     45          1           0       -3.838281    2.483931    0.218222
     46          1           0       -5.597014    2.453185    0.250924
     47          1           0       -5.818167   -1.358897   -0.095093
     48          1           0       -6.011419   -0.172035   -1.379217
     49          1           0       -7.469791    1.206459    0.131241
     50          1           0       -7.178906    0.065660    1.447324
     51          1           0       -8.450424   -0.602979   -0.971199
 ---------------------------------------------------------------------

 SCF Done:  E(RB3LYP) =  -705.481680863     A.U. after    1 cycles

 The electronic state is 1-A.
 Alpha  occ. eigenvalues --  -19.12805 -10.22022 -10.18616 -10.18042 -10.17986
 Alpha  occ. eigenvalues --  -10.17483 -10.17464 -10.17441 -10.17369 -10.17327
 Alpha  occ. eigenvalues --  -10.17174 -10.17170 -10.17072 -10.17046 -10.16890
 Alpha  occ. eigenvalues --  -10.16694 -10.16670  -1.00857  -0.82031  -0.81326
 Alpha  occ. eigenvalues --   -0.79790  -0.76773  -0.73426  -0.71628  -0.69885
 Alpha  occ. eigenvalues --   -0.68931  -0.65932  -0.64473  -0.61953  -0.59464
 Alpha  occ. eigenvalues --   -0.57251  -0.55893  -0.55187  -0.54686  -0.49668
 Alpha  occ. eigenvalues --   -0.47708  -0.46640  -0.45801  -0.45235  -0.44560
 Alpha  occ. eigenvalues --   -0.43742  -0.42575  -0.42238  -0.41342  -0.41252
 Alpha  occ. eigenvalues --   -0.40356  -0.39938  -0.38786  -0.37973  -0.37633
 Alpha  occ. eigenvalues --   -0.37116  -0.36452  -0.36049  -0.35405  -0.34803
 Alpha  occ. eigenvalues --   -0.34181  -0.33989  -0.33255  -0.32618  -0.32002
 Alpha  occ. eigenvalues --   -0.31866  -0.31743  -0.31348  -0.31277  -0.31174
 Alpha  occ. eigenvalues --   -0.30983  -0.30257  -0.28518  -0.25702
 Alpha virt. eigenvalues --    0.08062   0.08174   0.08386   0.09458   0.10558
 Alpha virt. eigenvalues --    0.11046   0.11437   0.11614   0.11963   0.12999
 Alpha virt. eigenvalues --    0.13239   0.13562   0.14270   0.15200   0.15341

 Mulliken charges:
               1
     1  C   -0.391740
     2  C   -0.166078
     3  C    0.048453
     4  C   -0.390687
     5  C   -0.194403
     6  C   -0.196109
     7  C    0.027528
     8  C   -0.391172
     9  C   -0.182999
    10  C   -0.192990
    11  C   -0.193723
    12  C   -0.179679
    13  C    0.021606
    14  C   -0.392315
    15  C   -0.200319
    16  C   -0.069641
    17  O   -0.418327
    18  H    0.110243
    19  H    0.111549
    20  H    0.117209
    21  H    0.089273
    22  H    0.089819
    23  H    0.064791
    24  H    0.108134
    25  H    0.112622
    26  H    0.114347
    27  H    0.090372
    28  H    0.086246
    29  H    0.090254
    30  H    0.086714
    31  H    0.065048
    32  H    0.108287
    33  H    0.114411
    34  H    0.113794
    35  H    0.086244
    36  H    0.087939
    37  H    0.096095
    38  H    0.089791
    39  H    0.095418
    40  H    0.090932
    41  H    0.089423
    42  H    0.087916
    43  H    0.069725
    44  H    0.109051
    45  H    0.117045
    46  H    0.114924
    47  H    0.101134
    48  H    0.079465
    49  H    0.087170
    50  H    0.108603
    51  H    0.278607
 Sum of Mulliken charges =  -0.00000

 Dipole moment (field-independent basis, Debye):
    X=              1.0344    Y=              0.7072    Z=             -0.9616  Tot=              1.5795
 Quadrupole moment (field-independent basis, Debye-Ang):
   XX=           -128.9957   YY=           -114.1295   ZZ=           -109.8436
   XY=             -6.6370   XZ=              8.9443   YZ=              0.2535

  Exact polarizability: 237.308   1.508 164.342   1.278   0.794 151.181
 Approx polarizability: 250.722   2.016 243.273   1.302  -0.686 246.623

                      1                      2                      3
                      A                      A                      A
 Frequencies --     15.3354                17.8470                22.9740
 Red. masses --      3.4230                 2.7577                 3.7661
 Frc consts  --      0.0005                 0.0005                 0.0012
 IR Inten    --      0.3432                 0.1001                 0.1878

                      4                      5                      6
                      A                      A                      A
 Frequencies --     41.2526                46.4594                67.2914
 Red. masses --      2.5164                 3.2431                 1.8240
 Frc consts  --      0.0025                 0.0041                 0.0049
 IR Inten    --      0.4189                 0.2155                 2.4386

                      7                      8                      9
                      A                      A                      A
 Frequencies --     74.1844                78.2067                96.5885
 Red. masses --      2.4675                 2.7336                 1.9401
 Frc consts  --      0.0080                 0.0099                 0.0107
 IR Inten    --      0.3305                 0.0665                 0.6246

                     10                     11                     12
                      A                      A                      A
 Frequencies --    102.2636               108.7698               128.1024
 Red. masses --      2.3041                 2.1116                 2.1573
 Frc consts  --      0.0142                 0.0147                 0.0209
 IR Inten    --      0.1854                 0.7517                 0.3942

                     13                     14                     15
                      A                      A                      A
 Frequencies --    139.8666               151.4203               157.1377
 Red. masses --      2.5743                 2.2506                 3.7142
 Frc consts  --      0.0297                 0.0304                 0.0540
 IR Inten    --      0.0182                 0.4725                 0.1101

                     16                     17                     18
                      A                      A                      A
 Frequencies --    209.2943               219.8130               235.6819
 Red. masses --      1.0574                 3.0102                 1.2423
 Frc consts  --      0.0273                 0.0857                 0.0407
 IR Inten    --      0.0922                 1.2372                 0.4031

                     19                     20                     21
                      A                      A                      A
 Frequencies --    238.3468               255.8313               259.9219
 Red. masses --      1.1962                 1.2807                 2.4166
 Frc consts  --      0.0400                 0.0494                 0.0962
 IR Inten    --      1.2538                 0.1221                 0.7812

                     22                     23                     24
                      A                      A                      A
 Frequencies --    286.8009               297.1530               318.5081
 Red. masses --      2.4629                 1.2156                 2.5343
 Frc consts  --      0.1194                 0.0632                 0.1515
 IR Inten    --      7.7689                91.2848                 3.1235

                     25                     26                     27
                      A                      A                      A
 Frequencies --    347.1992               359.8212               393.1800
 Red. masses --      2.6651                 3.3637                 2.3695
 Frc consts  --      0.1893                 0.2566                 0.2158
 IR Inten    --      2.8294                 9.6686                 0.6950

                     28                     29                     30
                      A                      A                      A
 Frequencies --    408.9268               417.4432               446.1929
 Red. masses --      2.1054                 1.9808                 2.2915
 Frc consts  --      0.2074                 0.2034                 0.2688
 IR Inten    --      0.1033                 0.0321                 1.5434

                     31                     32                     33
                      A                      A                      A
 Frequencies --    465.5325               503.5137               530.2918
 Red. masses --      2.6117                 2.6060                 2.7054
 Frc consts  --      0.3335                 0.3893                 0.4482
 IR Inten    --      0.5716                 0.9508                 0.4952

                     34                     35                     36
                      A                      A                      A
 Frequencies --    552.7846               733.6666               751.4552
 Red. masses --      2.6425                 1.0906                 1.2309
 Frc consts  --      0.4757                 0.3459                 0.4095
 IR Inten    --      0.3598                 1.8437                 1.6167

                     37                     38                     39
                      A                      A                      A
 Frequencies --    769.5843               773.3116               782.7704
 Red. masses --      1.2471                 1.3543                 1.2432
 Frc consts  --      0.4352                 0.4772                 0.4488
 IR Inten    --      0.8465                 2.2965                 1.8308

                     40                     41                     42
                      A                      A                      A
 Frequencies --    828.8084               844.7867               862.0123
 Red. masses --      1.7627                 2.3501                 2.2852
 Frc consts  --      0.7134                 0.9882                 1.0004
 IR Inten    --      0.4469                 1.9182                 0.2699

                     43                     44                     45
                      A                      A                      A
 Frequencies --    889.4266               913.4681               923.7792
 Red. masses --      1.3552                 2.0619                 1.3878
 Frc consts  --      0.6316                 1.0137                 0.6978
 IR Inten    --      2.1545                 0.7085                 0.8279

                     46                     47                     48
                      A                      A                      A
 Frequencies --    936.6825               946.9147               962.0454
 Red. masses --      1.9858                 1.8283                 1.3348
 Frc consts  --      1.0265                 0.9659                 0.7279
 IR Inten    --      3.0216                 1.5242                 3.8693

                     49                     50                     51
                      A                      A                      A
 Frequencies --    972.5937               997.1949              1008.0021
 Red. masses --      1.2123                 1.4959                 2.6117
 Frc consts  --      0.6756                 0.8764                 1.5635
 IR Inten    --      4.1031                 1.8816                22.0547

                     52                     53                     54
                      A                      A                      A
 Frequencies --   1015.7678              1018.9570              1033.5718
 Red. masses --      2.0026                 2.4667                 2.8988
 Frc consts  --      1.2174                 1.5089                 1.8245
 IR Inten    --      3.3209                 0.6374                12.3020

                     55                     56                     57
                      A                      A                      A
 Frequencies --   1040.6431              1053.4959              1063.6961
 Red. masses --      2.1799                 1.6283                 2.5846
 Frc consts  --      1.3909                 1.0648                 1.7230
 IR Inten    --      4.0962                 0.1835                14.4059

                     58                     59                     60
                      A                      A                      A
 Frequencies --   1073.2022              1078.6793              1079.8082
 Red. masses --      3.0567                 1.4391                 2.4724
 Frc consts  --      2.0743                 0.9866                 1.6985
 IR Inten    --     27.7024                12.1771                41.7864

                     61                     62                     63
                      A                      A                      A
 Frequencies --   1096.0838              1119.0103              1143.3938
 Red. masses --      2.4988                 1.9793                 1.6387
 Frc consts  --      1.7688                 1.4603                 1.2623
 IR Inten    --      7.0567                 4.3890                 3.2891

                     64                     65                     66
                      A                      A                      A
 Frequencies --   1159.2587              1172.3982              1177.9633
 Red. masses --      2.4803                 1.8752                 1.7728
 Frc consts  --      1.9639                 1.5187                 1.4494
 IR Inten    --      0.5891                 0.2889                 1.8189

                     67                     68                     69
                      A                      A                      A
 Frequencies --   1179.9117              1202.2534              1223.0043
 Red. masses --      1.7893                 1.9950                 1.6243
 Frc consts  --      1.4677                 1.6990                 1.4314
 IR Inten    --     16.1504                 0.7623                 8.9322

                     70                     71                     72
                      A                      A                      A
 Frequencies --   1235.8485              1251.1274              1272.1281
 Red. masses --      1.4278                 1.2914                 1.2495
 Frc consts  --      1.2848                 1.1910                 1.1913
 IR Inten    --      0.6918                 0.4112                 1.1802

                     73                     74                     75
                      A                      A                      A
 Frequencies --   1282.4971              1294.2755              1300.3373
 Red. masses --      1.2786                 1.2243                 1.2356
 Frc consts  --      1.2391                 1.2084                 1.2309
 IR Inten    --      0.7008                 2.3121                 0.6801

                     76                     77                     78
                      A                      A                      A
 Frequencies --   1312.2688              1316.6482              1325.0237
 Red. masses --      1.2116                 1.2304                 1.1440
 Frc consts  --      1.2293                 1.2567                 1.1833
 IR Inten    --      7.2126                 2.1591                 0.0559

                     79                     80                     81
                      A                      A                      A
 Frequencies --   1329.5489              1333.7887              1338.2225
 Red. masses --      1.2108                 1.0823                 1.2680
 Frc consts  --      1.2611                 1.1344                 1.3379
 IR Inten    --      0.8788                 0.0595                 0.4768

                     82                     83                     84
                      A                      A                      A
 Frequencies --   1356.7770              1371.3444              1377.0655
 Red. masses --      1.3019                 1.3751                 1.3432
 Frc consts  --      1.4121                 1.5237                 1.5007
 IR Inten    --      5.4832                 0.9259                 0.0182

                     85                     86                     87
                      A                      A                      A
 Frequencies --   1378.2029              1381.1472              1382.9625
 Red. masses --      1.3300                 1.3828                 1.4597
 Frc consts  --      1.4885                 1.5541                 1.6449
 IR Inten    --      6.0427                 0.3164                 0.4043

                     88                     89                     90
                      A                      A                      A
 Frequencies --   1393.0683              1395.6728              1400.5894
 Red. masses --      1.4958                 1.4522                 1.3742
 Frc consts  --      1.7103                 1.6667                 1.5883
 IR Inten    --      2.0288                 0.7443                 1.3846

                     91                     92                     93
                      A                      A                      A
 Frequencies --   1402.6744              1412.3135              1413.3609
 Red. masses --      1.3373                 1.3079                 1.2526
 Frc consts  --      1.5502                 1.5371                 1.4743
 IR Inten    --      8.0397                 2.3259                 0.3569

                     94                     95                     96
                      A                      A                      A
 Frequencies --   1414.0477              1415.8516              1423.3123
 Red. masses --      1.2557                 1.2665                 1.3038
 Frc consts  --      1.4793                 1.4958                 1.5562
 IR Inten    --      7.3564                13.6134                43.5889

                     97                     98                     99
                      A                      A                      A
 Frequencies --   1472.0891              1475.7456              1479.5184
 Red. masses --      1.0796                 1.0796                 1.0754
 Frc consts  --      1.3785                 1.3852                 1.3870
 IR Inten    --      0.0632                 0.3422                 0.2206

                    100                    101                    102
                      A                      A                      A
 Frequencies --   1485.9759              1486.9624              1492.0765
 Red. masses --      1.0744                 1.0821                 1.0866
 Frc consts  --      1.3978                 1.4097                 1.4253
 IR Inten    --      0.0189                 0.3819                 0.3095

                    103                    104                    105
                      A                      A                      A
 Frequencies --   1495.1770              1497.7066              1498.5263
 Red. masses --      1.0680                 1.0551                 1.0652
 Frc consts  --      1.4068                 1.3945                 1.4094
 IR Inten    --      2.6135                 1.8894                 1.9954

                    106                    107                    108
                      A                      A                      A
 Frequencies --   1498.9956              1499.2475              1506.3018
 Red. masses --      1.0615                 1.0609                 1.0597
 Frc consts  --      1.4053                 1.4050                 1.4166
 IR Inten    --      0.4317                 0.3743                 4.8070

                    109                    110                    111
                      A                      A                      A
 Frequencies --   1508.0350              1509.6656              1512.2832
 Red. masses --      1.0646                 1.0588                 1.0791
 Frc consts  --      1.4265                 1.4218                 1.4541
 IR Inten    --      5.0525                 0.2699                 7.9643

                    112                    113                    114
                      A                      A                      A
 Frequencies --   1514.9619              1516.0473              2979.6039
 Red. masses --      1.0456                 1.0882                 1.0795
 Frc consts  --      1.4139                 1.4736                 5.6466
 IR Inten    --      8.0718                 2.1207                12.0956

                    115                    116                    117
                      A                      A                      A
 Frequencies --   2981.1711              2981.8384              2988.7227
 Red. masses --      1.0773                 1.0806                 1.0684
 Frc consts  --      5.6410                 5.6609                 5.6228
 IR Inten    --      6.5360                 0.1027                38.4191

                    118                    119                    120
                      A                      A                      A
 Frequencies --   2991.6232              2994.0924              2997.4186
 Red. masses --      1.0653                 1.0614                 1.0627
 Frc consts  --      5.6176                 5.6060                 5.6256
 IR Inten    --      9.4446                 4.0365                 6.4282

                    121                    122                    123
                      A                      A                      A
 Frequencies --   3000.0374              3003.1425              3005.6115
 Red. masses --      1.0630                 1.0633                 1.0625
 Frc consts  --      5.6368                 5.6502                 5.6550
 IR Inten    --     16.9885                 4.7673                 0.8137

                    124                    125                    126
                      A                      A                      A
 Frequencies --   3010.7594              3015.5819              3027.3096
 Red. masses --      1.0629                 1.0636                 1.0844
 Frc consts  --      5.6765                 5.6984                 5.8556
 IR Inten    --     55.7703               133.2010                10.5366

                    127                    128                    129
                      A                      A                      A
 Frequencies --   3028.1252              3028.6807              3029.2007
 Red. masses --      1.0495                 1.0477                 1.0513
 Frc consts  --      5.6702                 5.6625                 5.6835
 IR Inten    --      4.4813                18.4664                36.2312

                    130                    131                    132
                      A                      A                      A
 Frequencies --   3030.1006              3031.4050              3038.1426
 Red. masses --      1.0819                 1.0397                 1.0919
 Frc consts  --      5.8528                 5.6291                 5.9379
 IR Inten    --      5.3291                26.6693                 7.6996

                    133                    134                    135
                      A                      A                      A
 Frequencies --   3043.4487              3046.0103              3049.9717
 Red. masses --      1.0968                 1.0977                 1.0915
 Frc consts  --      5.9857                 6.0006                 5.9822
 IR Inten    --      5.7193                 2.9020                15.0077

                    136                    137                    138
                      A                      A                      A
 Frequencies --   3062.8810              3067.6742              3070.4952
 Red. masses --      1.0998                 1.1010                 1.1013
 Frc consts  --      6.0791                 6.1047                 6.1177
 IR Inten    --     37.5800                13.1245               211.1327

                    139                    140                    141
                      A                      A                      A
 Frequencies --   3095.0719              3096.3722              3097.0956
 Red. masses --      1.1004                 1.0962                 1.0956
 Frc consts  --      6.2110                 6.1921                 6.1920
 IR Inten    --     35.1472                31.7101                23.2671

                    142                    143                    144
                      A                      A                      A
 Frequencies --   3097.5221              3104.6621              3111.3557
 Red. masses --      1.0951                 1.0999                 1.1002
 Frc consts  --      6.1904                 6.2467                 6.2751
 IR Inten    --     46.2076                52.5091                51.3741

                    145                    146                    147
                      A                      A                      A
 Frequencies --   3111.7381              3112.5517              3814.4504
 Red. masses --      1.1003                 1.0999                 1.0661
 Frc consts  --      6.2775                 6.2781                 9.1392
 IR Inten    --     38.5051                27.3334                15.3150

 - Thermochemistry -
 -------------------
 Temperature   298.150 Kelvin.  Pressure   1.00000 Atm.
 Atom     1 has atomic number  6 and mass  12.00000

 Molecular mass:   242.26097 amu.
 Principal axes and moments of inertia in atomic units:
                           1         2         3
     Eigenvalues --  1030.02055********************
           X            1.00000  -0.00181   0.00087
           Y            0.00181   0.99999   0.00296
           Z           -0.00088  -0.00296   1.00000
 This molecule is an asymmetric top.
 Rotational symmetry number  1.
 Warning -- assumption of classical behavior for rotation
           may cause significant error
 Rotational temperatures (Kelvin)      0.08409     0.00384     0.00373
 Rotational constants (GHZ):           1.75214     0.08008     0.07764
 Zero-point vibrational energy    1249648.0 (Joules/Mol)
                                  298.67304 (Kcal/Mol)
 Warning -- explicit consideration of  34 degrees of freedom as
           vibrations may cause significant error
 Vibrational temperatures:     22.06    25.68    33.05    59.35    66.84
          (Kelvin)             96.82   106.73   112.52   138.97   147.13
                              156.50   184.31   201.24   217.86   226.09
                              301.13   316.26   339.09   342.93   368.08
                              373.97   412.64   427.54   458.26   499.54
                              517.70   565.70   588.35   600.61   641.97
                              669.80   724.44   762.97   795.33  1055.58
                             1081.18  1107.26  1112.62  1126.23  1192.47
                             1215.46  1240.24  1279.69  1314.28  1329.11
                             1347.68  1362.40  1384.17  1399.35  1434.74
                             1450.29  1461.46  1466.05  1487.08  1497.25
                             1515.75  1530.42  1544.10  1551.98  1553.60
                             1577.02  1610.01  1645.09  1667.91  1686.82
                             1694.83  1697.63  1729.77  1759.63  1778.11
                             1800.09  1830.31  1845.23  1862.17  1870.90
                             1888.06  1894.36  1906.41  1912.92  1919.02
                             1925.40  1952.10  1973.06  1981.29  1982.93
                             1987.16  1989.77  2004.31  2008.06  2015.14
                             2018.14  2032.00  2033.51  2034.50  2037.09
                             2047.83  2118.01  2123.27  2128.70  2137.99
                             2139.41  2146.77  2151.23  2154.87  2156.05
                             2156.72  2157.08  2167.23  2169.73  2172.07
                             2175.84  2179.69  2181.25  4286.99  4289.24
                             4290.20  4300.11  4304.28  4307.83  4312.62
                             4316.38  4320.85  4324.40  4331.81  4338.75
                             4355.62  4356.80  4357.60  4358.34  4359.64
                             4361.52  4371.21  4378.84  4382.53  4388.23
                             4406.80  4413.70  4417.76  4453.12  4454.99
                             4456.03  4456.64  4466.92  4476.55  4477.10
                             4478.27  5488.14

 Zero-point correction=                           0.475966 (Hartree/Particle)
 Thermal correction to Energy=                    0.499257
 Thermal correction to Enthalpy=                  0.500202
 Thermal correction to Gibbs Free Energy=         0.419714
 Sum of electronic and zero-point Energies=           -705.005715
 Sum of electronic and thermal Energies=              -704.982423
 Sum of electronic and thermal Enthalpies=            -704.981479
 Sum of electronic and thermal Free Energies=         -705.061967

                     E (Thermal)             CV                S
                      KCal/Mol        Cal/Mol-Kelvin    Cal/Mol-Kelvin
 Total                  313.289             83.695            169.401
 Electronic               0.000              0.000              0.000
 Translational            0.889              2.981             42.356
 Rotational               0.889              2.981             34.644
 Vibrational            311.511             77.733             92.401
 Vibration     1          0.593              1.986              7.162
 Vibration     2          0.593              1.986              6.860
 Vibration     3          0.593              1.985              6.359
 Vibration     4          0.594              1.981              5.198
 Vibration     5          0.595              1.979              4.963
 Vibration     6          0.598              1.970              4.231
 Vibration     7          0.599              1.966              4.039
 Vibration     8          0.600              1.964              3.935
 Vibration     9          0.603              1.952              3.522
 Vibration    10          0.604              1.947              3.411
 Vibration    11          0.606              1.942              3.291
 Vibration    12          0.611              1.925              2.974
 Vibration    13          0.615              1.913              2.806
 Vibration    14          0.619              1.901              2.654
 Vibration    15          0.621              1.895              2.584
 Vibration    16          0.642              1.827              2.050
 Vibration    17          0.647              1.811              1.961
 Vibration    18          0.655              1.786              1.835
 Vibration    19          0.656              1.782              1.815
 Vibration    20          0.666              1.753              1.690
 Vibration    21          0.668              1.746              1.662
 Vibration    22          0.684              1.698              1.493
 Vibration    23          0.691              1.679              1.433
 Vibration    24          0.705              1.638              1.318
 Vibration    25          0.725              1.581              1.179
 Vibration    26          0.734              1.555              1.123
 Vibration    27          0.760              1.485              0.988
 Vibration    28          0.773              1.451              0.930
 Vibration    29          0.780              1.432              0.901
 Vibration    30          0.805              1.369              0.807
 Vibration    31          0.823              1.327              0.750
 Vibration    32          0.859              1.242              0.649
 Vibration    33          0.885              1.183              0.587
 Vibration    34          0.908              1.134              0.538

                           ! Non-Optimized Parameters !
 Normal termination of Gaussian 16 at Mon May 22 06:55:22 2023.
