 Gaussian 16, Revision A.03,
 Gaussian 16:  ES64L-G16RevA.03 25-Dec-2016

 -----------------------------
 # opt freq b3lyp/6-31g(2df,p)
 -----------------------------

 -------------------
 Title Card Required
 -------------------
 Symbolic Z-matrix:
 Charge =  0 Multiplicity = 1

 SCF Done:  E(RB3LYP) =  -538.482925346     A.U. after   14 cycles
 SCF Done:  E(RB3LYP) =  -538.495866385     A.U. after   14 cycles
 SCF Done:  E(RB3LYP) =  -538.498581622     A.U. after   11 cycles
 SCF Done:  E(RB3LYP) =  -538.499754270     A.U. after   13 cycles
 SCF Done:  E(RB3LYP) =  -538.502151708     A.U. after   13 cycles
 SCF Done:  E(RB3LYP) =  -538.504047602     A.U. after   14 cycles
 SCF Done:  E(RB3LYP) =  -538.505130187     A.U. after   12 cycles
 SCF Done:  E(RB3LYP) =  -538.504881627     A.U. after   13 cycles
 SCF Done:  E(RB3LYP) =  -538.505860299     A.U. after   13 cycles
 SCF Done:  E(RB3LYP) =  -538.506493531     A.U. after   12 cycles
 SCF Done:  E(RB3LYP) =  -538.512011111     A.U. after   12 cycles
 SCF Done:  E(RB3LYP) =  -538.512030291     A.U. after   11 cycles
 SCF Done:  E(RB3LYP) =  -538.512038783     A.U. after   11 cycles
 SCF Done:  E(RB3LYP) =  -538.512044074     A.U. after   10 cycles
 SCF Done:  E(RB3LYP) =  -538.512045109     A.U. after    8 cycles
 SCF Done:  E(RB3LYP) =  -538.512045616     A.U. after    7 cycles
 SCF Done:  E(RB3LYP) =  -538.512046099     A.U. after    7 cycles
 SCF Done:  E(RB3LYP) =  -538.512046337     A.U. after    7 cycles
 SCF Done:  E(RB3LYP) =  -538.512046464     A.U. after    6 cycles
 Optimization completed.
    -- Stationary point found.
 Normal termination of Gaussian 16 at Sat May 27 14:25:45 2023.

 ----------------------------------------------------------------------
 #N Geom=AllCheck Guess=TCheck SCRF=Check GenChk RB3LYP/6-31G(2df,p) Fr
 eq
 ----------------------------------------------------------------------

 Structure from the checkpoint file:  "CCCqCrCNqCrNdCCCdO.chk"
 -------------------
 Title Card Required
 -------------------
 Charge =  0 Multiplicity = 1

                         Standard orientation:
 ---------------------------------------------------------------------
 Center     Atomic      Atomic             Coordinates (Angstroms)
 Number     Number       Type             X           Y           Z
 ---------------------------------------------------------------------
      1          6           0       -5.047578   -0.166318   -0.335215
      2          6           0       -3.635283   -0.236085   -0.924197
      3          6           0       -2.504922    0.039446    0.084230
      4          6           0       -2.446546   -0.997998    1.211957
      5          6           0       -1.161094    0.113088   -0.664883
      6          7           0       -0.037857    0.528599    0.168447
      7          6           0        0.104771    1.934309    0.488027
      8          7           0        1.045990   -0.267108    0.091708
      9          6           0        2.191273    0.113751    0.530282
     10          6           0        3.367049   -0.821321    0.432983
     11          6           0        4.314479   -0.371439   -0.669426
     12          8           0        5.464279   -0.055506   -0.507640
     13          1           0       -5.802359   -0.310299   -1.114530
     14          1           0       -5.233928    0.808047    0.130770
     15          1           0       -5.211568   -0.934845    0.425897
     16          1           0       -3.557953    0.487614   -1.746416
     17          1           0       -3.475792   -1.224971   -1.376307
     18          1           0       -2.698270    1.025190    0.534120
     19          1           0       -2.351261   -2.011057    0.802470
     20          1           0       -3.344411   -0.971247    1.835268
     21          1           0       -1.582320   -0.818441    1.856916
     22          1           0       -1.259382    0.788919   -1.529805
     23          1           0       -0.896894   -0.873828   -1.053028
     24          1           0       -0.865795    2.422113    0.390695
     25          1           0        0.821962    2.433093   -0.184668
     26          1           0        0.452825    2.074834    1.517995
     27          1           0        2.378620    1.098808    0.959729
     28          1           0        2.993814   -1.818950    0.174313
     29          1           0        3.930612   -0.871382    1.370149
     30          1           0        3.838054   -0.334580   -1.676095
 ---------------------------------------------------------------------

 SCF Done:  E(RB3LYP) =  -538.512046464     A.U. after    1 cycles

 The electronic state is 1-A.
 Alpha  occ. eigenvalues --  -19.13508 -14.37229 -14.35832 -10.26661 -10.22049
 Alpha  occ. eigenvalues --  -10.21278 -10.20980 -10.19153 -10.19037 -10.18401
 Alpha  occ. eigenvalues --  -10.17669 -10.17109  -1.04175  -1.01107  -0.85483
 Alpha  occ. eigenvalues --   -0.80650  -0.75693  -0.73824  -0.70985  -0.66807
 Alpha  occ. eigenvalues --   -0.62547  -0.57822  -0.56248  -0.55052  -0.52802
 Alpha  occ. eigenvalues --   -0.48613  -0.47820  -0.46545  -0.45873  -0.43733
 Alpha  occ. eigenvalues --   -0.43111  -0.42121  -0.41879  -0.40833  -0.38943
 Alpha  occ. eigenvalues --   -0.38574  -0.38094  -0.37162  -0.35888  -0.35793
 Alpha  occ. eigenvalues --   -0.35091  -0.32624  -0.32573  -0.32354  -0.27216
 Alpha  occ. eigenvalues --   -0.24954  -0.20723
 Alpha virt. eigenvalues --   -0.02455   0.02764   0.07527   0.09632   0.11190
 Alpha virt. eigenvalues --    0.11845   0.12496   0.13389   0.13839   0.13904
 Alpha virt. eigenvalues --    0.14445   0.14907   0.15760   0.16097   0.16567

 Mulliken charges:
               1
     1  C   -0.391004
     2  C   -0.166724
     3  C    0.030816
     4  C   -0.385817
     5  C   -0.141038
     6  N    0.010581
     7  C   -0.344875
     8  N   -0.137809
     9  C   -0.048642
    10  C   -0.310675
    11  C    0.154952
    12  O   -0.237011
    13  H    0.113940
    14  H    0.112665
    15  H    0.121222
    16  H    0.091036
    17  H    0.096321
    18  H    0.067332
    19  H    0.112834
    20  H    0.112902
    21  H    0.123646
    22  H    0.089605
    23  H    0.120678
    24  H    0.132932
    25  H    0.120763
    26  H    0.134985
    27  H    0.091661
    28  H    0.129021
    29  H    0.118537
    30  H    0.077164
 Sum of Mulliken charges =  -0.00000

 Dipole moment (field-independent basis, Debye):
    X=             -3.6636    Y=              0.9845    Z=              0.1973  Tot=              3.7987
 Quadrupole moment (field-independent basis, Debye-Ang):
   XX=            -96.4977   YY=            -71.4611   ZZ=            -74.1297
   XY=             -1.9765   XZ=              3.0016   YZ=              1.3497

  Exact polarizability: 176.530  -3.861  99.886   6.094   0.205  97.515
 Approx polarizability: 221.720  -2.185 151.094  11.707   2.992 145.454

                      1                      2                      3
                      A                      A                      A
 Frequencies --     23.8668                34.0311                47.9889
 Red. masses --      4.1598                 4.3789                 3.6116
 Frc consts  --      0.0014                 0.0030                 0.0049
 IR Inten    --      0.7934                 1.3705                 1.9962

                      4                      5                      6
                      A                      A                      A
 Frequencies --     56.9326                83.6505               111.9995
 Red. masses --      4.0672                 2.0167                 2.5380
 Frc consts  --      0.0078                 0.0083                 0.0188
 IR Inten    --      1.7172                 1.9337                 4.1279

                      7                      8                      9
                      A                      A                      A
 Frequencies --    129.2927               205.1971               208.8284
 Red. masses --      2.2788                 2.0372                 1.8497
 Frc consts  --      0.0224                 0.0505                 0.0475
 IR Inten    --      2.4103                 2.7013                 3.6841

                     10                     11                     12
                      A                      A                      A
 Frequencies --    211.1346               247.8716               258.9775
 Red. masses --      1.2076                 1.7292                 1.3224
 Frc consts  --      0.0317                 0.0626                 0.0523
 IR Inten    --      1.3381                 1.4769                 0.6023

                     13                     14                     15
                      A                      A                      A
 Frequencies --    275.8588               312.0854               334.8414
 Red. masses --      2.1585                 2.7916                 2.6801
 Frc consts  --      0.0968                 0.1602                 0.1770
 IR Inten    --      6.2196                 1.7712                 9.4386

                     16                     17                     18
                      A                      A                      A
 Frequencies --    369.9557               414.7739               432.0324
 Red. masses --      3.9381                 2.1733                 2.2361
 Frc consts  --      0.3176                 0.2203                 0.2459
 IR Inten    --      1.5437                 1.2961                 1.6351

                     19                     20                     21
                      A                      A                      A
 Frequencies --    437.3919               491.8169               504.4946
 Red. masses --      2.6085                 2.3374                 2.9244
 Frc consts  --      0.2940                 0.3331                 0.4385
 IR Inten    --      8.3270                27.1233                 4.1227

                     22                     23                     24
                      A                      A                      A
 Frequencies --    631.5981               776.0144               814.2901
 Red. masses --      2.8650                 1.2864                 2.4664
 Frc consts  --      0.6734                 0.4564                 0.9635
 IR Inten    --      6.0272                 2.2984                 2.3652

                     25                     26                     27
                      A                      A                      A
 Frequencies --    829.9773               864.3358               881.2053
 Red. masses --      2.1005                 2.3348                 1.5142
 Frc consts  --      0.8525                 1.0277                 0.6928
 IR Inten    --      2.3830                20.9782                13.2446

                     28                     29                     30
                      A                      A                      A
 Frequencies --    901.2883               924.6071               967.9307
 Red. masses --      1.5816                 1.7717                 1.5939
 Frc consts  --      0.7569                 0.8924                 0.8798
 IR Inten    --      4.4955                 4.8182                 0.0625

                     31                     32                     33
                      A                      A                      A
 Frequencies --    978.9871              1012.6811              1047.0640
 Red. masses --      1.4368                 1.6363                 2.5586
 Frc consts  --      0.8113                 0.9887                 1.6527
 IR Inten    --     10.6921                17.0852                26.8586

                     34                     35                     36
                      A                      A                      A
 Frequencies --   1054.0671              1075.6348              1113.7702
 Red. masses --      2.8414                 1.8583                 2.4323
 Frc consts  --      1.8600                 1.2668                 1.7777
 IR Inten    --     43.5399                51.4524                14.5612

                     37                     38                     39
                      A                      A                      A
 Frequencies --   1122.8097              1134.8047              1153.4388
 Red. masses --      1.9612                 1.4085                 2.2144
 Frc consts  --      1.4568                 1.0687                 1.7358
 IR Inten    --     58.1358                25.0659                 3.5058

                     40                     41                     42
                      A                      A                      A
 Frequencies --   1180.1908              1216.6896              1231.6383
 Red. masses --      1.8808                 1.5913                 1.5812
 Frc consts  --      1.5435                 1.3879                 1.4132
 IR Inten    --      0.4858                 4.6256                46.2611

                     43                     44                     45
                      A                      A                      A
 Frequencies --   1278.0998              1293.1037              1301.2622
 Red. masses --      1.4513                 1.3321                 2.2233
 Frc consts  --      1.3968                 1.3124                 2.2181
 IR Inten    --      2.2213                17.0574                25.0123

                     46                     47                     48
                      A                      A                      A
 Frequencies --   1316.2420              1341.6644              1377.3034
 Red. masses --      1.1538                 1.7414                 1.3687
 Frc consts  --      1.1777                 1.8469                 1.5297
 IR Inten    --      4.8779                12.8021                 2.5652

                     49                     50                     51
                      A                      A                      A
 Frequencies --   1381.3923              1391.8616              1394.5009
 Red. masses --      1.3503                 1.4705                 1.5248
 Frc consts  --      1.5181                 1.6785                 1.7470
 IR Inten    --     12.6398                49.2963                30.0987

                     52                     53                     54
                      A                      A                      A
 Frequencies --   1412.7979              1414.1284              1416.9233
 Red. masses --      1.2964                 1.2244                 1.1752
 Frc consts  --      1.5246                 1.4426                 1.3901
 IR Inten    --      5.8009                 5.9079                 6.9190

                     55                     56                     57
                      A                      A                      A
 Frequencies --   1449.2411              1456.1138              1474.4057
 Red. masses --      1.1107                 1.2105                 1.0675
 Frc consts  --      1.3744                 1.5121                 1.3672
 IR Inten    --      4.3977                 3.6639                 5.4163

                     58                     59                     60
                      A                      A                      A
 Frequencies --   1480.9845              1487.1750              1496.0343
 Red. masses --      1.0656                 1.0646                 1.0539
 Frc consts  --      1.3770                 1.3873                 1.3897
 IR Inten    --      1.4452                 1.5824                 5.6240

                     61                     62                     63
                      A                      A                      A
 Frequencies --   1499.2030              1507.0600              1511.2038
 Red. masses --      1.0460                 1.0686                 1.0471
 Frc consts  --      1.3852                 1.4300                 1.4089
 IR Inten    --      2.6776                 5.9338                 3.5008

                     64                     65                     66
                      A                      A                      A
 Frequencies --   1515.1665              1662.3647              1831.2719
 Red. masses --      1.0739                 7.1340                 9.9149
 Frc consts  --      1.4525                11.6155                19.5904
 IR Inten    --     30.3834                42.1222               261.5774

                     67                     68                     69
                      A                      A                      A
 Frequencies --   2870.2498              2967.1822              2973.0441
 Red. masses --      1.0830                 1.0650                 1.0593
 Frc consts  --      5.2567                 5.5244                 5.5168
 IR Inten    --     90.5357                38.3939                57.3327

                     70                     71                     72
                      A                      A                      A
 Frequencies --   2987.7020              3008.1458              3031.2261
 Red. masses --      1.0805                 1.0598                 1.0401
 Frc consts  --      5.6825                 5.6502                 5.6305
 IR Inten    --     21.2073                35.8533                13.1290

                     73                     74                     75
                      A                      A                      A
 Frequencies --   3033.3265              3038.0481              3041.5220
 Red. masses --      1.0396                 1.0565                 1.0973
 Frc consts  --      5.6360                 5.7452                 5.9810
 IR Inten    --     29.4883                14.7037                30.3071

                     76                     77                     78
                      A                      A                      A
 Frequencies --   3052.5286              3096.1270              3097.5536
 Red. masses --      1.0867                 1.0969                 1.1000
 Frc consts  --      5.9658                 6.1952                 6.2184
 IR Inten    --     21.9297                12.2471                33.8533

                     79                     80                     81
                      A                      A                      A
 Frequencies --   3098.9298              3102.8369              3108.5170
 Red. masses --      1.0956                 1.0924                 1.1004
 Frc consts  --      6.1991                 6.1965                 6.2645
 IR Inten    --      8.3784                28.6293                40.8189

                     82                     83                     84
                      A                      A                      A
 Frequencies --   3110.1387              3119.4093              3137.0464
 Red. masses --      1.0928                 1.1011                 1.0960
 Frc consts  --      6.2281                 6.3127                 6.3546
 IR Inten    --     36.8602                25.7899                12.4717

 - Thermochemistry -
 -------------------
 Temperature   298.150 Kelvin.  Pressure   1.00000 Atm.
 Atom     1 has atomic number  6 and mass  12.00000

 Molecular mass:   170.14191 amu.
 Principal axes and moments of inertia in atomic units:
                           1         2         3
     Eigenvalues --   660.819676441.249526537.96177
           X            0.99999   0.00272   0.00410
           Y           -0.00272   1.00000   0.00033
           Z           -0.00410  -0.00034   0.99999
 This molecule is an asymmetric top.
 Rotational symmetry number  1.
 Warning -- assumption of classical behavior for rotation
           may cause significant error
 Rotational temperatures (Kelvin)      0.13107     0.01345     0.01325
 Rotational constants (GHZ):           2.73106     0.28018     0.27604
 Zero-point vibrational energy     691854.8 (Joules/Mol)
                                  165.35726 (Kcal/Mol)
 Warning -- explicit consideration of  21 degrees of freedom as
           vibrations may cause significant error
 Vibrational temperatures:     34.34    48.96    69.05    81.91   120.35
          (Kelvin)            161.14   186.02   295.23   300.46   303.78
                              356.63   372.61   396.90   449.02   481.76
                              532.28   596.77   621.60   629.31   707.61
                              725.86   908.73  1116.51  1171.58  1194.15
                             1243.59  1267.86  1296.75  1330.30  1392.64
                             1408.54  1457.02  1506.49  1516.57  1547.60
                             1602.47  1615.47  1632.73  1659.54  1698.03
                             1750.54  1772.05  1838.90  1860.49  1872.23
                             1893.78  1930.36  1981.63  1987.52  2002.58
                             2006.38  2032.70  2034.62  2038.64  2085.13
                             2095.02  2121.34  2130.81  2139.71  2152.46
                             2157.02  2168.32  2174.29  2179.99  2391.77
                             2634.79  4129.65  4269.11  4277.55  4298.64
                             4328.05  4361.26  4364.28  4371.07  4376.07
                             4391.91  4454.64  4456.69  4458.67  4464.29
                             4472.46  4474.80  4488.13  4513.51

 Zero-point correction=                           0.263514 (Hartree/Particle)
 Thermal correction to Energy=                    0.278506
 Thermal correction to Enthalpy=                  0.279450
 Thermal correction to Gibbs Free Energy=         0.219636
 Sum of electronic and zero-point Energies=           -538.248533
 Sum of electronic and thermal Energies=              -538.233540
 Sum of electronic and thermal Enthalpies=            -538.232596
 Sum of electronic and thermal Free Energies=         -538.292410

                     E (Thermal)             CV                S
                      KCal/Mol        Cal/Mol-Kelvin    Cal/Mol-Kelvin
 Total                  174.765             52.947            125.889
 Electronic               0.000              0.000              0.000
 Translational            0.889              2.981             41.302
 Rotational               0.889              2.981             31.698
 Vibrational            172.988             46.985             52.889
 Vibration     1          0.593              1.985              6.283
 Vibration     2          0.594              1.983              5.579
 Vibration     3          0.595              1.978              4.899
 Vibration     4          0.596              1.975              4.561
 Vibration     5          0.601              1.960              3.803
 Vibration     6          0.607              1.940              3.234
 Vibration     7          0.612              1.924              2.957
 Vibration     8          0.640              1.832              2.086
 Vibration     9          0.642              1.827              2.054
 Vibration    10          0.643              1.824              2.034
 Vibration    11          0.661              1.766              1.746
 Vibration    12          0.668              1.748              1.669
 Vibration    13          0.678              1.718              1.559
 Vibration    14          0.700              1.651              1.351
 Vibration    15          0.716              1.606              1.237
 Vibration    16          0.742              1.534              1.080
 Vibration    17          0.778              1.438              0.910
 Vibration    18          0.793              1.400              0.852
 Vibration    19          0.798              1.389              0.835
 Vibration    20          0.848              1.268              0.679
 Vibration    21          0.860              1.240              0.647

 Optimization completed.
    -- Stationary point found.
 Normal termination of Gaussian 16 at Sat May 27 15:34:00 2023.
