 Gaussian 16, Revision A.03,
 Gaussian 16:  ES64L-G16RevA.03 25-Dec-2016

 -----------------------------
 # opt freq b3lyp/6-31g(2df,p)
 -----------------------------

 -------------------
 Title Card Required
 -------------------
 Symbolic Z-matrix:
 Charge =  0 Multiplicity = 1

 SCF Done:  E(RB3LYP) =  -603.516841202     A.U. after   12 cycles
 SCF Done:  E(RB3LYP) =  -603.521242993     A.U. after   10 cycles
 SCF Done:  E(RB3LYP) =  -603.522767789     A.U. after   11 cycles
 SCF Done:  E(RB3LYP) =  -603.523234040     A.U. after   12 cycles
 SCF Done:  E(RB3LYP) =  -603.523408066     A.U. after   10 cycles
 SCF Done:  E(RB3LYP) =  -603.523440038     A.U. after    9 cycles
 SCF Done:  E(RB3LYP) =  -603.523457156     A.U. after    9 cycles
 SCF Done:  E(RB3LYP) =  -603.523457986     A.U. after    8 cycles
 SCF Done:  E(RB3LYP) =  -603.523459402     A.U. after    8 cycles
 SCF Done:  E(RB3LYP) =  -603.523459626     A.U. after    7 cycles
 SCF Done:  E(RB3LYP) =  -603.523459707     A.U. after    6 cycles
 Optimization completed.
    -- Stationary point found.
 Normal termination of Gaussian 16 at Mon May 22 07:59:45 2023.

 ----------------------------------------------------------------------
 #N Geom=AllCheck Guess=TCheck SCRF=Check GenChk RB3LYP/6-31G(2df,p) Fr
 eq
 ----------------------------------------------------------------------

 Structure from the checkpoint file:  "CCCqCrCCCONCqCrqCrCC.chk"
 -------------------
 Title Card Required
 -------------------
 Charge =  0 Multiplicity = 1

                         Standard orientation:
 ---------------------------------------------------------------------
 Center     Atomic      Atomic             Coordinates (Angstroms)
 Number     Number       Type             X           Y           Z
 ---------------------------------------------------------------------
      1          6           0        6.457178   -0.218367    0.077706
      2          6           0        5.079122   -0.650607   -0.433949
      3          6           0        3.888268    0.125978    0.161491
      4          6           0        3.928894    1.613899   -0.216581
      5          6           0        2.564215   -0.539545   -0.261479
      6          6           0        1.310085    0.011046    0.428029
      7          6           0        0.059495   -0.774808    0.053743
      8          8           0       -1.038587   -0.181687    0.732936
      9          7           0       -2.243676   -0.885520    0.388305
     10          6           0       -3.302307    0.094375    0.036609
     11          6           0       -3.504171    1.136968    1.151540
     12          6           0       -2.886307    0.780471   -1.271094
     13          6           0       -4.560857   -0.782002   -0.158775
     14          6           0       -5.838035   -0.041977   -0.568081
     15          1           0        7.243319   -0.862170   -0.329440
     16          1           0        6.510443   -0.281962    1.170654
     17          1           0        6.699214    0.810128   -0.206445
     18          1           0        4.941393   -1.717252   -0.214545
     19          1           0        5.050512   -0.562345   -1.529206
     20          1           0        3.960566    0.052328    1.257688
     21          1           0        3.853773    1.739875   -1.303979
     22          1           0        4.858971    2.087998    0.109128
     23          1           0        3.106256    2.171038    0.240168
     24          1           0        2.635733   -1.615801   -0.053296
     25          1           0        2.451682   -0.450356   -1.351760
     26          1           0        1.148879    1.062022    0.164298
     27          1           0        1.435645   -0.022973    1.517714
     28          1           0        0.160005   -1.830312    0.348407
     29          1           0       -0.111356   -0.753528   -1.031809
     30          1           0       -2.518508   -1.320311    1.271000
     31          1           0       -2.558368    1.636394    1.371535
     32          1           0       -3.860407    0.659325    2.072100
     33          1           0       -4.234771    1.898843    0.864155
     34          1           0       -1.935829    1.301692   -1.134451
     35          1           0       -3.630870    1.516958   -1.584741
     36          1           0       -2.765168    0.044386   -2.071657
     37          1           0       -4.752925   -1.320512    0.780244
     38          1           0       -4.322284   -1.547105   -0.906270
     39          1           0       -6.139969    0.698904    0.178254
     40          1           0       -6.664636   -0.750540   -0.679072
     41          1           0       -5.720349    0.474819   -1.525247
 ---------------------------------------------------------------------

 SCF Done:  E(RB3LYP) =  -603.523459707     A.U. after    1 cycles

 The electronic state is 1-A.
 Alpha  occ. eigenvalues --  -19.15114 -14.35171 -10.21414 -10.21235 -10.18127
 Alpha  occ. eigenvalues --  -10.17815 -10.17497 -10.17410 -10.17357 -10.17349
 Alpha  occ. eigenvalues --  -10.16938 -10.16720 -10.16386 -10.16386  -1.04907
 Alpha  occ. eigenvalues --   -0.86016  -0.81182  -0.77482  -0.74752  -0.72229
 Alpha  occ. eigenvalues --   -0.71016  -0.67995  -0.66371  -0.63087  -0.61175
 Alpha  occ. eigenvalues --   -0.57802  -0.55189  -0.54085  -0.49490  -0.47870
 Alpha  occ. eigenvalues --   -0.46538  -0.45547  -0.45233  -0.44125  -0.43208
 Alpha  occ. eigenvalues --   -0.41794  -0.41365  -0.40167  -0.39450  -0.38171
 Alpha  occ. eigenvalues --   -0.38016  -0.37486  -0.37185  -0.36785  -0.36081
 Alpha  occ. eigenvalues --   -0.35190  -0.34512  -0.34287  -0.33666  -0.32628
 Alpha  occ. eigenvalues --   -0.32048  -0.31510  -0.31434  -0.30908  -0.29974
 Alpha  occ. eigenvalues --   -0.25503  -0.22845
 Alpha virt. eigenvalues --    0.07583   0.08454   0.09748   0.11093   0.11515
 Alpha virt. eigenvalues --    0.11791   0.12331   0.13118   0.13316   0.14230
 Alpha virt. eigenvalues --    0.14870   0.15001   0.15810   0.16041   0.16258

 Mulliken charges:
               1
     1  C   -0.391601
     2  C   -0.165797
     3  C    0.044576
     4  C   -0.390463
     5  C   -0.180687
     6  C   -0.223310
     7  C   -0.022946
     8  O   -0.279476
     9  N   -0.226833
    10  C    0.294918
    11  C   -0.413512
    12  C   -0.396180
    13  C   -0.192569
    14  C   -0.398997
    15  H    0.110769
    16  H    0.112030
    17  H    0.117641
    18  H    0.089535
    19  H    0.090456
    20  H    0.066420
    21  H    0.108762
    22  H    0.113192
    23  H    0.115971
    24  H    0.089349
    25  H    0.091316
    26  H    0.106318
    27  H    0.100601
    28  H    0.085385
    29  H    0.088888
    30  H    0.222928
    31  H    0.133938
    32  H    0.098287
    33  H    0.111320
    34  H    0.123962
    35  H    0.110239
    36  H    0.112585
    37  H    0.083742
    38  H    0.105530
    39  H    0.119096
    40  H    0.114354
    41  H    0.120265
 Sum of Mulliken charges =  -0.00000

 Dipole moment (field-independent basis, Debye):
    X=             -0.2360    Y=             -0.1927    Z=              0.0804  Tot=              0.3152
 Quadrupole moment (field-independent basis, Debye-Ang):
   XX=            -86.9233   YY=            -92.0015   ZZ=            -91.0289
   XY=             -0.0379   XZ=             -1.0128   YZ=             -1.8944

  Exact polarizability: 189.975  -0.485 129.341   0.275  -0.620 125.122
 Approx polarizability: 208.591   0.699 193.974  -0.139  -1.687 193.251

                      1                      2                      3
                      A                      A                      A
 Frequencies --     22.6739                24.2356                42.2317
 Red. masses --      2.5335                 3.7099                 3.3285
 Frc consts  --      0.0008                 0.0013                 0.0035
 IR Inten    --      0.0149                 0.1253                 0.0414

                      4                      5                      6
                      A                      A                      A
 Frequencies --     63.2382                80.1673                83.7689
 Red. masses --      2.9762                 1.7082                 1.8878
 Frc consts  --      0.0070                 0.0065                 0.0078
 IR Inten    --      0.3732                 0.0129                 0.5502

                      7                      8                      9
                      A                      A                      A
 Frequencies --    103.3128               107.3770               136.8950
 Red. masses --      2.0227                 3.0516                 2.1424
 Frc consts  --      0.0127                 0.0207                 0.0237
 IR Inten    --      0.0192                 0.0249                 0.5058

                     10                     11                     12
                      A                      A                      A
 Frequencies --    181.6312               204.5009               210.5737
 Red. masses --      3.0072                 1.1244                 1.2612
 Frc consts  --      0.0585                 0.0277                 0.0330
 IR Inten    --      0.5373                 0.1775                 0.6076

                     13                     14                     15
                      A                      A                      A
 Frequencies --    215.7665               224.2742               257.2295
 Red. masses --      2.9046                 2.3900                 1.2488
 Frc consts  --      0.0797                 0.0708                 0.0487
 IR Inten    --      1.9499                 0.0894                 0.0083

                     16                     17                     18
                      A                      A                      A
 Frequencies --    260.3102               267.7056               297.7822
 Red. masses --      1.0697                 1.2283                 2.5848
 Frc consts  --      0.0427                 0.0519                 0.1350
 IR Inten    --      0.4652                 0.1401                 1.9280

                     19                     20                     21
                      A                      A                      A
 Frequencies --    322.9011               334.7827               370.4005
 Red. masses --      2.6124                 2.2613                 2.4031
 Frc consts  --      0.1605                 0.1493                 0.1943
 IR Inten    --      0.1979                 0.4326                 0.9956

                     22                     23                     24
                      A                      A                      A
 Frequencies --    379.5378               399.8060               430.1409
 Red. masses --      3.2190                 2.3734                 2.2882
 Frc consts  --      0.2732                 0.2235                 0.2494
 IR Inten    --      0.7474                 0.2608                 0.9689

                     25                     26                     27
                      A                      A                      A
 Frequencies --    453.1264               499.8118               541.5869
 Red. masses --      2.2896                 2.4857                 3.4884
 Frc consts  --      0.2770                 0.3659                 0.6029
 IR Inten    --      5.0757                 0.5947                12.2050

                     28                     29                     30
                      A                      A                      A
 Frequencies --    561.6997               739.1291               753.7204
 Red. masses --      2.7879                 3.2761                 1.1129
 Frc consts  --      0.5183                 1.0545                 0.3725
 IR Inten    --      0.7080                 1.2328                 0.6975

                     31                     32                     33
                      A                      A                      A
 Frequencies --    774.4191               789.0778               820.9614
 Red. masses --      1.3512                 1.1766                 1.7530
 Frc consts  --      0.4774                 0.4316                 0.6961
 IR Inten    --      3.1506                 1.7232                 0.2584

                     34                     35                     36
                      A                      A                      A
 Frequencies --    861.8191               864.1272               911.4862
 Red. masses --      2.1437                 1.5574                 2.1888
 Frc consts  --      0.9381                 0.6852                 1.0714
 IR Inten    --     13.1193                 3.0645                 2.1974

                     37                     38                     39
                      A                      A                      A
 Frequencies --    916.7268               929.7267               966.0818
 Red. masses --      1.9151                 1.6289                 2.4712
 Frc consts  --      0.9482                 0.8296                 1.3589
 IR Inten    --     42.4679                 0.1408                12.1557

                     40                     41                     42
                      A                      A                      A
 Frequencies --    970.4596               987.7236               994.6871
 Red. masses --      1.2561                 1.2592                 1.5554
 Frc consts  --      0.6970                 0.7238                 0.9067
 IR Inten    --      3.2506                 0.6840                 4.7533

                     43                     44                     45
                      A                      A                      A
 Frequencies --   1008.1193              1030.5370              1036.2868
 Red. masses --      1.6205                 2.0897                 2.1467
 Frc consts  --      0.9703                 1.3076                 1.3583
 IR Inten    --     19.7165                 2.9546                 1.2892

                     46                     47                     48
                      A                      A                      A
 Frequencies --   1039.9473              1061.7349              1068.6489
 Red. masses --      1.6142                 3.1610                 2.5347
 Frc consts  --      1.0286                 2.0994                 1.7055
 IR Inten    --      0.2107                52.0463                12.7981

                     49                     50                     51
                      A                      A                      A
 Frequencies --   1071.7279              1086.4676              1119.6095
 Red. masses --      2.0957                 1.9323                 1.9791
 Frc consts  --      1.4182                 1.3439                 1.4617
 IR Inten    --      7.9040                 8.9875                29.5917

                     52                     53                     54
                      A                      A                      A
 Frequencies --   1161.8605              1175.3059              1194.4974
 Red. masses --      2.6975                 1.8466                 1.8385
 Frc consts  --      2.1455                 1.5029                 1.5456
 IR Inten    --      8.8010                 7.0260                 0.9953

                     55                     56                     57
                      A                      A                      A
 Frequencies --   1206.1516              1226.9110              1243.4216
 Red. masses --      2.2669                 1.3536                 2.0760
 Frc consts  --      1.9431                 1.2005                 1.8911
 IR Inten    --     24.3275                 5.2669                18.5391

                     58                     59                     60
                      A                      A                      A
 Frequencies --   1267.9950              1279.7748              1291.8931
 Red. masses --      1.3261                 2.5634                 1.2031
 Frc consts  --      1.2562                 2.4737                 1.1831
 IR Inten    --      0.1114                 1.0692                 1.2464

                     61                     62                     63
                      A                      A                      A
 Frequencies --   1300.4606              1319.0231              1322.8650
 Red. masses --      1.1977                 1.1444                 1.3329
 Frc consts  --      1.1934                 1.1731                 1.3743
 IR Inten    --      0.4364                 0.8608                 2.8861

                     64                     65                     66
                      A                      A                      A
 Frequencies --   1327.8036              1367.3428              1377.6600
 Red. masses --      1.2314                 1.4574                 1.4051
 Frc consts  --      1.2791                 1.6054                 1.5712
 IR Inten    --      0.9137                 1.4013                 4.6107

                     67                     68                     69
                      A                      A                      A
 Frequencies --   1381.8824              1389.3980              1390.1292
 Red. masses --      1.2947                 1.4496                 1.3070
 Frc consts  --      1.4566                 1.6488                 1.4881
 IR Inten    --      1.1383                 4.0041                 7.5673

                     70                     71                     72
                      A                      A                      A
 Frequencies --   1406.6265              1412.2260              1413.9594
 Red. masses --      1.2886                 1.2744                 1.4163
 Frc consts  --      1.5022                 1.4975                 1.6683
 IR Inten    --      8.1313                 6.1208                20.5946

                     73                     74                     75
                      A                      A                      A
 Frequencies --   1415.4557              1417.1295              1472.5292
 Red. masses --      1.2398                 1.2526                 1.1184
 Frc consts  --      1.4636                 1.4821                 1.4288
 IR Inten    --      6.1824                 4.9186                 6.2747

                     76                     77                     78
                      A                      A                      A
 Frequencies --   1477.3087              1478.0158              1482.5035
 Red. masses --      1.0756                 1.0627                 1.0651
 Frc consts  --      1.3831                 1.3678                 1.3792
 IR Inten    --      0.3337                 1.6164                 0.0399

                     79                     80                     81
                      A                      A                      A
 Frequencies --   1488.0586              1495.8686              1496.7710
 Red. masses --      1.0696                 1.0604                 1.0445
 Frc consts  --      1.3955                 1.3980                 1.3787
 IR Inten    --      0.5362                 4.1291                 3.5359

                     82                     83                     84
                      A                      A                      A
 Frequencies --   1499.1304              1501.0150              1502.8528
 Red. masses --      1.0621                 1.0825                 1.0667
 Frc consts  --      1.4063                 1.4369                 1.4195
 IR Inten    --      1.4069                 0.6147                 3.7229

                     85                     86                     87
                      A                      A                      A
 Frequencies --   1508.0975              1509.2423              1509.4562
 Red. masses --      1.0690                 1.0649                 1.0620
 Frc consts  --      1.4324                 1.4291                 1.4257
 IR Inten    --      6.9561                 2.6722                 1.8080

                     88                     89                     90
                      A                      A                      A
 Frequencies --   1514.4024              1516.4123              1528.4791
 Red. masses --      1.0443                 1.0578                 1.0878
 Frc consts  --      1.4111                 1.4331                 1.4974
 IR Inten    --      4.1790                 6.9521                10.9093

                     91                     92                     93
                      A                      A                      A
 Frequencies --   2982.4304              2985.2171              2999.5650
 Red. masses --      1.0800                 1.0577                 1.0591
 Frc consts  --      5.6602                 5.5537                 5.6144
 IR Inten    --      8.9462                32.3151                11.5980

                     94                     95                     96
                      A                      A                      A
 Frequencies --   3005.0021              3009.2907              3020.0620
 Red. masses --      1.0660                 1.0603                 1.0993
 Frc consts  --      5.6717                 5.6575                 5.9076
 IR Inten    --     28.9306                48.8509                19.0947

                     97                     98                     99
                      A                      A                      A
 Frequencies --   3028.7153              3029.6756              3030.1906
 Red. masses --      1.0425                 1.0751                 1.0405
 Frc consts  --      5.6344                 5.8143                 5.6289
 IR Inten    --     20.0139                 8.9575                29.9554

                    100                    101                    102
                      A                      A                      A
 Frequencies --   3032.1804              3033.7398              3040.6951
 Red. masses --      1.0438                 1.0801                 1.0354
 Frc consts  --      5.6545                 5.8567                 5.6403
 IR Inten    --     37.0192                17.7169                21.0607

                    103                    104                    105
                      A                      A                      A
 Frequencies --   3044.3495              3045.5514              3059.6012
 Red. masses --      1.0991                 1.0367                 1.0941
 Frc consts  --      6.0015                 5.6656                 6.0343
 IR Inten    --     35.1257                15.5899                14.0965

                    106                    107                    108
                      A                      A                      A
 Frequencies --   3079.7010              3095.6949              3096.7636
 Red. masses --      1.1032                 1.1005                 1.0979
 Frc consts  --      6.1648                 6.2138                 6.2036
 IR Inten    --     58.2001                36.7167                25.9953

                    109                    110                    111
                      A                      A                      A
 Frequencies --   3096.9363              3105.0673              3105.1982
 Red. masses --      1.0962                 1.1006                 1.1000
 Frc consts  --      6.1942                 6.2521                 6.2492
 IR Inten    --     33.5584                25.7611                60.4599

                    112                    113                    114
                      A                      A                      A
 Frequencies --   3112.3093              3113.4943              3116.9081
 Red. masses --      1.1011                 1.1000                 1.1008
 Frc consts  --      6.2840                 6.2827                 6.3009
 IR Inten    --     40.7152                32.6306                24.4167

                    115                    116                    117
                      A                      A                      A
 Frequencies --   3124.7676              3131.5361              3420.8077
 Red. masses --      1.1007                 1.0994                 1.0748
 Frc consts  --      6.3321                 6.3520                 7.4105
 IR Inten    --     12.6276                27.2042                 3.8958

 - Thermochemistry -
 -------------------
 Temperature   298.150 Kelvin.  Pressure   1.00000 Atm.
 Atom     1 has atomic number  6 and mass  12.00000

 Molecular mass:   201.20926 amu.
 Principal axes and moments of inertia in atomic units:
                           1         2         3
     Eigenvalues --   794.99348********************
           X            1.00000  -0.00113   0.00105
           Y            0.00112   0.99996   0.00881
           Z           -0.00106  -0.00881   0.99996
 This molecule is an asymmetric top.
 Rotational symmetry number  1.
 Warning -- assumption of classical behavior for rotation
           may cause significant error
 Rotational temperatures (Kelvin)      0.10895     0.00811     0.00800
 Rotational constants (GHZ):           2.27013     0.16898     0.16662
 Zero-point vibrational energy     993475.1 (Joules/Mol)
                                  237.44624 (Kcal/Mol)
 Warning -- explicit consideration of  28 degrees of freedom as
           vibrations may cause significant error
 Vibrational temperatures:     32.62    34.87    60.76    90.99   115.34
          (Kelvin)            120.52   148.64   154.49   196.96   261.33
                              294.23   302.97   310.44   322.68   370.10
                              374.53   385.17   428.44   464.58   481.68
                              532.92   546.07   575.23   618.88   651.95
                              719.12   779.22   808.16  1063.44  1084.44
                             1114.22  1135.31  1181.18  1239.97  1243.29
                             1311.43  1318.97  1337.67  1389.98  1396.27
                             1421.11  1431.13  1450.46  1482.71  1490.99
                             1496.25  1527.60  1537.55  1541.98  1563.18
                             1610.87  1671.66  1691.00  1718.62  1735.38
                             1765.25  1789.01  1824.36  1841.31  1858.75
                             1871.07  1897.78  1903.31  1910.41  1967.30
                             1982.15  1988.22  1999.03  2000.09  2023.82
                             2031.88  2034.37  2036.53  2038.93  2118.64
                             2125.52  2126.54  2132.99  2140.98  2152.22
                             2153.52  2156.91  2159.63  2162.27  2169.82
                             2171.46  2171.77  2178.89  2181.78  2199.14
                             4291.05  4295.06  4315.70  4323.53  4329.70
                             4345.20  4357.65  4359.03  4359.77  4362.63
                             4364.87  4374.88  4380.14  4381.87  4402.08
                             4431.00  4454.01  4455.55  4455.80  4467.50
                             4467.69  4477.92  4479.62  4484.54  4495.84
                             4505.58  4921.78

 Zero-point correction=                           0.378395 (Hartree/Particle)
 Thermal correction to Energy=                    0.397265
 Thermal correction to Enthalpy=                  0.398209
 Thermal correction to Gibbs Free Energy=         0.329998
 Sum of electronic and zero-point Energies=           -603.145065
 Sum of electronic and thermal Energies=              -603.126195
 Sum of electronic and thermal Enthalpies=            -603.125251
 Sum of electronic and thermal Free Energies=         -603.193462

                     E (Thermal)             CV                S
                      KCal/Mol        Cal/Mol-Kelvin    Cal/Mol-Kelvin
 Total                  249.287             68.704            143.562
 Electronic               0.000              0.000              0.000
 Translational            0.889              2.981             41.802
 Rotational               0.889              2.981             32.886
 Vibrational            247.510             62.743             68.873
 Vibration     1          0.593              1.985              6.385
 Vibration     2          0.593              1.985              6.253
 Vibration     3          0.595              1.980              5.152
 Vibration     4          0.597              1.972              4.353
 Vibration     5          0.600              1.963              3.887
 Vibration     6          0.601              1.960              3.801
 Vibration     7          0.605              1.947              3.391
 Vibration     8          0.606              1.943              3.316
 Vibration     9          0.614              1.916              2.847
 Vibration    10          0.630              1.865              2.312
 Vibration    11          0.640              1.833              2.092
 Vibration    12          0.643              1.825              2.039
 Vibration    13          0.645              1.817              1.994
 Vibration    14          0.649              1.804              1.924
 Vibration    15          0.667              1.751              1.680
 Vibration    16          0.668              1.745              1.660
 Vibration    17          0.673              1.732              1.611
 Vibration    18          0.691              1.678              1.429
 Vibration    19          0.708              1.630              1.295
 Vibration    20          0.716              1.606              1.237
 Vibration    21          0.742              1.533              1.078
 Vibration    22          0.750              1.514              1.041
 Vibration    23          0.766              1.471              0.963
 Vibration    24          0.791              1.405              0.858
 Vibration    25          0.812              1.354              0.786
 Vibration    26          0.855              1.250              0.659
 Vibration    27          0.897              1.158              0.562
 Vibration    28          0.917              1.114              0.520

                           ! Non-Optimized Parameters !
 Normal termination of Gaussian 16 at Mon May 22 10:40:25 2023.
