 Gaussian 16, Revision A.03,
 Gaussian 16:  ES64L-G16RevA.03 25-Dec-2016

 -----------------------------
 # opt freq b3lyp/6-31g(2df,p)
 -----------------------------

 -------------------
 Title Card Required
 -------------------
 Symbolic Z-matrix:
 Charge =  0 Multiplicity = 1

 SCF Done:  E(RB3LYP) =  -877.716173215     A.U. after   15 cycles
 SCF Done:  E(RB3LYP) =  -877.724899247     A.U. after   13 cycles
 SCF Done:  E(RB3LYP) =  -877.726737060     A.U. after   14 cycles
 SCF Done:  E(RB3LYP) =  -877.727675931     A.U. after   14 cycles
 SCF Done:  E(RB3LYP) =  -877.726521514     A.U. after   13 cycles
 SCF Done:  E(RB3LYP) =  -877.728282538     A.U. after   12 cycles
 SCF Done:  E(RB3LYP) =  -877.728524258     A.U. after   12 cycles
 SCF Done:  E(RB3LYP) =  -877.728777343     A.U. after   12 cycles
 SCF Done:  E(RB3LYP) =  -877.729084379     A.U. after   12 cycles
 SCF Done:  E(RB3LYP) =  -877.729443240     A.U. after   12 cycles
 SCF Done:  E(RB3LYP) =  -877.729533834     A.U. after   12 cycles
 SCF Done:  E(RB3LYP) =  -877.729628041     A.U. after   12 cycles
 SCF Done:  E(RB3LYP) =  -877.729626140     A.U. after   11 cycles
 SCF Done:  E(RB3LYP) =  -877.729635356     A.U. after   11 cycles
 SCF Done:  E(RB3LYP) =  -877.729624781     A.U. after   11 cycles
 SCF Done:  E(RB3LYP) =  -877.729636566     A.U. after   11 cycles
 SCF Done:  E(RB3LYP) =  -877.729636459     A.U. after    8 cycles
 SCF Done:  E(RB3LYP) =  -877.729636623     A.U. after    8 cycles
 SCF Done:  E(RB3LYP) =  -877.729636681     A.U. after    7 cycles
 Optimization completed.
    -- Stationary point found.
 Normal termination of Gaussian 16 at Sat May 27 18:22:43 2023.

 ----------------------------------------------------------------------
 #N Geom=AllCheck Guess=TCheck SCRF=Check GenChk RB3LYP/6-31G(2df,p) Fr
 eq
 ----------------------------------------------------------------------

 Structure from the checkpoint file:  "CCCqdOrC1SCC1CdCCtN.chk"
 -------------------
 Title Card Required
 -------------------
 Charge =  0 Multiplicity = 1

                         Standard orientation:
 ---------------------------------------------------------------------
 Center     Atomic      Atomic             Coordinates (Angstroms)
 Number     Number       Type             X           Y           Z
 ---------------------------------------------------------------------
      1          6           0       -3.626624   -2.117191   -0.047055
      2          6           0       -2.725097   -1.079862   -0.711771
      3          6           0       -1.497151   -0.725586    0.107705
      4          8           0       -1.213306   -1.284653    1.142287
      5          6           0       -0.621808    0.393381   -0.447673
      6         16           0       -1.341698    2.099013   -0.206172
      7          6           0        0.391621    2.284971    0.417227
      8          6           0        0.629578    0.751855    0.397379
      9          6           0        1.935606    0.297830   -0.162361
     10          6           0        2.741582   -0.588767    0.434862
     11          6           0        3.977940   -1.016196   -0.128029
     12          7           0        4.986411   -1.373418   -0.572267
     13          1           0       -4.481095   -2.350211   -0.687825
     14          1           0       -4.003167   -1.749511    0.910870
     15          1           0       -3.077467   -3.040790    0.150704
     16          1           0       -3.272367   -0.151904   -0.926663
     17          1           0       -2.369518   -1.431580   -1.691211
     18          1           0       -0.412665    0.223245   -1.508089
     19          1           0        0.461933    2.758164    1.396650
     20          1           0        1.006278    2.833293   -0.299705
     21          1           0        0.478517    0.326438    1.391828
     22          1           0        2.231115    0.716318   -1.123145
     23          1           0        2.473290   -1.029131    1.391203
 ---------------------------------------------------------------------

 SCF Done:  E(RB3LYP) =  -877.729636681     A.U. after    1 cycles

 The electronic state is 1-A.
 Alpha  occ. eigenvalues --  -88.88983 -19.15007 -14.33387 -10.28707 -10.24376
 Alpha  occ. eigenvalues --  -10.23908 -10.23693 -10.23341 -10.22916 -10.22544
 Alpha  occ. eigenvalues --  -10.20816 -10.18616  -7.95291  -5.91755  -5.91482
 Alpha  occ. eigenvalues --   -5.90778  -1.06006  -0.90694  -0.88259  -0.82052
 Alpha  occ. eigenvalues --   -0.79356  -0.72896  -0.71620  -0.65708  -0.62969
 Alpha  occ. eigenvalues --   -0.58694  -0.55588  -0.52770  -0.50885  -0.47848
 Alpha  occ. eigenvalues --   -0.47621  -0.46587  -0.44074  -0.43388  -0.42184
 Alpha  occ. eigenvalues --   -0.40332  -0.38808  -0.37571  -0.37492  -0.37075
 Alpha  occ. eigenvalues --   -0.36205  -0.35770  -0.35606  -0.33500  -0.31439
 Alpha  occ. eigenvalues --   -0.28389  -0.26976  -0.24036
 Alpha virt. eigenvalues --   -0.06444  -0.04222   0.00251   0.02883   0.04339
 Alpha virt. eigenvalues --    0.08146   0.08755   0.09502   0.11148   0.11488
 Alpha virt. eigenvalues --    0.12822   0.13621   0.14582   0.15304   0.16168

 Mulliken charges:
               1
     1  C   -0.380446
     2  C   -0.289592
     3  C    0.381520
     4  O   -0.297688
     5  C   -0.123918
     6  S   -0.154843
     7  C   -0.241744
     8  C   -0.041348
     9  C   -0.038716
    10  C   -0.208772
    11  C    0.267474
    12  N   -0.320627
    13  H    0.115978
    14  H    0.135462
    15  H    0.135818
    16  H    0.141037
    17  H    0.128660
    18  H    0.119296
    19  H    0.143455
    20  H    0.136039
    21  H    0.122071
    22  H    0.122429
    23  H    0.148456
 Sum of Mulliken charges =  -0.00000

 Dipole moment (field-independent basis, Debye):
    X=             -3.2037    Y=              1.6499    Z=             -0.4999  Tot=              3.6381
 Quadrupole moment (field-independent basis, Debye-Ang):
   XX=           -100.8780   YY=            -79.9589   ZZ=            -77.3045
   XY=             12.0133   XZ=              8.4939   YZ=              2.1757

  Exact polarizability: 158.414 -16.071 119.344   1.350  -2.775  91.089
 Approx polarizability: 219.647 -38.590 182.923   2.182  -9.643 157.362

                      1                      2                      3
                      A                      A                      A
 Frequencies --     26.1276                40.0843                56.1343
 Red. masses --      4.8538                 3.8971                 2.4362
 Frc consts  --      0.0020                 0.0037                 0.0045
 IR Inten    --      1.2429                 1.8995                 0.3821

                      4                      5                      6
                      A                      A                      A
 Frequencies --     62.1799               104.7076               134.2195
 Red. masses --      3.8496                 3.7485                 4.2209
 Frc consts  --      0.0088                 0.0242                 0.0448
 IR Inten    --      3.5878                 7.3578                 3.3692

                      7                      8                      9
                      A                      A                      A
 Frequencies --    138.9799               183.0113               208.9228
 Red. masses --      3.6506                 2.0550                 1.8002
 Frc consts  --      0.0415                 0.0406                 0.0463
 IR Inten    --      3.5187                 1.0564                 0.7748

                     10                     11                     12
                      A                      A                      A
 Frequencies --    250.5512               290.1189               311.3900
 Red. masses --      4.1036                 3.5152                 7.0084
 Frc consts  --      0.1518                 0.1743                 0.4004
 IR Inten    --      2.2636                 3.3510                 5.1949

                     13                     14                     15
                      A                      A                      A
 Frequencies --    376.7053               401.6177               506.2601
 Red. masses --      5.1109                 3.4551                 3.0711
 Frc consts  --      0.4273                 0.3283                 0.4638
 IR Inten    --      6.6162                 0.3959                 0.3816

                     16                     17                     18
                      A                      A                      A
 Frequencies --    539.2019               546.9132               601.2717
 Red. masses --      4.9408                 4.5035                 5.8157
 Frc consts  --      0.8463                 0.7937                 1.2388
 IR Inten    --      4.8581                 2.4298                 8.7697

                     19                     20                     21
                      A                      A                      A
 Frequencies --    650.1101               703.3167               740.4281
 Red. masses --      3.2534                 3.8265                 3.2513
 Frc consts  --      0.8101                 1.1152                 1.0502
 IR Inten    --      6.2829                 2.9664                 1.5885

                     22                     23                     24
                      A                      A                      A
 Frequencies --    823.0683               841.1591               867.6333
 Red. masses --      1.7017                 2.0345                 2.2047
 Frc consts  --      0.6792                 0.8481                 0.9778
 IR Inten    --      4.1178                 0.8912                 0.3047

                     25                     26                     27
                      A                      A                      A
 Frequencies --    891.1776               952.8297               998.4240
 Red. masses --      2.6290                 2.3606                 2.2226
 Frc consts  --      1.2302                 1.2627                 1.3054
 IR Inten    --      7.6932                 2.3393                19.3989

                     28                     29                     30
                      A                      A                      A
 Frequencies --   1011.1206              1014.6991              1026.3571
 Red. masses --      1.2648                 2.4580                 1.6480
 Frc consts  --      0.7619                 1.4911                 1.0228
 IR Inten    --     14.3802                 4.3792                 3.3022

                     31                     32                     33
                      A                      A                      A
 Frequencies --   1062.9381              1078.8928              1091.5232
 Red. masses --      2.1358                 1.5941                 1.9524
 Frc consts  --      1.4218                 1.0932                 1.3705
 IR Inten    --     10.8264                 2.5798                 3.6194

                     34                     35                     36
                      A                      A                      A
 Frequencies --   1122.1946              1142.2309              1170.9395
 Red. masses --      1.8180                 1.8856                 1.9494
 Frc consts  --      1.3489                 1.4495                 1.5748
 IR Inten    --      8.3175                60.0836                 8.2733

                     37                     38                     39
                      A                      A                      A
 Frequencies --   1225.0873              1238.2965              1279.1567
 Red. masses --      1.2886                 1.2981                 1.2711
 Frc consts  --      1.1394                 1.1727                 1.2254
 IR Inten    --      7.8051                39.8713                 1.4247

                     40                     41                     42
                      A                      A                      A
 Frequencies --   1281.1530              1329.8599              1339.4656
 Red. masses --      1.1994                 1.3304                 1.3456
 Frc consts  --      1.1599                 1.3863                 1.4225
 IR Inten    --      3.8226                 4.8364                 2.0374

                     43                     44                     45
                      A                      A                      A
 Frequencies --   1375.3062              1395.6335              1415.0396
 Red. masses --      1.7549                 1.5200                 1.2222
 Frc consts  --      1.9556                 1.7443                 1.4419
 IR Inten    --     21.9975                 8.5331                 3.5993

                     46                     47                     48
                      A                      A                      A
 Frequencies --   1446.5614              1488.3182              1493.2110
 Red. masses --      1.0870                 1.1000                 1.0380
 Frc consts  --      1.3401                 1.4356                 1.3636
 IR Inten    --      9.8653                 1.7842                 6.0049

                     49                     50                     51
                      A                      A                      A
 Frequencies --   1498.3010              1694.6389              1800.3314
 Red. masses --      1.0504                 6.0791                11.3470
 Frc consts  --      1.3893                10.2859                21.6689
 IR Inten    --      8.1313                 9.8342                93.6091

                     52                     53                     54
                      A                      A                      A
 Frequencies --   2340.3807              3014.0231              3043.3193
 Red. masses --     12.6240                 1.0625                 1.0959
 Frc consts  --     40.7399                 5.6870                 5.9799
 IR Inten    --     19.7671                15.5323                 5.6963

                     55                     56                     57
                      A                      A                      A
 Frequencies --   3053.7177              3061.3607              3073.4804
 Red. masses --      1.0352                 1.0847                 1.0581
 Frc consts  --      5.6875                 5.9894                 5.8888
 IR Inten    --     21.9193                11.6094                25.3900

                     58                     59                     60
                      A                      A                      A
 Frequencies --   3093.4687              3125.7160              3130.5731
 Red. masses --      1.0844                 1.1023                 1.1019
 Frc consts  --      6.1143                 6.3453                 6.3627
 IR Inten    --      1.5176                18.4281                15.6081

                     61                     62                     63
                      A                      A                      A
 Frequencies --   3138.1154              3150.1132              3172.2936
 Red. masses --      1.1085                 1.0909                 1.0872
 Frc consts  --      6.4318                 6.3779                 6.4460
 IR Inten    --      6.5791                 5.2749                 2.8392

 - Thermochemistry -
 -------------------
 Temperature   298.150 Kelvin.  Pressure   1.00000 Atm.
 Atom     1 has atomic number  6 and mass  12.00000

 Molecular mass:   181.05614 amu.
 Principal axes and moments of inertia in atomic units:
                           1         2         3
     Eigenvalues --  1604.745924186.463745386.02372
           X            0.99887   0.04680   0.00843
           Y           -0.04688   0.99885   0.00968
           Z           -0.00796  -0.01006   0.99992
 This molecule is an asymmetric top.
 Rotational symmetry number  1.
 Warning -- assumption of classical behavior for rotation
           may cause significant error
 Rotational temperatures (Kelvin)      0.05397     0.02069     0.01608
 Rotational constants (GHZ):           1.12463     0.43109     0.33508
 Zero-point vibrational energy     476498.7 (Joules/Mol)
                                  113.88592 (Kcal/Mol)
 Warning -- explicit consideration of  18 degrees of freedom as
           vibrations may cause significant error
 Vibrational temperatures:     37.59    57.67    80.76    89.46   150.65
          (Kelvin)            193.11   199.96   263.31   300.59   360.49
                              417.42   448.02   541.99   577.84   728.40
                              775.79   786.89   865.10   935.36  1011.92
                             1065.31  1184.21  1210.24  1248.33  1282.21
                             1370.91  1436.51  1454.78  1459.93  1476.70
                             1529.33  1552.29  1570.46  1614.59  1643.42
                             1684.72  1762.63  1781.63  1840.42  1843.29
                             1913.37  1927.19  1978.76  2008.01  2035.93
                             2081.28  2141.36  2148.40  2155.72  2438.21
                             2590.28  3367.29  4336.51  4378.66  4393.62
                             4404.62  4422.05  4450.81  4497.21  4504.20
                             4515.05  4532.31  4564.22

 Zero-point correction=                           0.181489 (Hartree/Particle)
 Thermal correction to Energy=                    0.194670
 Thermal correction to Enthalpy=                  0.195615
 Thermal correction to Gibbs Free Energy=         0.139217
 Sum of electronic and zero-point Energies=           -877.548148
 Sum of electronic and thermal Energies=              -877.534966
 Sum of electronic and thermal Enthalpies=            -877.534022
 Sum of electronic and thermal Free Energies=         -877.590419

                     E (Thermal)             CV                S
                      KCal/Mol        Cal/Mol-Kelvin    Cal/Mol-Kelvin
 Total                  122.158             45.951            118.698
 Electronic               0.000              0.000              0.000
 Translational            0.889              2.981             41.488
 Rotational               0.889              2.981             31.959
 Vibrational            120.380             39.989             45.251
 Vibration     1          0.593              1.985              6.104
 Vibration     2          0.594              1.981              5.255
 Vibration     3          0.596              1.975              4.589
 Vibration     4          0.597              1.972              4.387
 Vibration     5          0.605              1.945              3.365
 Vibration     6          0.613              1.919              2.885
 Vibration     7          0.615              1.914              2.818
 Vibration     8          0.631              1.863              2.297
 Vibration     9          0.642              1.827              2.053
 Vibration    10          0.663              1.762              1.727
 Vibration    11          0.686              1.692              1.473
 Vibration    12          0.700              1.652              1.355
 Vibration    13          0.747              1.520              1.052
 Vibration    14          0.767              1.467              0.957
 Vibration    15          0.861              1.236              0.643
 Vibration    16          0.894              1.163              0.567
 Vibration    17          0.902              1.146              0.551
 Vibration    18          0.959              1.029              0.447

 Optimization completed on the basis of negligible forces.
    -- Stationary point found.
 Normal termination of Gaussian 16 at Sat May 27 19:11:58 2023.
