 Gaussian 16, Revision A.03,
 Gaussian 16:  ES64L-G16RevA.03 25-Dec-2016

 -----------------------------
 # opt freq b3lyp/6-31g(2df,p)
 -----------------------------

 -------------------
 Title Card Required
 -------------------
 Symbolic Z-matrix:
 Charge =  0 Multiplicity = 1

 SCF Done:  E(RB3LYP) =  -584.097946788     A.U. after   12 cycles
 SCF Done:  E(RB3LYP) =  -584.104576910     A.U. after   11 cycles
 SCF Done:  E(RB3LYP) =  -584.106019418     A.U. after   10 cycles
 SCF Done:  E(RB3LYP) =  -584.106538330     A.U. after   10 cycles
 SCF Done:  E(RB3LYP) =  -584.106880735     A.U. after   10 cycles
 SCF Done:  E(RB3LYP) =  -584.107040984     A.U. after   10 cycles
 SCF Done:  E(RB3LYP) =  -584.107160241     A.U. after    9 cycles
 SCF Done:  E(RB3LYP) =  -584.107230186     A.U. after   10 cycles
 SCF Done:  E(RB3LYP) =  -584.107248783     A.U. after    8 cycles
 SCF Done:  E(RB3LYP) =  -584.107251869     A.U. after    8 cycles
 SCF Done:  E(RB3LYP) =  -584.107252419     A.U. after    6 cycles
 SCF Done:  E(RB3LYP) =  -584.107252616     A.U. after    7 cycles
 SCF Done:  E(RB3LYP) =  -584.107252692     A.U. after    6 cycles
 SCF Done:  E(RB3LYP) =  -584.107252730     A.U. after    5 cycles
 Optimization completed.
    -- Stationary point found.
 Normal termination of Gaussian 16 at Wed May 24 12:47:31 2023.

 ----------------------------------------------------------------------
 #N Geom=AllCheck Guess=TCheck SCRF=Check GenChk RB3LYP/6-31G(2df,p) Fr
 eq
 ----------------------------------------------------------------------

 Structure from the checkpoint file:  "CCCqCOrCCCqCrCqCrOC.chk"
 -------------------
 Title Card Required
 -------------------
 Charge =  0 Multiplicity = 1

                         Standard orientation:
 ---------------------------------------------------------------------
 Center     Atomic      Atomic             Coordinates (Angstroms)
 Number     Number       Type             X           Y           Z
 ---------------------------------------------------------------------
      1          6           0        4.828216   -0.824772    0.611085
      2          6           0        3.482006   -1.182804   -0.029285
      3          6           0        2.362395   -0.132553    0.119553
      4          6           0        2.659433    1.169525   -0.645870
      5          8           0        3.728177    1.946317   -0.121540
      6          6           0        1.004966   -0.712699   -0.341436
      7          6           0       -0.220414   -0.002384    0.254203
      8          6           0       -1.571282   -0.460271   -0.329951
      9          6           0       -1.786926   -1.973640   -0.176673
     10          6           0       -2.758664    0.308146    0.288337
     11          6           0       -2.630478    1.832877    0.210572
     12          8           0       -3.924226   -0.121466   -0.414206
     13          6           0       -5.130254    0.008102    0.298044
     14          1           0        5.542210   -1.645779    0.487505
     15          1           0        4.713475   -0.649398    1.687633
     16          1           0        5.255240    0.079195    0.174732
     17          1           0        3.124673   -2.123761    0.408633
     18          1           0        3.626516   -1.388438   -1.099487
     19          1           0        2.273570    0.122078    1.189143
     20          1           0        1.746105    1.779926   -0.714267
     21          1           0        2.954278    0.924650   -1.673513
     22          1           0        3.504583    2.177143    0.785706
     23          1           0        0.972202   -1.773781   -0.074845
     24          1           0        0.952044   -0.677819   -1.439670
     25          1           0       -0.113584    1.076659    0.104942
     26          1           0       -0.225975   -0.161153    1.343051
     27          1           0       -1.578717   -0.219567   -1.403229
     28          1           0       -1.690880   -2.277029    0.873750
     29          1           0       -1.057691   -2.546405   -0.755275
     30          1           0       -2.785006   -2.248791   -0.520979
     31          1           0       -2.852210    0.008861    1.347733
     32          1           0       -2.417256    2.148615   -0.815987
     33          1           0       -1.837414    2.206556    0.863335
     34          1           0       -3.560904    2.314072    0.525070
     35          1           0       -5.922123   -0.406548   -0.331418
     36          1           0       -5.383629    1.054685    0.524439
     37          1           0       -5.105111   -0.549946    1.247499
 ---------------------------------------------------------------------

 SCF Done:  E(RB3LYP) =  -584.107252730     A.U. after    1 cycles

 The electronic state is 1-A.
 Alpha  occ. eigenvalues --  -19.13415 -19.13254 -10.22853 -10.22183 -10.22112
 Alpha  occ. eigenvalues --  -10.18373 -10.18261 -10.17882 -10.17809 -10.17452
 Alpha  occ. eigenvalues --  -10.17316 -10.16362 -10.16159  -1.02655  -1.01255
 Alpha  occ. eigenvalues --   -0.81985  -0.79463  -0.74518  -0.72273  -0.69468
 Alpha  occ. eigenvalues --   -0.67725  -0.64815  -0.61991  -0.59007  -0.56844
 Alpha  occ. eigenvalues --   -0.55572  -0.49728  -0.48927  -0.47002  -0.46555
 Alpha  occ. eigenvalues --   -0.45161  -0.44635  -0.42637  -0.42030  -0.41174
 Alpha  occ. eigenvalues --   -0.40796  -0.39752  -0.39161  -0.38537  -0.38101
 Alpha  occ. eigenvalues --   -0.36447  -0.35650  -0.35116  -0.34073  -0.33651
 Alpha  occ. eigenvalues --   -0.32972  -0.31961  -0.31830  -0.31670  -0.30409
 Alpha  occ. eigenvalues --   -0.29492  -0.25646  -0.24989
 Alpha virt. eigenvalues --    0.07492   0.08114   0.09322   0.10313   0.11367
 Alpha virt. eigenvalues --    0.11890   0.12589   0.13205   0.13276   0.14916
 Alpha virt. eigenvalues --    0.15109   0.15399   0.16147   0.16684   0.17331

 Mulliken charges:
               1
     1  C   -0.393158
     2  C   -0.174259
     3  C    0.003503
     4  C   -0.057230
     5  O   -0.417261
     6  C   -0.213065
     7  C   -0.210357
     8  C    0.019577
     9  C   -0.403478
    10  C    0.143697
    11  C   -0.409676
    12  O   -0.246104
    13  C   -0.237579
    14  H    0.103209
    15  H    0.100122
    16  H    0.141611
    17  H    0.088854
    18  H    0.092609
    19  H    0.054194
    20  H    0.087276
    21  H    0.108942
    22  H    0.278793
    23  H    0.098389
    24  H    0.093280
    25  H    0.097437
    26  H    0.088645
    27  H    0.077311
    28  H    0.101694
    29  H    0.112757
    30  H    0.129508
    31  H    0.057026
    32  H    0.120807
    33  H    0.117143
    34  H    0.114125
    35  H    0.125390
    36  H    0.103809
    37  H    0.102458
 Sum of Mulliken charges =  -0.00000

 Dipole moment (field-independent basis, Debye):
    X=             -1.3884    Y=              0.0953    Z=              1.6343  Tot=              2.1466
 Quadrupole moment (field-independent basis, Debye-Ang):
   XX=            -90.3449   YY=            -85.7388   ZZ=            -82.6463
   XY=             -4.3956   XZ=             -0.9876   YZ=              2.6003

  Exact polarizability: 161.460  -1.461 122.744   0.873   1.210 108.767
 Approx polarizability: 183.199   1.117 172.945   0.240   2.143 177.132

                      1                      2                      3
                      A                      A                      A
 Frequencies --     26.0007                35.6866                54.6376
 Red. masses --      3.1413                 3.4214                 3.4823
 Frc consts  --      0.0013                 0.0026                 0.0061
 IR Inten    --      0.0841                 0.0599                 0.2451

                      4                      5                      6
                      A                      A                      A
 Frequencies --     67.7115                83.4397                86.1638
 Red. masses --      2.3079                 2.2848                 2.0088
 Frc consts  --      0.0062                 0.0094                 0.0088
 IR Inten    --      0.1459                 1.7223                 1.5181

                      7                      8                      9
                      A                      A                      A
 Frequencies --    126.8161               133.9117               178.4232
 Red. masses --      1.9740                 2.3185                 1.8845
 Frc consts  --      0.0187                 0.0245                 0.0353
 IR Inten    --      0.0669                 1.2173                 0.7913

                     10                     11                     12
                      A                      A                      A
 Frequencies --    194.5656               207.8785               226.9801
 Red. masses --      1.6749                 1.6622                 1.4096
 Frc consts  --      0.0374                 0.0423                 0.0428
 IR Inten    --      1.2206                 0.4796                 0.5406

                     13                     14                     15
                      A                      A                      A
 Frequencies --    234.3393               259.2244               269.1063
 Red. masses --      1.2311                 1.5177                 2.1443
 Frc consts  --      0.0398                 0.0601                 0.0915
 IR Inten    --      0.8548                 0.0820                 0.4543

                     16                     17                     18
                      A                      A                      A
 Frequencies --    289.7467               293.6481               321.3234
 Red. masses --      2.5490                 1.2228                 2.5137
 Frc consts  --      0.1261                 0.0621                 0.1529
 IR Inten    --      2.2510                98.6603                 3.4620

                     19                     20                     21
                      A                      A                      A
 Frequencies --    347.1545               380.2622               396.7740
 Red. masses --      2.9972                 2.6011                 2.5520
 Frc consts  --      0.2128                 0.2216                 0.2367
 IR Inten    --      8.0156                 0.0326                 0.9487

                     22                     23                     24
                      A                      A                      A
 Frequencies --    423.6140               476.8782               491.1461
 Red. masses --      2.0799                 2.9091                 2.7435
 Frc consts  --      0.2199                 0.3898                 0.3899
 IR Inten    --      8.7681                 4.3625                 1.0925

                     25                     26                     27
                      A                      A                      A
 Frequencies --    515.8729               585.5304               755.3961
 Red. masses --      2.8021                 2.6513                 1.2783
 Frc consts  --      0.4394                 0.5356                 0.4298
 IR Inten    --      3.9919                 2.0593                 2.5461

                     28                     29                     30
                      A                      A                      A
 Frequencies --    779.9910               824.8031               833.6685
 Red. masses --      1.2626                 1.9139                 2.0051
 Frc consts  --      0.4526                 0.7671                 0.8211
 IR Inten    --      6.6718                 0.4083                 1.9356

                     31                     32                     33
                      A                      A                      A
 Frequencies --    867.4031               916.3032               921.7184
 Red. masses --      2.6190                 1.5219                 2.0603
 Frc consts  --      1.1610                 0.7529                 1.0313
 IR Inten    --      5.6358                10.2320                 8.8223

                     34                     35                     36
                      A                      A                      A
 Frequencies --    953.3583               983.4505               995.4068
 Red. masses --      1.3117                 1.2761                 1.8325
 Frc consts  --      0.7024                 0.7272                 1.0698
 IR Inten    --      9.6222                 3.9645                 9.2718

                     37                     38                     39
                      A                      A                      A
 Frequencies --   1005.8847              1037.4283              1054.9194
 Red. masses --      3.3488                 2.9158                 1.7415
 Frc consts  --      1.9963                 1.8490                 1.1419
 IR Inten    --      1.5054                11.9802                 4.5885

                     40                     41                     42
                      A                      A                      A
 Frequencies --   1065.5973              1073.4336              1097.8503
 Red. masses --      2.5484                 3.4781                 2.0409
 Frc consts  --      1.7049                 2.3613                 1.4493
 IR Inten    --     36.1265                60.4545                 6.9586

                     43                     44                     45
                      A                      A                      A
 Frequencies --   1119.6599              1120.9260              1140.6026
 Red. masses --      2.4952                 1.3307                 2.4147
 Frc consts  --      1.8430                 0.9851                 1.8509
 IR Inten    --     23.8870                 3.0744                45.2529

                     46                     47                     48
                      A                      A                      A
 Frequencies --   1146.5944              1159.4098              1180.6917
 Red. masses --      2.8132                 2.2988                 1.4409
 Frc consts  --      2.1790                 1.8206                 1.1835
 IR Inten    --    108.5252                 1.8604                 3.5710

                     49                     50                     51
                      A                      A                      A
 Frequencies --   1187.2139              1199.4833              1228.4610
 Red. masses --      1.5967                 1.7591                 1.6597
 Frc consts  --      1.3260                 1.4912                 1.4757
 IR Inten    --      5.3002                49.0948                12.8385

                     52                     53                     54
                      A                      A                      A
 Frequencies --   1247.7759              1279.8210              1294.5688
 Red. masses --      1.4846                 1.2086                 1.3542
 Frc consts  --      1.3618                 1.1664                 1.3372
 IR Inten    --      4.1192                 2.2592                 3.3223

                     55                     56                     57
                      A                      A                      A
 Frequencies --   1313.2153              1324.5494              1337.6772
 Red. masses --      1.1680                 1.2066                 1.2840
 Frc consts  --      1.1867                 1.2473                 1.3537
 IR Inten    --      2.4907                 1.2427                 8.7387

                     58                     59                     60
                      A                      A                      A
 Frequencies --   1355.5280              1364.2919              1371.8286
 Red. masses --      1.2882                 1.2799                 1.2438
 Frc consts  --      1.3946                 1.4036                 1.3791
 IR Inten    --      2.4827                 7.6270                 8.2647

                     61                     62                     63
                      A                      A                      A
 Frequencies --   1382.3418              1387.8034              1397.8441
 Red. masses --      1.4364                 1.4425                 1.3141
 Frc consts  --      1.6172                 1.6368                 1.5128
 IR Inten    --      1.1581                 8.8931                 8.7239

                     64                     65                     66
                      A                      A                      A
 Frequencies --   1401.1896              1403.5606              1409.0262
 Red. masses --      1.2648                 1.3037                 1.2756
 Frc consts  --      1.4630                 1.5132                 1.4921
 IR Inten    --      5.8099                23.4507                 2.7125

                     67                     68                     69
                      A                      A                      A
 Frequencies --   1416.1134              1424.1102              1477.5286
 Red. masses --      1.2454                 1.2955                 1.0945
 Frc consts  --      1.4715                 1.5480                 1.4077
 IR Inten    --      2.8578                28.2355                 1.1122

                     70                     71                     72
                      A                      A                      A
 Frequencies --   1479.3616              1485.2458              1485.6466
 Red. masses --      1.0815                 1.0716                 1.0871
 Frc consts  --      1.3945                 1.3927                 1.4137
 IR Inten    --      0.6863                 3.9292                 0.6110

                     73                     74                     75
                      A                      A                      A
 Frequencies --   1493.0095              1496.0935              1497.4689
 Red. masses --      1.0529                 1.0583                 1.0416
 Frc consts  --      1.3828                 1.3957                 1.3762
 IR Inten    --      2.9984                 1.7547                 6.3412

                     76                     77                     78
                      A                      A                      A
 Frequencies --   1501.4847              1504.6424              1505.6231
 Red. masses --      1.0791                 1.0611                 1.0838
 Frc consts  --      1.4333                 1.4153                 1.4475
 IR Inten    --      4.6289                 3.5535                 1.7760

                     79                     80                     81
                      A                      A                      A
 Frequencies --   1512.4308              1513.3694              1514.2896
 Red. masses --      1.0648                 1.0509                 1.0616
 Frc consts  --      1.4350                 1.4181                 1.4343
 IR Inten    --     10.1456                 7.6544                 1.9973

                     82                     83                     84
                      A                      A                      A
 Frequencies --   2940.0249              2962.2196              2973.0392
 Red. masses --      1.0805                 1.0806                 1.0383
 Frc consts  --      5.5026                 5.5869                 5.4074
 IR Inten    --     25.6471                16.7891                70.4881

                     85                     86                     87
                      A                      A                      A
 Frequencies --   2984.5457              2994.1875              3001.6645
 Red. masses --      1.0666                 1.0723                 1.0707
 Frc consts  --      5.5979                 5.6638                 5.6840
 IR Inten    --     66.4767                 4.2261                 1.2160

                     88                     89                     90
                      A                      A                      A
 Frequencies --   3006.1544              3012.5923              3018.2589
 Red. masses --      1.0660                 1.0693                 1.1008
 Frc consts  --      5.6756                 5.7176                 5.9085
 IR Inten    --     12.9919                75.2214                49.2545

                     91                     92                     93
                      A                      A                      A
 Frequencies --   3028.4665              3029.2272              3040.3701
 Red. masses --      1.0495                 1.0455                 1.0906
 Frc consts  --      5.6713                 5.6527                 5.9397
 IR Inten    --     24.1260                36.5258                24.8716

                     94                     95                     96
                      A                      A                      A
 Frequencies --   3041.3947              3055.8825              3061.0115
 Red. masses --      1.0377                 1.0927                 1.0906
 Frc consts  --      5.6556                 6.0121                 6.0208
 IR Inten    --     18.0421                32.1359                13.7975

                     97                     98                     99
                      A                      A                      A
 Frequencies --   3080.9262              3087.8275              3102.3528
 Red. masses --      1.0954                 1.0995                 1.0921
 Frc consts  --      6.1259                 6.1766                 6.1932
 IR Inten    --     72.5786                48.3463                28.4312

                    100                    101                    102
                      A                      A                      A
 Frequencies --   3106.1602              3110.6885              3118.9947
 Red. masses --      1.0958                 1.1008                 1.1001
 Frc consts  --      6.2292                 6.2756                 6.3056
 IR Inten    --     34.6214                31.1700                26.7294

                    103                    104                    105
                      A                      A                      A
 Frequencies --   3137.6778              3142.2856              3815.6733
 Red. masses --      1.0991                 1.0976                 1.0660
 Frc consts  --      6.3755                 6.3852                 9.1446
 IR Inten    --     18.5723                12.7592                14.3515

 - Thermochemistry -
 -------------------
 Temperature   298.150 Kelvin.  Pressure   1.00000 Atm.
 Atom     1 has atomic number  6 and mass  12.00000

 Molecular mass:   188.17763 amu.
 Principal axes and moments of inertia in atomic units:
                           1         2         3
     Eigenvalues --  1063.402506891.375907655.03658
           X            0.99995  -0.01028  -0.00178
           Y            0.01029   0.99992   0.00742
           Z            0.00171  -0.00743   0.99997
 This molecule is an asymmetric top.
 Rotational symmetry number  1.
 Warning -- assumption of classical behavior for rotation
           may cause significant error
 Rotational temperatures (Kelvin)      0.08145     0.01257     0.01131
 Rotational constants (GHZ):           1.69714     0.26188     0.23576
 Zero-point vibrational energy     889935.3 (Joules/Mol)
                                  212.69963 (Kcal/Mol)
 Warning -- explicit consideration of  26 degrees of freedom as
           vibrations may cause significant error
 Vibrational temperatures:     37.41    51.35    78.61    97.42   120.05
          (Kelvin)            123.97   182.46   192.67   256.71   279.94
                              299.09   326.57   337.16   372.97   387.18
                              416.88   422.49   462.31   499.48   547.11
                              570.87   609.49   686.12   706.65   742.23
                              842.45  1086.85  1122.23  1186.71  1199.46
                             1248.00  1318.36  1326.15  1371.67  1414.97
                             1432.17  1447.24  1492.63  1517.79  1533.16
                             1544.43  1579.56  1610.94  1612.76  1641.07
                             1649.69  1668.13  1698.75  1708.14  1725.79
                             1767.48  1795.27  1841.38  1862.60  1889.42
                             1905.73  1924.62  1950.30  1962.91  1973.76
                             1988.88  1996.74  2011.19  2016.00  2019.41
                             2027.27  2037.47  2048.98  2125.83  2128.47
                             2136.94  2137.51  2148.11  2152.54  2154.52
                             2160.30  2164.84  2166.26  2176.05  2177.40
                             2178.73  4230.04  4261.97  4277.54  4294.10
                             4307.97  4318.73  4325.19  4334.45  4342.60
                             4357.29  4358.38  4374.41  4375.89  4396.73
                             4404.11  4432.77  4442.69  4463.59  4469.07
                             4475.59  4487.54  4514.42  4521.05  5489.90

 Zero-point correction=                           0.338958 (Hartree/Particle)
 Thermal correction to Energy=                    0.356299
 Thermal correction to Enthalpy=                  0.357243
 Thermal correction to Gibbs Free Energy=         0.292969
 Sum of electronic and zero-point Energies=           -583.768294
 Sum of electronic and thermal Energies=              -583.750954
 Sum of electronic and thermal Enthalpies=            -583.750009
 Sum of electronic and thermal Free Energies=         -583.814283

                     E (Thermal)             CV                S
                      KCal/Mol        Cal/Mol-Kelvin    Cal/Mol-Kelvin
 Total                  223.581             62.498            135.276
 Electronic               0.000              0.000              0.000
 Translational            0.889              2.981             41.603
 Rotational               0.889              2.981             32.395
 Vibrational            221.804             56.537             61.279
 Vibration     1          0.593              1.985              6.113
 Vibration     2          0.594              1.982              5.485
 Vibration     3          0.596              1.976              4.642
 Vibration     4          0.598              1.970              4.219
 Vibration     5          0.600              1.961              3.808
 Vibration     6          0.601              1.959              3.745
 Vibration     7          0.611              1.926              2.994
 Vibration     8          0.613              1.919              2.889
 Vibration     9          0.629              1.869              2.345
 Vibration    10          0.635              1.847              2.184
 Vibration    11          0.641              1.829              2.062
 Vibration    12          0.651              1.800              1.903
 Vibration    13          0.654              1.788              1.845
 Vibration    14          0.668              1.747              1.667
 Vibration    15          0.673              1.730              1.602
 Vibration    16          0.686              1.693              1.475
 Vibration    17          0.688              1.686              1.453
 Vibration    18          0.707              1.633              1.303
 Vibration    19          0.725              1.581              1.179
 Vibration    20          0.750              1.512              1.038
 Vibration    21          0.763              1.477              0.975
 Vibration    22          0.786              1.419              0.880
 Vibration    23          0.833              1.301              0.719
 Vibration    24          0.847              1.270              0.681
 Vibration    25          0.871              1.215              0.620
 Vibration    26          0.943              1.063              0.475

 Optimization completed.
    -- Stationary point found.
 Normal termination of Gaussian 16 at Wed May 24 15:08:35 2023.
