 Gaussian 16, Revision A.03,
 Gaussian 16:  ES64L-G16RevA.03 25-Dec-2016

 -----------------------------
 # opt freq b3lyp/6-31g(2df,p)
 -----------------------------

 -------------------
 Title Card Required
 -------------------
 Symbolic Z-matrix:
 Charge =  0 Multiplicity = 1

 SCF Done:  E(RB3LYP) =  -566.431934765     A.U. after   12 cycles
 SCF Done:  E(RB3LYP) =  -566.439375844     A.U. after   10 cycles
 SCF Done:  E(RB3LYP) =  -566.443076093     A.U. after   10 cycles
 SCF Done:  E(RB3LYP) =  -566.445218396     A.U. after   10 cycles
 SCF Done:  E(RB3LYP) =  -566.446283456     A.U. after   10 cycles
 SCF Done:  E(RB3LYP) =  -566.447324328     A.U. after   10 cycles
 SCF Done:  E(RB3LYP) =  -566.448055417     A.U. after   11 cycles
 SCF Done:  E(RB3LYP) =  -566.448587149     A.U. after   10 cycles
 SCF Done:  E(RB3LYP) =  -566.448726540     A.U. after    9 cycles
 SCF Done:  E(RB3LYP) =  -566.448763251     A.U. after    9 cycles
 SCF Done:  E(RB3LYP) =  -566.448769944     A.U. after    9 cycles
 SCF Done:  E(RB3LYP) =  -566.448766239     A.U. after    9 cycles
 SCF Done:  E(RB3LYP) =  -566.448775336     A.U. after    8 cycles
 SCF Done:  E(RB3LYP) =  -566.448775479     A.U. after    6 cycles
 SCF Done:  E(RB3LYP) =  -566.448775584     A.U. after    6 cycles
 SCF Done:  E(RB3LYP) =  -566.448775597     A.U. after    6 cycles
 Optimization completed.
    -- Stationary point found.
 Normal termination of Gaussian 16 at Mon May 22 22:53:37 2023.

 ----------------------------------------------------------------------
 #N Geom=AllCheck Guess=TCheck SCRF=Check GenChk RB3LYP/6-31G(2df,p) Fr
 eq
 ----------------------------------------------------------------------

 Structure from the checkpoint file:  "CCCqCCCNrC1CCqCrCqCrC1.chk"
 -------------------
 Title Card Required
 -------------------
 Charge =  0 Multiplicity = 1

                         Standard orientation:
 ---------------------------------------------------------------------
 Center     Atomic      Atomic             Coordinates (Angstroms)
 Number     Number       Type             X           Y           Z
 ---------------------------------------------------------------------
      1          6           0        2.138116    2.862946   -0.498736
      2          6           0        0.790264    2.356583    0.026168
      3          6           0        0.557214    0.836463   -0.096618
      4          6           0        1.637423    0.022178    0.667581
      5          6           0        2.762514   -0.536067   -0.213658
      6          6           0        3.819648   -1.305540    0.578402
      7          7           0        4.874886   -1.801817   -0.312281
      8          6           0       -0.864542    0.454130    0.371445
      9          6           0       -2.008208    1.236572   -0.327693
     10          6           0       -3.220721    0.286777   -0.328380
     11          6           0       -3.971974    0.298561    1.010480
     12          6           0       -2.548669   -1.065996   -0.671074
     13          6           0       -3.392490   -2.323407   -0.467083
     14          6           0       -1.227762   -1.047087    0.136508
     15          1           0        2.196721    3.953613   -0.422213
     16          1           0        2.279897    2.597603   -1.552434
     17          1           0        2.981972    2.451376    0.063115
     18          1           0       -0.006558    2.884329   -0.509012
     19          1           0        0.683640    2.640593    1.083031
     20          1           0        0.623945    0.574217   -1.164589
     21          1           0        1.165315   -0.818028    1.189777
     22          1           0        2.071241    0.649753    1.458194
     23          1           0        3.259502    0.264242   -0.771584
     24          1           0        2.324922   -1.205337   -0.969222
     25          1           0        3.322789   -2.097936    1.167410
     26          1           0        4.289103   -0.630252    1.305410
     27          1           0        4.484361   -2.494453   -0.945869
     28          1           0        5.582462   -2.289836    0.228993
     29          1           0       -0.914054    0.660331    1.448768
     30          1           0       -1.721756    1.454252   -1.365281
     31          1           0       -2.223392    2.195763    0.152589
     32          1           0       -3.930905    0.567111   -1.115969
     33          1           0       -3.330835   -0.002359    1.846278
     34          1           0       -4.832934   -0.376589    0.995999
     35          1           0       -4.345677    1.304297    1.230092
     36          1           0       -2.284869   -1.011969   -1.736478
     37          1           0       -3.660070   -2.463250    0.585648
     38          1           0       -2.844989   -3.216943   -0.786371
     39          1           0       -4.321757   -2.281803   -1.046398
     40          1           0       -0.436394   -1.582485   -0.398128
     41          1           0       -1.360763   -1.570184    1.090156
 ---------------------------------------------------------------------

 SCF Done:  E(RB3LYP) =  -566.448775597     A.U. after    1 cycles

 The electronic state is 1-A.
 Alpha  occ. eigenvalues --  -14.30098 -10.19707 -10.17627 -10.17614 -10.17577
 Alpha  occ. eigenvalues --  -10.17456 -10.17089 -10.16991 -10.16969 -10.16779
 Alpha  occ. eigenvalues --  -10.16773 -10.16728 -10.16719 -10.16663  -0.87093
 Alpha  occ. eigenvalues --   -0.84083  -0.79992  -0.74921  -0.73536  -0.73202
 Alpha  occ. eigenvalues --   -0.68341  -0.66437  -0.63915  -0.61672  -0.58068
 Alpha  occ. eigenvalues --   -0.56627  -0.53928  -0.52707  -0.48438  -0.47080
 Alpha  occ. eigenvalues --   -0.46817  -0.44997  -0.43927  -0.43326  -0.43006
 Alpha  occ. eigenvalues --   -0.41135  -0.40070  -0.39187  -0.39097  -0.37681
 Alpha  occ. eigenvalues --   -0.37601  -0.37325  -0.35921  -0.35687  -0.35438
 Alpha  occ. eigenvalues --   -0.33965  -0.33290  -0.32175  -0.31956  -0.30925
 Alpha  occ. eigenvalues --   -0.30717  -0.30036  -0.29498  -0.28871  -0.28783
 Alpha  occ. eigenvalues --   -0.22953
 Alpha virt. eigenvalues --    0.07539   0.08458   0.08912   0.09545   0.11096
 Alpha virt. eigenvalues --    0.11257   0.12636   0.13546   0.14379   0.14674
 Alpha virt. eigenvalues --    0.14869   0.15564   0.16169   0.16460   0.16676

 Mulliken charges:
               1
     1  C   -0.392427
     2  C   -0.178250
     3  C    0.006960
     4  C   -0.203974
     5  C   -0.160854
     6  C   -0.148408
     7  N   -0.509949
     8  C    0.038926
     9  C   -0.239917
    10  C   -0.003389
    11  C   -0.393852
    12  C    0.047425
    13  C   -0.418336
    14  C   -0.241846
    15  H    0.107497
    16  H    0.113362
    17  H    0.119983
    18  H    0.096637
    19  H    0.088390
    20  H    0.059273
    21  H    0.095103
    22  H    0.087938
    23  H    0.111530
    24  H    0.084478
    25  H    0.074584
    26  H    0.099433
    27  H    0.219934
    28  H    0.222667
    29  H    0.064450
    30  H    0.089074
    31  H    0.088921
    32  H    0.057952
    33  H    0.114124
    34  H    0.112588
    35  H    0.109413
    36  H    0.065021
    37  H    0.114064
    38  H    0.109196
    39  H    0.108212
    40  H    0.093481
    41  H    0.090587
 Sum of Mulliken charges =  -0.00000

 Dipole moment (field-independent basis, Debye):
    X=             -0.4929    Y=             -0.9082    Z=              0.4604  Tot=              1.1312
 Quadrupole moment (field-independent basis, Debye-Ang):
   XX=            -96.1182   YY=            -88.2714   ZZ=            -91.4284
   XY=             -5.1202   XZ=              4.0147   YZ=              0.3478

  Exact polarizability: 171.234   0.987 148.010  -0.639   1.523 123.733
 Approx polarizability: 205.414  -0.839 202.260   0.692   2.283 201.737

                      1                      2                      3
                      A                      A                      A
 Frequencies --     29.6860                46.4711                51.5890
 Red. masses --      3.4902                 2.9780                 2.9674
 Frc consts  --      0.0018                 0.0038                 0.0047
 IR Inten    --      0.2113                 0.0896                 0.2695

                      4                      5                      6
                      A                      A                      A
 Frequencies --     75.9472               111.5105               117.6061
 Red. masses --      1.7139                 2.1739                 2.8769
 Frc consts  --      0.0058                 0.0159                 0.0234
 IR Inten    --      3.9460                 0.0541                 0.8007

                      7                      8                      9
                      A                      A                      A
 Frequencies --    132.7472               153.7180               168.8508
 Red. masses --      2.7827                 2.4495                 2.1755
 Frc consts  --      0.0289                 0.0341                 0.0365
 IR Inten    --      0.3932                 0.0249                 0.2039

                     10                     11                     12
                      A                      A                      A
 Frequencies --    215.3619               230.3521               237.5129
 Red. masses --      1.1320                 1.8619                 1.8015
 Frc consts  --      0.0309                 0.0582                 0.0599
 IR Inten    --      0.0270                 0.1903                 1.5390

                     13                     14                     15
                      A                      A                      A
 Frequencies --    247.8285               257.1725               270.9980
 Red. masses --      1.2698                 2.1030                 1.3454
 Frc consts  --      0.0460                 0.0819                 0.0582
 IR Inten    --     17.1922                 5.3107                14.4379

                     16                     17                     18
                      A                      A                      A
 Frequencies --    278.5852               296.2229               358.0745
 Red. masses --      1.4443                 2.5753                 2.2538
 Frc consts  --      0.0660                 0.1331                 0.1703
 IR Inten    --      0.0102                 0.5829                 4.2980

                     19                     20                     21
                      A                      A                      A
 Frequencies --    363.1395               379.8257               438.2596
 Red. masses --      2.4111                 2.3693                 2.4074
 Frc consts  --      0.1873                 0.2014                 0.2724
 IR Inten    --      0.0606                 0.0423                 1.2354

                     22                     23                     24
                      A                      A                      A
 Frequencies --    463.7284               495.4891               522.4461
 Red. masses --      2.4570                 2.5078                 2.4111
 Frc consts  --      0.3113                 0.3628                 0.3878
 IR Inten    --      4.5276                 0.9283                 2.3315

                     25                     26                     27
                      A                      A                      A
 Frequencies --    614.2074               663.0825               741.8897
 Red. masses --      2.9143                 2.8342                 1.1230
 Frc consts  --      0.6478                 0.7342                 0.3642
 IR Inten    --      0.7841                 0.8193                 3.0636

                     28                     29                     30
                      A                      A                      A
 Frequencies --    769.6067               781.4798               827.7623
 Red. masses --      2.6679                 1.2582                 1.3361
 Frc consts  --      0.9310                 0.4527                 0.5394
 IR Inten    --      0.4571                 1.6835                23.2404

                     31                     32                     33
                      A                      A                      A
 Frequencies --    844.8546               867.1980               872.6218
 Red. masses --      1.9698                 1.6301                 1.9438
 Frc consts  --      0.8284                 0.7223                 0.8721
 IR Inten    --      0.6761                69.7341                 2.4207

                     34                     35                     36
                      A                      A                      A
 Frequencies --    885.2013               903.7235               940.4230
 Red. masses --      1.8952                 1.6188                 1.7831
 Frc consts  --      0.8750                 0.7789                 0.9291
 IR Inten    --      1.8709                37.8578                 1.0742

                     37                     38                     39
                      A                      A                      A
 Frequencies --    957.1403               968.3737               985.9012
 Red. masses --      1.5956                 2.4135                 1.9392
 Frc consts  --      0.8612                 1.3335                 1.1105
 IR Inten    --      0.8209                 2.1429                 0.1242

                     40                     41                     42
                      A                      A                      A
 Frequencies --   1005.5755              1014.4824              1032.3335
 Red. masses --      1.5672                 1.6423                 1.6247
 Frc consts  --      0.9337                 0.9958                 1.0202
 IR Inten    --      0.7549                 0.8748                 0.6410

                     43                     44                     45
                      A                      A                      A
 Frequencies --   1041.7745              1051.0409              1059.1117
 Red. masses --      2.6915                 1.7295                 2.2514
 Frc consts  --      1.7211                 1.1257                 1.4880
 IR Inten    --      2.3005                 1.3067                 1.1568

                     46                     47                     48
                      A                      A                      A
 Frequencies --   1074.4838              1084.5608              1088.2010
 Red. masses --      1.3499                 2.1243                 2.1583
 Frc consts  --      0.9182                 1.4722                 1.5059
 IR Inten    --      1.1783                 3.3140                 5.3133

                     49                     50                     51
                      A                      A                      A
 Frequencies --   1104.1586              1129.4268              1144.2773
 Red. masses --      2.2798                 1.6524                 1.5579
 Frc consts  --      1.6376                 1.2419                 1.2019
 IR Inten    --      2.0080                 3.5071                 2.3004

                     52                     53                     54
                      A                      A                      A
 Frequencies --   1155.6283              1173.4096              1193.3930
 Red. masses --      2.3712                 2.2014                 1.7746
 Frc consts  --      1.8657                 1.7859                 1.4891
 IR Inten    --      1.9741                 2.1674                 0.6387

                     55                     56                     57
                      A                      A                      A
 Frequencies --   1219.1346              1226.7192              1258.1463
 Red. masses --      1.5680                 1.4636                 1.3340
 Frc consts  --      1.3731                 1.2977                 1.2442
 IR Inten    --      1.9209                 0.2750                 1.8486

                     58                     59                     60
                      A                      A                      A
 Frequencies --   1271.5241              1278.8208              1285.5303
 Red. masses --      1.4319                 1.3533                 1.4275
 Frc consts  --      1.3640                 1.3039                 1.3899
 IR Inten    --      0.3803                 2.6983                 5.3841

                     61                     62                     63
                      A                      A                      A
 Frequencies --   1303.0504              1317.8791              1322.7286
 Red. masses --      1.3279                 1.2023                 1.2104
 Frc consts  --      1.3284                 1.2303                 1.2477
 IR Inten    --      3.3308                 1.0392                 0.7176

                     64                     65                     66
                      A                      A                      A
 Frequencies --   1326.7134              1336.1499              1341.3080
 Red. masses --      1.0634                 1.2335                 1.3515
 Frc consts  --      1.1028                 1.2974                 1.4326
 IR Inten    --      1.3920                 1.4531                 1.2378

                     67                     68                     69
                      A                      A                      A
 Frequencies --   1345.3879              1355.2602              1374.7166
 Red. masses --      1.2809                 1.3274                 1.3667
 Frc consts  --      1.3660                 1.4364                 1.5218
 IR Inten    --      0.1629                 1.1109                 0.6564

                     70                     71                     72
                      A                      A                      A
 Frequencies --   1381.0519              1382.4807              1387.1370
 Red. masses --      1.5271                 1.4042                 1.3444
 Frc consts  --      1.7161                 1.5812                 1.5242
 IR Inten    --      4.2868                 2.6357                 0.8743

                     73                     74                     75
                      A                      A                      A
 Frequencies --   1399.1026              1410.8239              1412.0501
 Red. masses --      1.4690                 1.2886                 1.2459
 Frc consts  --      1.6943                 1.5112                 1.4637
 IR Inten    --      1.7189                 2.9608                 0.5994

                     76                     77                     78
                      A                      A                      A
 Frequencies --   1414.4949              1430.9175              1485.0964
 Red. masses --      1.2631                 1.4674                 1.0698
 Frc consts  --      1.4890                 1.7703                 1.3901
 IR Inten    --      7.5176                18.9305                 1.3661

                     79                     80                     81
                      A                      A                      A
 Frequencies --   1486.5144              1487.1970              1494.8352
 Red. masses --      1.0701                 1.0712                 1.0501
 Frc consts  --      1.3932                 1.3959                 1.3825
 IR Inten    --      1.6807                 1.6227                 4.0451

                     82                     83                     84
                      A                      A                      A
 Frequencies --   1496.4291              1497.1557              1499.9980
 Red. masses --      1.0534                 1.0873                 1.0739
 Frc consts  --      1.3899                 1.4359                 1.4236
 IR Inten    --      2.7953                 0.5542                 1.2121

                     85                     86                     87
                      A                      A                      A
 Frequencies --   1504.0140              1505.5191              1510.2385
 Red. masses --      1.0531                 1.0629                 1.0603
 Frc consts  --      1.4035                 1.4194                 1.4249
 IR Inten    --     11.1420                 0.6615                 3.9410

                     88                     89                     90
                      A                      A                      A
 Frequencies --   1510.9693              1519.7427              1658.5792
 Red. masses --      1.0540                 1.0906                 1.0887
 Frc consts  --      1.4178                 1.4841                 1.7645
 IR Inten    --      0.3826                 2.4025                22.2776

                     91                     92                     93
                      A                      A                      A
 Frequencies --   2930.4755              2971.6963              2995.7836
 Red. masses --      1.0727                 1.0801                 1.0830
 Frc consts  --      5.4275                 5.6200                 5.7267
 IR Inten    --     70.1842                 4.1885                13.3249

                     94                     95                     96
                      A                      A                      A
 Frequencies --   2999.5000              3002.9225              3008.2392
 Red. masses --      1.0699                 1.0778                 1.0696
 Frc consts  --      5.6716                 5.7264                 5.7028
 IR Inten    --      6.6570                 9.4946                10.8300

                     97                     98                     99
                      A                      A                      A
 Frequencies --   3013.4819              3017.5137              3025.3000
 Red. masses --      1.0698                 1.0691                 1.0367
 Frc consts  --      5.7241                 5.7354                 5.5905
 IR Inten    --     14.4242                49.9149                30.1853

                    100                    101                    102
                      A                      A                      A
 Frequencies --   3029.9867              3031.0473              3031.2186
 Red. masses --      1.0737                 1.0413                 1.0404
 Frc consts  --      5.8076                 5.6363                 5.6322
 IR Inten    --     65.5359                11.9769                41.0205

                    103                    104                    105
                      A                      A                      A
 Frequencies --   3036.2583              3037.0367              3050.6674
 Red. masses --      1.0647                 1.0783                 1.0926
 Frc consts  --      5.7832                 5.8600                 5.9913
 IR Inten    --     14.0929                44.5215                19.6479

                    106                    107                    108
                      A                      A                      A
 Frequencies --   3061.5700              3072.4154              3079.3019
 Red. masses --      1.0938                 1.1020                 1.0974
 Frc consts  --      6.0407                 6.1292                 6.1311
 IR Inten    --     22.4853                30.1597                31.1494

                    109                    110                    111
                      A                      A                      A
 Frequencies --   3082.9448              3089.0894              3093.9257
 Red. masses --      1.0950                 1.1010                 1.1010
 Frc consts  --      6.1320                 6.1900                 6.2095
 IR Inten    --     63.3306                26.7062                36.3886

                    112                    113                    114
                      A                      A                      A
 Frequencies --   3094.6583              3097.5579              3103.0480
 Red. masses --      1.1008                 1.1005                 1.1004
 Frc consts  --      6.2115                 6.2211                 6.2429
 IR Inten    --     40.0306                53.9704                28.4760

                    115                    116                    117
                      A                      A                      A
 Frequencies --   3106.6588              3481.6606              3559.1217
 Red. masses --      1.1004                 1.0496                 1.0916
 Frc consts  --      6.2572                 7.4960                 8.1473
 IR Inten    --     43.1961                 1.5720                 0.3214

 - Thermochemistry -
 -------------------
 Temperature   298.150 Kelvin.  Pressure   1.00000 Atm.
 Atom     1 has atomic number  6 and mass  12.00000

 Molecular mass:   197.21435 amu.
 Principal axes and moments of inertia in atomic units:
                           1         2         3
     Eigenvalues --  1890.445535797.593457178.15402
           X            0.99997   0.00725  -0.00140
           Y           -0.00726   0.99997  -0.00330
           Z            0.00138   0.00331   0.99999
 This molecule is an asymmetric top.
 Rotational symmetry number  1.
 Warning -- assumption of classical behavior for rotation
           may cause significant error
 Rotational temperatures (Kelvin)      0.04582     0.01494     0.01207
 Rotational constants (GHZ):           0.95466     0.31129     0.25142
 Zero-point vibrational energy    1007608.2 (Joules/Mol)
                                  240.82415 (Kcal/Mol)
 Warning -- explicit consideration of  25 degrees of freedom as
           vibrations may cause significant error
 Vibrational temperatures:     42.71    66.86    74.23   109.27   160.44
          (Kelvin)            169.21   190.99   221.17   242.94   309.86
                              331.43   341.73   356.57   370.01   389.91
                              400.82   426.20   515.19   522.48   546.48
                              630.56   667.20   712.90   751.68   883.71
                              954.03  1067.41  1107.29  1124.38  1190.97
                             1215.56  1247.70  1255.51  1273.61  1300.26
                             1353.06  1377.11  1393.27  1418.49  1446.80
                             1459.61  1485.30  1498.88  1512.21  1523.83
                             1545.94  1560.44  1565.68  1588.64  1624.99
                             1646.36  1662.69  1688.27  1717.03  1754.06
                             1764.98  1810.19  1829.44  1839.94  1849.59
                             1874.80  1896.13  1903.11  1908.84  1922.42
                             1929.84  1935.71  1949.92  1977.91  1987.03
                             1989.08  1995.78  2013.00  2029.86  2031.63
                             2035.14  2058.77  2136.72  2138.76  2139.74
                             2150.73  2153.03  2154.07  2158.16  2163.94
                             2166.11  2172.90  2173.95  2186.57  2386.33
                             4216.30  4275.61  4310.26  4315.61  4320.54
                             4328.19  4335.73  4341.53  4352.73  4359.48
                             4361.00  4361.25  4368.50  4369.62  4389.23
                             4404.92  4420.52  4430.43  4435.67  4444.51
                             4451.47  4452.52  4456.69  4464.59  4469.79
                             5009.33  5120.78

 Zero-point correction=                           0.383778 (Hartree/Particle)
 Thermal correction to Energy=                    0.400897
 Thermal correction to Enthalpy=                  0.401842
 Thermal correction to Gibbs Free Energy=         0.338736
 Sum of electronic and zero-point Energies=           -566.064998
 Sum of electronic and thermal Energies=              -566.047878
 Sum of electronic and thermal Enthalpies=            -566.046934
 Sum of electronic and thermal Free Energies=         -566.110040

                     E (Thermal)             CV                S
                      KCal/Mol        Cal/Mol-Kelvin    Cal/Mol-Kelvin
 Total                  251.567             64.658            132.818
 Electronic               0.000              0.000              0.000
 Translational            0.889              2.981             41.742
 Rotational               0.889              2.981             32.731
 Vibrational            249.789             58.696             58.344
 Vibration     1          0.593              1.984              5.850
 Vibration     2          0.595              1.979              4.962
 Vibration     3          0.596              1.977              4.756
 Vibration     4          0.599              1.965              3.993
 Vibration     5          0.607              1.940              3.242
 Vibration     6          0.608              1.935              3.139
 Vibration     7          0.613              1.921              2.906
 Vibration     8          0.619              1.899              2.626
 Vibration     9          0.625              1.881              2.448
 Vibration    10          0.645              1.818              1.998
 Vibration    11          0.652              1.795              1.876
 Vibration    12          0.656              1.783              1.821
 Vibration    13          0.661              1.766              1.746
 Vibration    14          0.667              1.751              1.681
 Vibration    15          0.675              1.727              1.590
 Vibration    16          0.679              1.713              1.542
 Vibration    17          0.690              1.681              1.438
 Vibration    18          0.733              1.559              1.130
 Vibration    19          0.737              1.548              1.109
 Vibration    20          0.750              1.513              1.040
 Vibration    21          0.798              1.387              0.832
 Vibration    22          0.821              1.331              0.755
 Vibration    23          0.851              1.260              0.669
 Vibration    24          0.877              1.200              0.604
 Vibration    25          0.974              1.002              0.426

 Optimization completed.
    -- Stationary point found.
 Normal termination of Gaussian 16 at Tue May 23 02:15:05 2023.
