 Gaussian 16, Revision A.03,
 Gaussian 16:  ES64L-G16RevA.03 25-Dec-2016

 -----------------------------
 # opt freq b3lyp/6-31g(2df,p)
 -----------------------------

 -------------------
 Title Card Required
 -------------------
 Symbolic Z-matrix:
 Charge =  0 Multiplicity = 1

 SCF Done:  E(RB3LYP) =  -471.769991144     A.U. after   12 cycles
 SCF Done:  E(RB3LYP) =  -471.777027819     A.U. after   10 cycles
 SCF Done:  E(RB3LYP) =  -471.782876104     A.U. after   10 cycles
 SCF Done:  E(RB3LYP) =  -471.785287631     A.U. after   10 cycles
 SCF Done:  E(RB3LYP) =  -471.786928806     A.U. after   10 cycles
 SCF Done:  E(RB3LYP) =  -471.787248338     A.U. after    9 cycles
 SCF Done:  E(RB3LYP) =  -471.787386259     A.U. after    9 cycles
 SCF Done:  E(RB3LYP) =  -471.787412645     A.U. after    8 cycles
 SCF Done:  E(RB3LYP) =  -471.787433595     A.U. after    8 cycles
 SCF Done:  E(RB3LYP) =  -471.787445535     A.U. after    8 cycles
 SCF Done:  E(RB3LYP) =  -471.787449229     A.U. after    8 cycles
 SCF Done:  E(RB3LYP) =  -471.787448472     A.U. after    8 cycles
 SCF Done:  E(RB3LYP) =  -471.787449195     A.U. after    6 cycles
 SCF Done:  E(RB3LYP) =  -471.787449278     A.U. after    5 cycles
 Optimization completed.
    -- Stationary point found.
 Normal termination of Gaussian 16 at Mon May 22 21:54:13 2023.

 ----------------------------------------------------------------------
 #N Geom=AllCheck Guess=TCheck SCRF=Check GenChk RB3LYP/6-31G(2df,p) Fr
 eq
 ----------------------------------------------------------------------

 Structure from the checkpoint file:  "CCCqCrC1CCqCrCCC1C.chk"
 -------------------
 Title Card Required
 -------------------
 Charge =  0 Multiplicity = 1

                         Standard orientation:
 ---------------------------------------------------------------------
 Center     Atomic      Atomic             Coordinates (Angstroms)
 Number     Number       Type             X           Y           Z
 ---------------------------------------------------------------------
      1          6           0       -3.393200    0.501834    1.307096
      2          6           0       -1.930491    0.496736    0.842919
      3          6           0       -1.662077   -0.389133   -0.390601
      4          6           0       -2.426146    0.130993   -1.621734
      5          6           0       -0.165233   -0.652483   -0.744460
      6          6           0        0.678136    0.602968   -1.085981
      7          6           0        1.356786    1.312022    0.100087
      8          6           0        2.216525    2.484275   -0.383547
      9          6           0        2.177898    0.300367    0.910778
     10          6           0        1.304119   -0.861419    1.397477
     11          6           0        0.573494   -1.598800    0.252512
     12          6           0        1.544950   -2.525979   -0.501348
     13          1           0       -3.504147    1.072662    2.234592
     14          1           0       -3.748773   -0.516830    1.500888
     15          1           0       -4.061654    0.950888    0.566761
     16          1           0       -1.311427    0.156131    1.678095
     17          1           0       -1.619509    1.527441    0.630119
     18          1           0       -2.077469   -1.382310   -0.159635
     19          1           0       -2.141419    1.159019   -1.872738
     20          1           0       -3.506610    0.126090   -1.454252
     21          1           0       -2.229239   -0.491828   -2.500662
     22          1           0       -0.232218   -1.220504   -1.682202
     23          1           0        0.066145    1.320930   -1.643947
     24          1           0        1.474646    0.301008   -1.780755
     25          1           0        0.582061    1.716798    0.764275
     26          1           0        3.015933    2.136222   -1.049060
     27          1           0        2.688342    3.004949    0.456905
     28          1           0        1.619662    3.216299   -0.938719
     29          1           0        2.648369    0.796658    1.768355
     30          1           0        3.000903   -0.076160    0.287063
     31          1           0        0.575257   -0.469232    2.115690
     32          1           0        1.913346   -1.584144    1.954191
     33          1           0       -0.184831   -2.246457    0.712657
     34          1           0        2.319636   -1.964140   -1.033739
     35          1           0        1.013352   -3.132335   -1.242125
     36          1           0        2.051080   -3.209439    0.189058
 ---------------------------------------------------------------------

 SCF Done:  E(RB3LYP) =  -471.787449278     A.U. after    1 cycles

 The electronic state is 1-A.
 Alpha  occ. eigenvalues --  -10.17904 -10.17776 -10.17566 -10.17521 -10.17279
 Alpha  occ. eigenvalues --  -10.16942 -10.16898 -10.16877 -10.16863 -10.16645
 Alpha  occ. eigenvalues --  -10.16599 -10.16588  -0.83461  -0.79335  -0.76794
 Alpha  occ. eigenvalues --   -0.73692  -0.70819  -0.68927  -0.65007  -0.62852
 Alpha  occ. eigenvalues --   -0.60736  -0.57139  -0.54781  -0.51803  -0.47009
 Alpha  occ. eigenvalues --   -0.46042  -0.44192  -0.43841  -0.42938  -0.41813
 Alpha  occ. eigenvalues --   -0.40731  -0.39632  -0.39224  -0.37829  -0.37358
 Alpha  occ. eigenvalues --   -0.37080  -0.36186  -0.35944  -0.35475  -0.34263
 Alpha  occ. eigenvalues --   -0.33674  -0.32419  -0.31510  -0.31021  -0.30742
 Alpha  occ. eigenvalues --   -0.28477  -0.28353  -0.27923
 Alpha virt. eigenvalues --    0.07154   0.09373   0.09883   0.10610   0.12118
 Alpha virt. eigenvalues --    0.12828   0.13276   0.14286   0.14382   0.15370
 Alpha virt. eigenvalues --    0.16219   0.16581   0.16882   0.17307   0.17749

 Mulliken charges:
               1
     1  C   -0.388888
     2  C   -0.176708
     3  C    0.029204
     4  C   -0.407777
     5  C    0.000500
     6  C   -0.211238
     7  C    0.052137
     8  C   -0.404172
     9  C   -0.183368
    10  C   -0.224624
    11  C    0.012744
    12  C   -0.401748
    13  H    0.109199
    14  H    0.111710
    15  H    0.117542
    16  H    0.098394
    17  H    0.097181
    18  H    0.063738
    19  H    0.113854
    20  H    0.112490
    21  H    0.107990
    22  H    0.062243
    23  H    0.087289
    24  H    0.088527
    25  H    0.069229
    26  H    0.108997
    27  H    0.106196
    28  H    0.106341
    29  H    0.083669
    30  H    0.088686
    31  H    0.095275
    32  H    0.083449
    33  H    0.060844
    34  H    0.115877
    35  H    0.108538
    36  H    0.106677
 Sum of Mulliken charges =  -0.00000

 Dipole moment (field-independent basis, Debye):
    X=             -0.1046    Y=             -0.0667    Z=              0.0863  Tot=              0.1511
 Quadrupole moment (field-independent basis, Debye-Ang):
   XX=            -80.5950   YY=            -79.8976   ZZ=            -79.7749
   XY=             -0.1633   XZ=              0.0842   YZ=              0.2140

  Exact polarizability: 138.458  -0.530 126.165   1.286   0.188 118.896
 Approx polarizability: 181.332  -0.981 178.824   0.314   0.354 177.836

                      1                      2                      3
                      A                      A                      A
 Frequencies --     40.4064                81.0853                97.1660
 Red. masses --      2.5072                 1.9562                 2.6652
 Frc consts  --      0.0024                 0.0076                 0.0148
 IR Inten    --      0.0034                 0.0077                 0.0009

                      4                      5                      6
                      A                      A                      A
 Frequencies --    109.9536               173.5168               202.5493
 Red. masses --      2.9539                 2.3934                 1.2283
 Frc consts  --      0.0210                 0.0425                 0.0297
 IR Inten    --      0.0338                 0.0905                 0.0642

                      7                      8                      9
                      A                      A                      A
 Frequencies --    209.7002               220.5244               228.1055
 Red. masses --      1.3760                 1.1990                 1.9652
 Frc consts  --      0.0357                 0.0344                 0.0602
 IR Inten    --      0.0377                 0.0207                 0.0797

                     10                     11                     12
                      A                      A                      A
 Frequencies --    239.8861               259.4812               285.5547
 Red. masses --      1.1922                 1.4761                 2.3950
 Frc consts  --      0.0404                 0.0586                 0.1151
 IR Inten    --      0.0373                 0.0002                 0.0467

                     13                     14                     15
                      A                      A                      A
 Frequencies --    311.2152               320.8059               332.3224
 Red. masses --      2.2654                 2.5768                 2.4414
 Frc consts  --      0.1293                 0.1562                 0.1589
 IR Inten    --      0.0226                 0.0148                 0.0440

                     16                     17                     18
                      A                      A                      A
 Frequencies --    398.6326               420.8243               453.2820
 Red. masses --      2.1947                 1.7612                 2.8066
 Frc consts  --      0.2055                 0.1838                 0.3398
 IR Inten    --      0.0688                 0.3102                 0.1729

                     19                     20                     21
                      A                      A                      A
 Frequencies --    468.0555               492.0378               604.9833
 Red. masses --      2.4778                 2.5946                 2.3639
 Frc consts  --      0.3198                 0.3701                 0.5098
 IR Inten    --      0.3700                 0.5906                 0.9566

                     22                     23                     24
                      A                      A                      A
 Frequencies --    702.6061               738.0968               778.9764
 Red. masses --      3.0693                 2.1776                 1.7200
 Frc consts  --      0.8927                 0.6990                 0.6149
 IR Inten    --      0.0131                 1.5484                 0.9898

                     25                     26                     27
                      A                      A                      A
 Frequencies --    797.5406               806.4426               847.6531
 Red. masses --      1.7433                 2.0103                 1.8356
 Frc consts  --      0.6533                 0.7703                 0.7771
 IR Inten    --      0.2096                 0.2463                 0.9807

                     28                     29                     30
                      A                      A                      A
 Frequencies --    879.5570               918.4734               936.7149
 Red. masses --      1.8449                 1.9640                 1.4461
 Frc consts  --      0.8409                 0.9762                 0.7476
 IR Inten    --      1.1367                 1.6931                 0.9450

                     31                     32                     33
                      A                      A                      A
 Frequencies --    960.7096               967.4998               974.1247
 Red. masses --      1.5847                 1.3314                 1.7058
 Frc consts  --      0.8617                 0.7343                 0.9537
 IR Inten    --      0.6980                 1.2048                 0.7510

                     34                     35                     36
                      A                      A                      A
 Frequencies --    981.6290              1006.4776              1020.9672
 Red. masses --      1.8388                 1.7696                 1.5833
 Frc consts  --      1.0439                 1.0562                 0.9724
 IR Inten    --      0.4244                 0.8863                 1.5391

                     37                     38                     39
                      A                      A                      A
 Frequencies --   1026.5045              1034.9024              1063.4052
 Red. masses --      1.8173                 2.2434                 1.6590
 Frc consts  --      1.1282                 1.4157                 1.1053
 IR Inten    --      4.4046                 1.9939                 1.3667

                     40                     41                     42
                      A                      A                      A
 Frequencies --   1099.0326              1100.2124              1114.0596
 Red. masses --      1.9428                 1.7326                 2.0277
 Frc consts  --      1.3826                 1.2356                 1.4828
 IR Inten    --      2.3094                 0.9223                 1.9133

                     43                     44                     45
                      A                      A                      A
 Frequencies --   1138.7930              1159.0874              1187.1953
 Red. masses --      1.6102                 1.6259                 2.0270
 Frc consts  --      1.2303                 1.2870                 1.6832
 IR Inten    --      0.2556                 4.9483                 0.4752

                     46                     47                     48
                      A                      A                      A
 Frequencies --   1189.4854              1205.4393              1241.1334
 Red. masses --      1.8201                 2.0933                 1.4281
 Frc consts  --      1.5173                 1.7921                 1.2961
 IR Inten    --      2.0291                 1.4849                 1.3177

                     49                     50                     51
                      A                      A                      A
 Frequencies --   1276.1341              1295.5435              1301.7873
 Red. masses --      1.3531                 1.2489                 1.2697
 Frc consts  --      1.2983                 1.2350                 1.2677
 IR Inten    --      0.6533                 2.4561                 1.8303

                     52                     53                     54
                      A                      A                      A
 Frequencies --   1325.3080              1332.3814              1337.9636
 Red. masses --      1.1898                 1.3030                 1.2856
 Frc consts  --      1.2313                 1.3629                 1.3560
 IR Inten    --      1.3313                 1.2896                 1.1606

                     55                     56                     57
                      A                      A                      A
 Frequencies --   1347.2936              1359.0817              1368.4287
 Red. masses --      1.3799                 1.4426                 1.3858
 Frc consts  --      1.4758                 1.5700                 1.5290
 IR Inten    --      1.2134                 1.5455                 2.1599

                     58                     59                     60
                      A                      A                      A
 Frequencies --   1380.8765              1386.1936              1388.6350
 Red. masses --      1.3938                 1.3932                 1.4191
 Frc consts  --      1.5659                 1.5773                 1.6123
 IR Inten    --      2.7538                 0.2758                 0.3608

                     61                     62                     63
                      A                      A                      A
 Frequencies --   1399.9491              1405.4958              1407.4071
 Red. masses --      1.4480                 1.3169                 1.2546
 Frc consts  --      1.6720                 1.5327                 1.4641
 IR Inten    --      2.6175                 2.8419                 2.7091

                     64                     65                     66
                      A                      A                      A
 Frequencies --   1409.7719              1417.3162              1421.8387
 Red. masses --      1.2416                 1.2854                 1.2576
 Frc consts  --      1.4539                 1.5213                 1.4980
 IR Inten    --      4.3774                 1.2904                 5.3526

                     67                     68                     69
                      A                      A                      A
 Frequencies --   1478.0815              1481.9791              1485.6654
 Red. masses --      1.0778                 1.0666                 1.0664
 Frc consts  --      1.3873                 1.3802                 1.3868
 IR Inten    --      0.8994                 0.4454                 2.7407

                     70                     71                     72
                      A                      A                      A
 Frequencies --   1495.7146              1496.4286              1498.7444
 Red. masses --      1.0445                 1.0566                 1.0614
 Frc consts  --      1.3768                 1.3941                 1.4048
 IR Inten    --      6.1946                 2.9750                 8.3473

                     73                     74                     75
                      A                      A                      A
 Frequencies --   1499.9883              1503.0639              1503.4529
 Red. masses --      1.0654                 1.0663                 1.0617
 Frc consts  --      1.4123                 1.4194                 1.4140
 IR Inten    --      3.6273                 1.7771                 4.6985

                     76                     77                     78
                      A                      A                      A
 Frequencies --   1506.3988              1507.8503              1513.6852
 Red. masses --      1.0608                 1.0631                 1.0514
 Frc consts  --      1.4182                 1.4241                 1.4194
 IR Inten    --      2.9842                 6.2039                 1.7468

                     79                     80                     81
                      A                      A                      A
 Frequencies --   2975.8367              2991.1158              3002.3040
 Red. masses --      1.0819                 1.0787                 1.0798
 Frc consts  --      5.6450                 5.6859                 5.7343
 IR Inten    --     11.8658                12.3310                25.6920

                     82                     83                     84
                      A                      A                      A
 Frequencies --   3006.0824              3008.1372              3018.3008
 Red. masses --      1.0644                 1.0740                 1.0555
 Frc consts  --      5.6672                 5.7258                 5.6657
 IR Inten    --      4.3081                33.5912                 5.4402

                     85                     86                     87
                      A                      A                      A
 Frequencies --   3021.5857              3024.9912              3029.0440
 Red. masses --      1.0529                 1.0538                 1.0466
 Frc consts  --      5.6640                 5.6814                 5.6577
 IR Inten    --     96.8498                16.6356                27.1117

                     88                     89                     90
                      A                      A                      A
 Frequencies --   3031.3569              3032.3837              3033.1715
 Red. masses --      1.0441                 1.0569                 1.0443
 Frc consts  --      5.6529                 5.7257                 5.6607
 IR Inten    --     50.7988                15.5894                11.4722

                     91                     92                     93
                      A                      A                      A
 Frequencies --   3047.6610              3055.5642              3062.6908
 Red. masses --      1.0969                 1.0935                 1.1007
 Frc consts  --      6.0029                 6.0150                 6.0828
 IR Inten    --     55.6603                11.4942                65.7845

                     94                     95                     96
                      A                      A                      A
 Frequencies --   3080.3439              3086.7588              3091.7968
 Red. masses --      1.0934                 1.1001                 1.1014
 Frc consts  --      6.1125                 6.1756                 6.2030
 IR Inten    --      7.8310                50.1207                29.3930

                     97                     98                     99
                      A                      A                      A
 Frequencies --   3093.5166              3094.3005              3095.6832
 Red. masses --      1.1007                 1.1012                 1.1008
 Frc consts  --      6.2061                 6.2123                 6.2152
 IR Inten    --     11.3092                35.1849                64.3473

                    100                    101                    102
                      A                      A                      A
 Frequencies --   3099.0072              3104.6266              3113.5821
 Red. masses --      1.1003                 1.1000                 1.0989
 Frc consts  --      6.2261                 6.2470                 6.2768
 IR Inten    --     39.4340                49.8494                40.4378

 - Thermochemistry -
 -------------------
 Temperature   298.150 Kelvin.  Pressure   1.00000 Atm.
 Atom     1 has atomic number  6 and mass  12.00000

 Molecular mass:   168.18780 amu.
 Principal axes and moments of inertia in atomic units:
                           1         2         3
     Eigenvalues --  1686.322962790.591203252.27984
           X            0.99998  -0.00352  -0.00501
           Y            0.00353   0.99999   0.00204
           Z            0.00501  -0.00206   0.99999
 This molecule is an asymmetric top.
 Rotational symmetry number  1.
 Warning -- assumption of classical behavior for rotation
           may cause significant error
 Rotational temperatures (Kelvin)      0.05136     0.03104     0.02663
 Rotational constants (GHZ):           1.07022     0.64672     0.55492
 Zero-point vibrational energy     888580.8 (Joules/Mol)
                                  212.37591 (Kcal/Mol)
 Warning -- explicit consideration of  21 degrees of freedom as
           vibrations may cause significant error
 Vibrational temperatures:     58.14   116.66   139.80   158.20   249.65
          (Kelvin)            291.42   301.71   317.29   328.19   345.14
                              373.34   410.85   447.77   461.57   478.14
                              573.54   605.47   652.17   673.43   707.93
                              870.44  1010.89  1061.96  1120.77  1147.48
                             1160.29  1219.58  1265.49  1321.48  1347.72
                             1382.25  1392.02  1401.55  1412.35  1448.10
                             1468.94  1476.91  1488.99  1530.00  1581.26
                             1582.96  1602.88  1638.47  1667.67  1708.11
                             1711.40  1734.36  1785.71  1836.07  1864.00
                             1872.98  1906.82  1917.00  1925.03  1938.46
                             1955.42  1968.86  1986.77  1994.42  1997.94
                             2014.21  2022.20  2024.94  2028.35  2039.20
                             2045.71  2126.63  2132.24  2137.54  2152.00
                             2153.03  2156.36  2158.15  2162.57  2163.13
                             2167.37  2169.46  2177.86  4281.57  4303.55
                             4319.65  4325.08  4328.04  4342.66  4347.39
                             4352.29  4358.12  4361.45  4362.92  4364.06
                             4384.90  4396.28  4406.53  4431.93  4441.16
                             4448.41  4450.88  4452.01  4454.00  4458.78
                             4466.87  4479.75

 Zero-point correction=                           0.338443 (Hartree/Particle)
 Thermal correction to Energy=                    0.352601
 Thermal correction to Enthalpy=                  0.353545
 Thermal correction to Gibbs Free Energy=         0.298607
 Sum of electronic and zero-point Energies=           -471.449007
 Sum of electronic and thermal Energies=              -471.434848
 Sum of electronic and thermal Enthalpies=            -471.433904
 Sum of electronic and thermal Free Energies=         -471.488842

                     E (Thermal)             CV                S
                      KCal/Mol        Cal/Mol-Kelvin    Cal/Mol-Kelvin
 Total                  221.261             55.087            115.628
 Electronic               0.000              0.000              0.000
 Translational            0.889              2.981             41.268
 Rotational               0.889              2.981             31.104
 Vibrational            219.483             49.126             43.256
 Vibration     1          0.594              1.981              5.239
 Vibration     2          0.600              1.962              3.864
 Vibration     3          0.603              1.951              3.510
 Vibration     4          0.606              1.941              3.270
 Vibration     5          0.627              1.875              2.397
 Vibration     6          0.639              1.836              2.110
 Vibration     7          0.642              1.826              2.046
 Vibration     8          0.647              1.810              1.955
 Vibration     9          0.651              1.798              1.894
 Vibration    10          0.657              1.779              1.804
 Vibration    11          0.668              1.747              1.665
 Vibration    12          0.683              1.700              1.500
 Vibration    13          0.700              1.652              1.356
 Vibration    14          0.706              1.634              1.306
 Vibration    15          0.714              1.611              1.249
 Vibration    16          0.765              1.473              0.968
 Vibration    17          0.783              1.425              0.889
 Vibration    18          0.812              1.354              0.786
 Vibration    19          0.825              1.321              0.743
 Vibration    20          0.848              1.268              0.678
 Vibration    21          0.964              1.021              0.441

 Optimization completed.
    -- Stationary point found.
 Normal termination of Gaussian 16 at Tue May 23 00:13:14 2023.
