 Gaussian 16, Revision A.03,
 Gaussian 16:  ES64L-G16RevA.03 25-Dec-2016

 -----------------------------
 # opt freq b3lyp/6-31g(2df,p)
 -----------------------------

 -------------------
 Title Card Required
 -------------------
 Symbolic Z-matrix:
 Charge =  0 Multiplicity = 1

 SCF Done:  E(RB3LYP) =  -623.328715647     A.U. after   12 cycles
 SCF Done:  E(RB3LYP) =  -623.342132833     A.U. after   11 cycles
 SCF Done:  E(RB3LYP) =  -623.345434416     A.U. after   10 cycles
 SCF Done:  E(RB3LYP) =  -623.347378100     A.U. after   10 cycles
 SCF Done:  E(RB3LYP) =  -623.347972087     A.U. after   10 cycles
 SCF Done:  E(RB3LYP) =  -623.348161930     A.U. after    9 cycles
 SCF Done:  E(RB3LYP) =  -623.348257663     A.U. after    9 cycles
 SCF Done:  E(RB3LYP) =  -623.348356226     A.U. after   10 cycles
 SCF Done:  E(RB3LYP) =  -623.348236390     A.U. after    9 cycles
 SCF Done:  E(RB3LYP) =  -623.348803541     A.U. after    9 cycles
 SCF Done:  E(RB3LYP) =  -623.350609082     A.U. after   11 cycles
 SCF Done:  E(RB3LYP) =  -623.350767285     A.U. after   11 cycles
 SCF Done:  E(RB3LYP) =  -623.350899986     A.U. after    9 cycles
 SCF Done:  E(RB3LYP) =  -623.350927129     A.U. after    8 cycles
 SCF Done:  E(RB3LYP) =  -623.350930834     A.U. after    8 cycles
 SCF Done:  E(RB3LYP) =  -623.350932519     A.U. after    8 cycles
 SCF Done:  E(RB3LYP) =  -623.350933630     A.U. after    8 cycles
 SCF Done:  E(RB3LYP) =  -623.350934230     A.U. after    7 cycles
 SCF Done:  E(RB3LYP) =  -623.350934299     A.U. after    6 cycles
 Optimization completed.
    -- Stationary point found.
 Normal termination of Gaussian 16 at Tue May 23 05:39:31 2023.

 ----------------------------------------------------------------------
 #N Geom=AllCheck Guess=TCheck SCRF=Check GenChk RB3LYP/6-31G(2df,p) Fr
 eq
 ----------------------------------------------------------------------

 Structure from the checkpoint file:  "CCCqCrCCqCrCCCCCOO.chk"
 -------------------
 Title Card Required
 -------------------
 Charge =  0 Multiplicity = 1

                         Standard orientation:
 ---------------------------------------------------------------------
 Center     Atomic      Atomic             Coordinates (Angstroms)
 Number     Number       Type             X           Y           Z
 ---------------------------------------------------------------------
      1          6           0       -6.055392   -1.676746   -0.433350
      2          6           0       -4.955825   -1.105545    0.468157
      3          6           0       -3.872246   -0.286480   -0.260983
      4          6           0       -4.454307    0.975783   -0.913062
      5          6           0       -2.710629    0.023035    0.706085
      6          6           0       -1.467738    0.709040    0.078506
      7          6           0       -1.453682    2.220863    0.358005
      8          6           0       -0.172181    0.027805    0.564552
      9          6           0        1.121459    0.531182   -0.086345
     10          6           0        2.356449   -0.268577    0.345307
     11          6           0        3.653243    0.235787   -0.298176
     12          6           0        4.868579   -0.571517    0.144380
     13          8           0        5.994612   -0.010036   -0.514247
     14          8           0        7.162270   -0.712273   -0.033201
     15          1           0       -6.742690   -2.305595    0.141511
     16          1           0       -5.629919   -2.295824   -1.231580
     17          1           0       -6.652086   -0.890853   -0.906144
     18          1           0       -4.467373   -1.935344    0.995088
     19          1           0       -5.410438   -0.479566    1.248900
     20          1           0       -3.465780   -0.920786   -1.064472
     21          1           0       -4.870839    1.650767   -0.155084
     22          1           0       -5.255892    0.731554   -1.616033
     23          1           0       -3.694880    1.529495   -1.472211
     24          1           0       -2.401795   -0.926282    1.161440
     25          1           0       -3.088949    0.638326    1.534748
     26          1           0       -1.515591    0.566203   -1.011261
     27          1           0       -1.306558    2.411594    1.428300
     28          1           0       -2.397967    2.690135    0.069157
     29          1           0       -0.653018    2.732352   -0.184395
     30          1           0       -0.259603   -1.051412    0.378382
     31          1           0       -0.097872    0.139226    1.656396
     32          1           0        1.281527    1.588675    0.156439
     33          1           0        1.022008    0.481059   -1.179969
     34          1           0        2.209857   -1.327867    0.093375
     35          1           0        2.451187   -0.227296    1.439022
     36          1           0        3.816945    1.288808   -0.040201
     37          1           0        3.572450    0.188821   -1.391075
     38          1           0        4.759768   -1.632228   -0.128587
     39          1           0        5.007947   -0.513550    1.232127
     40          1           0        7.388117   -1.239725   -0.812754
 ---------------------------------------------------------------------

 SCF Done:  E(RB3LYP) =  -623.350934299     A.U. after    1 cycles

 The electronic state is 1-A.
 Alpha  occ. eigenvalues --  -19.18511 -19.18341 -10.22543 -10.18345 -10.18306
 Alpha  occ. eigenvalues --  -10.18208 -10.18164 -10.17778 -10.17496 -10.17451
 Alpha  occ. eigenvalues --  -10.17042 -10.17010 -10.16828 -10.16804  -1.10831
 Alpha  occ. eigenvalues --   -0.90519  -0.82129  -0.80105  -0.77672  -0.73171
 Alpha  occ. eigenvalues --   -0.71418  -0.67964  -0.66127  -0.62620  -0.59879
 Alpha  occ. eigenvalues --   -0.58207  -0.55405  -0.55218  -0.52100  -0.48673
 Alpha  occ. eigenvalues --   -0.46867  -0.46068  -0.45401  -0.44551  -0.43307
 Alpha  occ. eigenvalues --   -0.43107  -0.41726  -0.41342  -0.39481  -0.38799
 Alpha  occ. eigenvalues --   -0.38146  -0.37657  -0.37088  -0.36746  -0.35434
 Alpha  occ. eigenvalues --   -0.34687  -0.34543  -0.33445  -0.33337  -0.32530
 Alpha  occ. eigenvalues --   -0.31977  -0.31761  -0.30955  -0.30586  -0.29196
 Alpha  occ. eigenvalues --   -0.28559  -0.25680
 Alpha virt. eigenvalues --    0.03968   0.08046   0.08558   0.09045   0.10482
 Alpha virt. eigenvalues --    0.10737   0.11578   0.12174   0.12826   0.13180
 Alpha virt. eigenvalues --    0.14224   0.14519   0.14991   0.15629   0.15996

 Mulliken charges:
               1
     1  C   -0.391969
     2  C   -0.165629
     3  C    0.047814
     4  C   -0.388502
     5  C   -0.208785
     6  C    0.032303
     7  C   -0.395739
     8  C   -0.189618
     9  C   -0.193643
    10  C   -0.182053
    11  C   -0.211798
    12  C   -0.008471
    13  O   -0.192426
    14  O   -0.324281
    15  H    0.110915
    16  H    0.111534
    17  H    0.117536
    18  H    0.089750
    19  H    0.090860
    20  H    0.064566
    21  H    0.109184
    22  H    0.110932
    23  H    0.116505
    24  H    0.084707
    25  H    0.086393
    26  H    0.066300
    27  H    0.109531
    28  H    0.114483
    29  H    0.112328
    30  H    0.087697
    31  H    0.090871
    32  H    0.099809
    33  H    0.092224
    34  H    0.094805
    35  H    0.097897
    36  H    0.111909
    37  H    0.105774
    38  H    0.084112
    39  H    0.103461
    40  H    0.308712
 Sum of Mulliken charges =  -0.00000

 Dipole moment (field-independent basis, Debye):
    X=             -1.2863    Y=             -1.2680    Z=             -0.6035  Tot=              1.9043
 Quadrupole moment (field-independent basis, Debye-Ang):
   XX=           -102.5629   YY=            -89.5725   ZZ=            -89.9628
   XY=             -8.7059   XZ=             -5.5433   YZ=              2.3729

  Exact polarizability: 186.960  -0.135 129.933   0.788  -0.660 119.919
 Approx polarizability: 205.083  -4.469 191.223   0.361   0.203 189.893

                      1                      2                      3
                      A                      A                      A
 Frequencies --     20.1930                39.0074                41.8146
 Red. masses --      3.9257                 3.1906                 2.6006
 Frc consts  --      0.0009                 0.0029                 0.0027
 IR Inten    --      0.1628                 2.2938                 2.1624

                      4                      5                      6
                      A                      A                      A
 Frequencies --     49.4283                70.8116                87.5309
 Red. masses --      3.0075                 3.1866                 1.8191
 Frc consts  --      0.0043                 0.0094                 0.0082
 IR Inten    --      0.8870                 0.1356                 0.2828

                      7                      8                      9
                      A                      A                      A
 Frequencies --     98.3095               106.4053               129.9186
 Red. masses --      2.9145                 2.3533                 2.5388
 Frc consts  --      0.0166                 0.0157                 0.0252
 IR Inten    --      0.8504                 4.7945                 1.2011

                     10                     11                     12
                      A                      A                      A
 Frequencies --    149.6102               159.7470               179.0649
 Red. masses --      2.4728                 2.1390                 4.0413
 Frc consts  --      0.0326                 0.0322                 0.0763
 IR Inten    --      1.0421                 2.2544                 0.2826

                     13                     14                     15
                      A                      A                      A
 Frequencies --    187.6163               219.0055               226.0818
 Red. masses --      2.9613                 1.1487                 1.1153
 Frc consts  --      0.0614                 0.0325                 0.0336
 IR Inten    --      0.4271                98.2189                 0.1470

                     16                     17                     18
                      A                      A                      A
 Frequencies --    245.6286               265.0958               283.9275
 Red. masses --      1.1617                 1.3392                 3.0474
 Frc consts  --      0.0413                 0.0554                 0.1447
 IR Inten    --      0.0173                 0.1484                 0.1353

                     19                     20                     21
                      A                      A                      A
 Frequencies --    303.3785               322.9278               379.4041
 Red. masses --      2.5703                 2.1928                 3.4598
 Frc consts  --      0.1394                 0.1347                 0.2934
 IR Inten    --      0.1946                 0.1360                 2.1304

                     22                     23                     24
                      A                      A                      A
 Frequencies --    407.4241               411.7922               430.9505
 Red. masses --      2.1362                 1.8445                 2.8274
 Frc consts  --      0.2089                 0.1843                 0.3094
 IR Inten    --      0.1632                 0.1336                 0.3311

                     25                     26                     27
                      A                      A                      A
 Frequencies --    496.1466               526.1607               539.6099
 Red. masses --      3.2217                 2.6210                 2.7860
 Frc consts  --      0.4673                 0.4275                 0.4780
 IR Inten    --      4.9620                 0.0469                 3.2340

                     28                     29                     30
                      A                      A                      A
 Frequencies --    737.7344               766.9031               772.7114
 Red. masses --      1.0785                 1.1517                 1.3221
 Frc consts  --      0.3458                 0.3991                 0.4651
 IR Inten    --      2.9417                 0.0797                 1.9246

                     31                     32                     33
                      A                      A                      A
 Frequencies --    815.5967               832.0954               864.2198
 Red. masses --      2.0101                 1.4970                 1.7936
 Frc consts  --      0.7878                 0.6107                 0.7893
 IR Inten    --      0.0421                 1.3174                 0.4621

                     34                     35                     36
                      A                      A                      A
 Frequencies --    876.6109               906.1441               938.8772
 Red. masses --      1.3930                 2.1675                 8.5767
 Frc consts  --      0.6307                 1.0486                 4.4544
 IR Inten    --      0.6407                 0.0825                13.0832

                     37                     38                     39
                      A                      A                      A
 Frequencies --    942.6247               963.2468               975.3749
 Red. masses --      1.2904                 1.6492                 1.2797
 Frc consts  --      0.6755                 0.9016                 0.7173
 IR Inten    --      2.3586                 2.4047                 4.4380

                     40                     41                     42
                      A                      A                      A
 Frequencies --   1007.7825              1013.7700              1021.9227
 Red. masses --      1.8692                 4.3419                 1.6303
 Frc consts  --      1.1185                 2.6291                 1.0031
 IR Inten    --      5.7256                 1.3633                 0.6142

                     43                     44                     45
                      A                      A                      A
 Frequencies --   1031.5205              1049.8614              1053.0809
 Red. masses --      2.1755                 2.5957                 2.8854
 Frc consts  --      1.3638                 1.6857                 1.8853
 IR Inten    --      4.0706                 0.2150                11.0748

                     46                     47                     48
                      A                      A                      A
 Frequencies --   1068.0139              1069.2200              1090.1861
 Red. masses --      2.1786                 2.0561                 1.9535
 Frc consts  --      1.4641                 1.3850                 1.3680
 IR Inten    --      2.2850                 0.2336                 6.2297

                     49                     50                     51
                      A                      A                      A
 Frequencies --   1119.0719              1154.8348              1174.3675
 Red. masses --      2.9245                 2.5450                 1.9735
 Frc consts  --      2.1579                 1.9998                 1.6036
 IR Inten    --      4.3106                 1.1056                 3.8084

                     52                     53                     54
                      A                      A                      A
 Frequencies --   1187.1226              1193.6528              1209.6104
 Red. masses --      1.9251                 1.9097                 1.4538
 Frc consts  --      1.5984                 1.6031                 1.2533
 IR Inten    --      5.3958                 1.7415                 4.2494

                     55                     56                     57
                      A                      A                      A
 Frequencies --   1244.6250              1255.4483              1263.2534
 Red. masses --      1.3067                 1.3099                 1.2821
 Frc consts  --      1.1927                 1.2164                 1.2054
 IR Inten    --      2.7818                 4.2070                 0.9804

                     58                     59                     60
                      A                      A                      A
 Frequencies --   1291.6820              1300.9546              1302.6950
 Red. masses --      1.1927                 1.2232                 1.1852
 Frc consts  --      1.1725                 1.2198                 1.1850
 IR Inten    --      0.5079                 1.8963                 0.5175

                     61                     62                     63
                      A                      A                      A
 Frequencies --   1317.6049              1325.3661              1334.0606
 Red. masses --      1.2047                 1.1445                 1.0881
 Frc consts  --      1.2323                 1.1846                 1.1409
 IR Inten    --      1.2175                 0.9724                 0.0820

                     64                     65                     66
                      A                      A                      A
 Frequencies --   1340.7989              1367.7568              1374.8097
 Red. masses --      1.2925                 1.3307                 1.3505
 Frc consts  --      1.3690                 1.4667                 1.5039
 IR Inten    --      0.4930                 6.9131                 4.6279

                     67                     68                     69
                      A                      A                      A
 Frequencies --   1381.8971              1383.6839              1386.1130
 Red. masses --      1.4211                 1.3561                 1.2157
 Frc consts  --      1.5990                 1.5297                 1.3762
 IR Inten    --      6.5366                15.2505                26.7822

                     70                     71                     72
                      A                      A                      A
 Frequencies --   1390.6829              1400.2723              1409.5331
 Red. masses --      1.3261                 1.5693                 1.4125
 Frc consts  --      1.5111                 1.8130                 1.6534
 IR Inten    --      2.0712                 0.8859                 8.2689

                     73                     74                     75
                      A                      A                      A
 Frequencies --   1411.0845              1414.3019              1415.9065
 Red. masses --      1.3121                 1.2201                 1.3076
 Frc consts  --      1.5393                 1.4379                 1.5445
 IR Inten    --      6.8217                 3.4343                 1.9595

                     76                     77                     78
                      A                      A                      A
 Frequencies --   1477.6757              1480.8755              1486.1102
 Red. masses --      1.0747                 1.0761                 1.0756
 Frc consts  --      1.3826                 1.3904                 1.3996
 IR Inten    --      0.3932                 0.0473                 0.0522

                     79                     80                     81
                      A                      A                      A
 Frequencies --   1491.2760              1494.3279              1496.1357
 Red. masses --      1.0703                 1.0524                 1.0819
 Frc consts  --      1.4024                 1.3846                 1.4269
 IR Inten    --      0.1995                 4.2647                 0.9842

                     82                     83                     84
                      A                      A                      A
 Frequencies --   1498.7205              1500.5351              1507.0338
 Red. masses --      1.0630                 1.0518                 1.0503
 Frc consts  --      1.4068                 1.3954                 1.4055
 IR Inten    --      2.2771                 1.2812                 5.5873

                     85                     86                     87
                      A                      A                      A
 Frequencies --   1508.7019              1510.6451              1516.3742
 Red. masses --      1.0642                 1.0956                 1.0449
 Frc consts  --      1.4271                 1.4731                 1.4156
 IR Inten    --      3.8282                 2.7364                 5.1896

                     88                     89                     90
                      A                      A                      A
 Frequencies --   1529.6711              2976.9939              2986.2688
 Red. masses --      1.0898                 1.0811                 1.0601
 Frc consts  --      1.5024                 5.6451                 5.5701
 IR Inten    --      6.3767                 7.3833                31.5396

                     91                     92                     93
                      A                      A                      A
 Frequencies --   2987.6049              2995.6450              3003.8190
 Red. masses --      1.0792                 1.0600                 1.0611
 Frc consts  --      5.6755                 5.6047                 5.6408
 IR Inten    --      7.2499                 3.5368                 1.6775

                     94                     95                     96
                      A                      A                      A
 Frequencies --   3004.9765              3010.6836              3013.2416
 Red. masses --      1.0600                 1.0608                 1.0640
 Frc consts  --      5.6392                 5.6653                 5.6921
 IR Inten    --      1.6492                25.8455                87.4276

                     97                     98                     99
                      A                      A                      A
 Frequencies --   3027.5175              3028.8089              3029.4499
 Red. masses --      1.0413                 1.0725                 1.0539
 Frc consts  --      5.6236                 5.7966                 5.6989
 IR Inten    --      3.5741                40.9142                 9.4467

                    100                    101                    102
                      A                      A                      A
 Frequencies --   3030.5703              3031.7135              3034.5487
 Red. masses --      1.0852                 1.0416                 1.0961
 Frc consts  --      5.8722                 5.6406                 5.9467
 IR Inten    --     14.4071                23.2025                27.1458

                    103                    104                    105
                      A                      A                      A
 Frequencies --   3035.8913              3038.6562              3047.8583
 Red. masses --      1.0826                 1.0977                 1.1000
 Frc consts  --      5.8791                 5.9716                 6.0202
 IR Inten    --     31.4549                 0.6605                58.3462

                    106                    107                    108
                      A                      A                      A
 Frequencies --   3063.0579              3081.0844              3094.8079
 Red. masses --      1.1025                 1.1052                 1.0967
 Frc consts  --      6.0944                 6.1818                 6.1887
 IR Inten    --     33.4743                94.3300                15.1762

                    109                    110                    111
                      A                      A                      A
 Frequencies --   3095.5459              3095.8274              3104.2294
 Red. masses --      1.1003                 1.0968                 1.1004
 Frc consts  --      6.2118                 6.1936                 6.2473
 IR Inten    --     28.0660                52.8058                59.2173

                    112                    113                    114
                      A                      A                      A
 Frequencies --   3110.1275              3115.1777              3748.6916
 Red. masses --      1.1002                 1.0996                 1.0687
 Frc consts  --      6.2703                 6.2873                 8.8482
 IR Inten    --     64.3838                 7.0392                29.1623

 - Thermochemistry -
 -------------------
 Temperature   298.150 Kelvin.  Pressure   1.00000 Atm.
 Atom     1 has atomic number  6 and mass  12.00000

 Molecular mass:   202.19328 amu.
 Principal axes and moments of inertia in atomic units:
                           1         2         3
     Eigenvalues --   934.80299********************
           X            1.00000   0.00132   0.00225
           Y           -0.00132   1.00000  -0.00090
           Z           -0.00226   0.00089   1.00000
 This molecule is an asymmetric top.
 Rotational symmetry number  1.
 Warning -- assumption of classical behavior for rotation
           may cause significant error
 Rotational temperatures (Kelvin)      0.09265     0.00657     0.00633
 Rotational constants (GHZ):           1.93061     0.13685     0.13196
 Zero-point vibrational energy     961896.6 (Joules/Mol)
                                  229.89881 (Kcal/Mol)
 Warning -- explicit consideration of  27 degrees of freedom as
           vibrations may cause significant error
 Vibrational temperatures:     29.05    56.12    60.16    71.12   101.88
          (Kelvin)            125.94   141.45   153.09   186.92   215.26
                              229.84   257.63   269.94   315.10   325.28
                              353.40   381.41   408.51   436.49   464.62
                              545.88   586.19   592.48   620.04   713.84
                              757.03   776.38  1061.44  1103.40  1111.76
                             1173.46  1197.20  1243.42  1261.25  1303.74
                             1350.83  1356.23  1385.90  1403.35  1449.97
                             1458.59  1470.32  1484.13  1510.52  1515.15
                             1536.63  1538.37  1568.53  1610.09  1661.55
                             1689.65  1708.00  1717.40  1740.36  1790.74
                             1806.31  1817.54  1858.44  1871.78  1874.29
                             1895.74  1906.91  1919.42  1929.11  1967.90
                             1978.04  1988.24  1990.81  1994.31  2000.88
                             2014.68  2028.00  2030.24  2034.87  2037.17
                             2126.05  2130.65  2138.18  2145.61  2150.00
                             2152.61  2156.32  2158.94  2168.29  2170.69
                             2173.48  2181.72  2200.86  4283.23  4296.57
                             4298.50  4310.07  4321.83  4323.49  4331.70
                             4335.38  4355.92  4357.78  4358.70  4360.31
                             4361.96  4366.04  4367.97  4371.95  4385.19
                             4407.06  4432.99  4452.74  4453.80  4454.21
                             4466.29  4474.78  4482.05  5393.53

 Zero-point correction=                           0.366367 (Hartree/Particle)
 Thermal correction to Energy=                    0.385300
 Thermal correction to Enthalpy=                  0.386244
 Thermal correction to Gibbs Free Energy=         0.317182
 Sum of electronic and zero-point Energies=           -622.984567
 Sum of electronic and thermal Energies=              -622.965634
 Sum of electronic and thermal Enthalpies=            -622.964690
 Sum of electronic and thermal Free Energies=         -623.033753

                     E (Thermal)             CV                S
                      KCal/Mol        Cal/Mol-Kelvin    Cal/Mol-Kelvin
 Total                  241.779             67.373            145.354
 Electronic               0.000              0.000              0.000
 Translational            0.889              2.981             41.817
 Rotational               0.889              2.981             33.488
 Vibrational            240.002             61.412             70.049
 Vibration     1          0.593              1.986              6.615
 Vibration     2          0.594              1.981              5.309
 Vibration     3          0.594              1.980              5.171
 Vibration     4          0.595              1.978              4.840
 Vibration     5          0.598              1.968              4.131
 Vibration     6          0.601              1.958              3.715
 Vibration     7          0.604              1.950              3.488
 Vibration     8          0.605              1.944              3.333
 Vibration     9          0.612              1.923              2.947
 Vibration    10          0.618              1.903              2.677
 Vibration    11          0.622              1.892              2.553
 Vibration    12          0.629              1.868              2.338
 Vibration    13          0.632              1.857              2.251
 Vibration    14          0.647              1.812              1.967
 Vibration    15          0.650              1.801              1.910
 Vibration    16          0.660              1.770              1.762
 Vibration    17          0.671              1.737              1.628
 Vibration    18          0.682              1.703              1.510
 Vibration    19          0.695              1.667              1.398
 Vibration    20          0.708              1.630              1.295
 Vibration    21          0.749              1.514              1.042
 Vibration    22          0.772              1.454              0.936
 Vibration    23          0.776              1.445              0.920
 Vibration    24          0.792              1.403              0.856
 Vibration    25          0.852              1.259              0.668
 Vibration    26          0.881              1.192              0.596
 Vibration    27          0.895              1.162              0.566

 Optimization completed.
    -- Stationary point found.
 Normal termination of Gaussian 16 at Tue May 23 07:50:25 2023.
