 Gaussian 16, Revision A.03,
 Gaussian 16:  ES64L-G16RevA.03 25-Dec-2016

 -----------------------------
 # opt freq b3lyp/6-31g(2df,p)
 -----------------------------

 -------------------
 Title Card Required
 -------------------
 Symbolic Z-matrix:
 Charge =  0 Multiplicity = 1

 SCF Done:  E(RB3LYP) =  -659.955056993     A.U. after   14 cycles
 SCF Done:  E(RB3LYP) =  -659.974117710     A.U. after   12 cycles
 SCF Done:  E(RB3LYP) =  -660.009887679     A.U. after   12 cycles
 SCF Done:  E(RB3LYP) =  -660.033518677     A.U. after   12 cycles
 SCF Done:  E(RB3LYP) =  -660.051720772     A.U. after   12 cycles
 SCF Done:  E(RB3LYP) =  -660.063065082     A.U. after   12 cycles
 SCF Done:  E(RB3LYP) =  -660.078634143     A.U. after   14 cycles
 SCF Done:  E(RB3LYP) =  -660.088680932     A.U. after   12 cycles
 SCF Done:  E(RB3LYP) =  -660.093656687     A.U. after   12 cycles
 SCF Done:  E(RB3LYP) =  -660.095297943     A.U. after   11 cycles
 SCF Done:  E(RB3LYP) =  -660.107059780     A.U. after    9 cycles
 SCF Done:  E(RB3LYP) =  -660.107069951     A.U. after    9 cycles
 SCF Done:  E(RB3LYP) =  -660.107072773     A.U. after    8 cycles
 SCF Done:  E(RB3LYP) =  -660.107074344     A.U. after    7 cycles
 SCF Done:  E(RB3LYP) =  -660.107075549     A.U. after    7 cycles
 SCF Done:  E(RB3LYP) =  -660.107076220     A.U. after    7 cycles
 SCF Done:  E(RB3LYP) =  -660.107076518     A.U. after    6 cycles
 SCF Done:  E(RB3LYP) =  -660.107076592     A.U. after    6 cycles
 SCF Done:  E(RB3LYP) =  -660.107076616     A.U. after    6 cycles
 Optimization completed.
    -- Stationary point found.
 Normal termination of Gaussian 16 at Wed May 24 19:43:23 2023.

 ----------------------------------------------------------------------
 #N Geom=AllCheck Guess=TCheck SCRF=Check GenChk RB3LYP/6-31G(2df,p) Fr
 eq
 ----------------------------------------------------------------------

 Structure from the checkpoint file:  "CCCqdCCCOrc1ccccqCrc1CC.chk"
 -------------------
 Title Card Required
 -------------------
 Charge =  0 Multiplicity = 1

                         Standard orientation:
 ---------------------------------------------------------------------
 Center     Atomic      Atomic             Coordinates (Angstroms)
 Number     Number       Type             X           Y           Z
 ---------------------------------------------------------------------
      1          6           0       -1.919124    3.352888   -0.838901
      2          6           0       -0.639399    2.649375   -0.385803
      3          6           0       -0.778337    1.223909    0.124222
      4          6           0       -1.959758    0.623796    0.304178
      5          6           0       -2.209068   -0.750271    0.860228
      6          6           0       -3.165962   -1.576514   -0.011044
      7          8           0       -3.510137   -2.819430    0.578465
      8          6           0        0.524651    0.595300    0.522195
      9          6           0        0.890656    0.657977    1.872277
     10          6           0        2.114883    0.164989    2.301860
     11          6           0        2.992111   -0.384673    1.374453
     12          6           0        2.657471   -0.463719    0.021669
     13          6           0        3.663227   -1.047295   -0.945590
     14          6           0        1.405653    0.019680   -0.415011
     15          6           0        1.005393   -0.113538   -1.872083
     16          6           0        0.413017   -1.492690   -2.218075
     17          1           0       -1.688870    4.359624   -1.200180
     18          1           0       -2.638539    3.452003   -0.019993
     19          1           0       -2.410625    2.809815   -1.652679
     20          1           0       -0.159560    3.238806    0.409050
     21          1           0        0.090993    2.656631   -1.206300
     22          1           0       -2.860673    1.174725    0.039732
     23          1           0       -2.666437   -0.674244    1.856996
     24          1           0       -1.264337   -1.290690    0.988793
     25          1           0       -2.738929   -1.712836   -1.017406
     26          1           0       -4.112008   -1.038073   -0.137999
     27          1           0       -2.700338   -3.330345    0.676795
     28          1           0        0.201280    1.104970    2.581432
     29          1           0        2.388122    0.215700    3.350765
     30          1           0        3.957731   -0.759102    1.701319
     31          1           0        4.561531   -1.373831   -0.415622
     32          1           0        3.974406   -0.313632   -1.698766
     33          1           0        3.269369   -1.910866   -1.491101
     34          1           0        1.871712    0.074132   -2.515459
     35          1           0        0.262157    0.646349   -2.124775
     36          1           0        1.109263   -2.304708   -1.988504
     37          1           0        0.165405   -1.552537   -3.282834
     38          1           0       -0.503041   -1.671735   -1.648435
 ---------------------------------------------------------------------

 SCF Done:  E(RB3LYP) =  -660.107076616     A.U. after    1 cycles

 The electronic state is 1-A.
 Alpha  occ. eigenvalues --  -19.12931 -10.22219 -10.18875 -10.18673 -10.18613
 Alpha  occ. eigenvalues --  -10.18582 -10.18496 -10.18269 -10.18057 -10.17861
 Alpha  occ. eigenvalues --  -10.17800 -10.17717 -10.17698 -10.17661 -10.17562
 Alpha  occ. eigenvalues --  -10.17472  -1.01035  -0.86002  -0.81404  -0.78243
 Alpha  occ. eigenvalues --   -0.76420  -0.75859  -0.72624  -0.69432  -0.67919
 Alpha  occ. eigenvalues --   -0.64253  -0.62750  -0.60312  -0.58805  -0.56478
 Alpha  occ. eigenvalues --   -0.51898  -0.49809  -0.48477  -0.47721  -0.46225
 Alpha  occ. eigenvalues --   -0.45439  -0.44092  -0.43171  -0.42177  -0.41576
 Alpha  occ. eigenvalues --   -0.41052  -0.40574  -0.40370  -0.38805  -0.38375
 Alpha  occ. eigenvalues --   -0.37810  -0.36979  -0.36595  -0.35447  -0.35049
 Alpha  occ. eigenvalues --   -0.34868  -0.34360  -0.33250  -0.32149  -0.31589
 Alpha  occ. eigenvalues --   -0.30870  -0.26645  -0.23992  -0.23437  -0.23091
 Alpha virt. eigenvalues --    0.00027   0.00450   0.02699   0.07142   0.08729
 Alpha virt. eigenvalues --    0.09800   0.10594   0.11346   0.12457   0.13190
 Alpha virt. eigenvalues --    0.13920   0.14216   0.15095   0.15331   0.15824

 Mulliken charges:
               1
     1  C   -0.396499
     2  C   -0.244845
     3  C    0.146488
     4  C   -0.128127
     5  C   -0.282692
     6  C   -0.057594
     7  O   -0.417305
     8  C    0.159504
     9  C   -0.200299
    10  C   -0.120325
    11  C   -0.200981
    12  C    0.257048
    13  C   -0.506457
    14  C    0.099199
    15  C   -0.292369
    16  C   -0.387667
    17  H    0.111332
    18  H    0.122299
    19  H    0.120474
    20  H    0.111392
    21  H    0.109036
    22  H    0.080743
    23  H    0.111487
    24  H    0.097826
    25  H    0.094954
    26  H    0.108470
    27  H    0.281204
    28  H    0.091582
    29  H    0.093305
    30  H    0.086475
    31  H    0.120316
    32  H    0.132000
    33  H    0.130885
    34  H    0.098404
    35  H    0.106241
    36  H    0.119768
    37  H    0.112478
    38  H    0.132249
 Sum of Mulliken charges =  -0.00000

 Dipole moment (field-independent basis, Debye):
    X=              1.6962    Y=              0.5861    Z=             -0.6725  Tot=              1.9165
 Quadrupole moment (field-independent basis, Debye-Ang):
   XX=           -103.6788   YY=            -98.1193   ZZ=            -95.6217
   XY=             -8.3577   XZ=              1.1227   YZ=              0.6799

  Exact polarizability: 191.601 -13.073 144.574   3.740   3.295 160.547
 Approx polarizability: 276.783 -19.041 206.983   1.454   5.727 257.526

                      1                      2                      3
                      A                      A                      A
 Frequencies --     38.3029                48.8624                65.7136
 Red. masses --      3.9221                 4.4250                 3.2533
 Frc consts  --      0.0034                 0.0062                 0.0083
 IR Inten    --      0.0213                 0.3755                 0.4855

                      4                      5                      6
                      A                      A                      A
 Frequencies --     68.5945                94.0848               104.9254
 Red. masses --      2.5186                 2.1761                 2.7694
 Frc consts  --      0.0070                 0.0113                 0.0180
 IR Inten    --      0.3938                 2.0895                 0.3854

                      7                      8                      9
                      A                      A                      A
 Frequencies --    116.3658               130.0249               144.9236
 Red. masses --      1.9560                 3.3018                 1.2328
 Frc consts  --      0.0156                 0.0329                 0.0153
 IR Inten    --      0.9529                 0.7416                 0.2483

                     10                     11                     12
                      A                      A                      A
 Frequencies --    184.3094               199.3377               204.8621
 Red. masses --      1.7736                 2.1265                 1.6070
 Frc consts  --      0.0355                 0.0498                 0.0397
 IR Inten    --      0.8446                 0.2821                 0.9384

                     13                     14                     15
                      A                      A                      A
 Frequencies --    218.6040               239.6801               265.7546
 Red. masses --      2.4591                 3.1308                 1.2596
 Frc consts  --      0.0692                 0.1060                 0.0524
 IR Inten    --      1.5400                 0.1621                 0.4511

                     16                     17                     18
                      A                      A                      A
 Frequencies --    304.5241               312.1171               333.6714
 Red. masses --      1.2968                 2.6133                 2.4208
 Frc consts  --      0.0709                 0.1500                 0.1588
 IR Inten    --     62.7901                 7.0489                13.8697

                     19                     20                     21
                      A                      A                      A
 Frequencies --    339.7069               365.8134               419.9228
 Red. masses --      2.3053                 3.3759                 3.6702
 Frc consts  --      0.1567                 0.2662                 0.3813
 IR Inten    --     15.1333                 4.8729                 5.1833

                     22                     23                     24
                      A                      A                      A
 Frequencies --    422.2004               479.4244               515.2786
 Red. masses --      2.7163                 3.5615                 4.1482
 Frc consts  --      0.2853                 0.4823                 0.6489
 IR Inten    --      0.6753                 2.6698                 0.2591

                     25                     26                     27
                      A                      A                      A
 Frequencies --    554.6718               590.3147               600.8330
 Red. masses --      3.9833                 3.1444                 4.1705
 Frc consts  --      0.7220                 0.6456                 0.8870
 IR Inten    --      1.4321                 2.1702                 1.9411

                     28                     29                     30
                      A                      A                      A
 Frequencies --    615.8404               663.1610               771.0560
 Red. masses --      3.2133                 3.1862                 1.3901
 Frc consts  --      0.7180                 0.8256                 0.4869
 IR Inten    --      3.8469                 1.3966                 1.0255

                     31                     32                     33
                      A                      A                      A
 Frequencies --    776.6309               781.0814               785.6742
 Red. masses --      1.7116                 1.3521                 1.2926
 Frc consts  --      0.6083                 0.4860                 0.4701
 IR Inten    --      5.6735                 8.8074                 7.0685

                     34                     35                     36
                      A                      A                      A
 Frequencies --    802.1453               810.5874               868.6174
 Red. masses --      2.7490                 2.0148                 2.4134
 Frc consts  --      1.0422                 0.7800                 1.0728
 IR Inten    --      0.8299                 9.4134                 6.0367

                     37                     38                     39
                      A                      A                      A
 Frequencies --    888.6617               912.3351               953.1505
 Red. masses --      1.3037                 1.3965                 1.3755
 Frc consts  --      0.6066                 0.6849                 0.7363
 IR Inten    --      9.3698                 0.6485                 1.6366

                     40                     41                     42
                      A                      A                      A
 Frequencies --    959.2278               973.4274               995.8270
 Red. masses --      1.9648                 2.4316                 1.9517
 Frc consts  --      1.0651                 1.3576                 1.1404
 IR Inten    --      3.2520                 1.4469                 6.4643

                     43                     44                     45
                      A                      A                      A
 Frequencies --   1018.0673              1039.3712              1052.7759
 Red. masses --      1.5275                 2.9705                 1.5542
 Frc consts  --      0.9328                 1.8907                 1.0149
 IR Inten    --      3.1234                 8.6220                 2.7539

                     46                     47                     48
                      A                      A                      A
 Frequencies --   1073.2001              1077.6986              1080.6460
 Red. masses --      2.7141                 2.2871                 2.2979
 Frc consts  --      1.8417                 1.5650                 1.5810
 IR Inten    --    104.1704                11.4266                 4.4351

                     49                     50                     51
                      A                      A                      A
 Frequencies --   1085.9191              1102.0179              1108.3640
 Red. masses --      2.0210                 1.8461                 1.9069
 Frc consts  --      1.4041                 1.3210                 1.3802
 IR Inten    --     24.4644                 1.3322                 2.7339

                     52                     53                     54
                      A                      A                      A
 Frequencies --   1116.9656              1129.8534              1181.0920
 Red. masses --      1.9056                 1.6309                 1.3542
 Frc consts  --      1.4007                 1.2267                 1.1130
 IR Inten    --      2.7113                 3.7249                 8.4433

                     55                     56                     57
                      A                      A                      A
 Frequencies --   1193.1586              1208.6150              1252.7222
 Red. masses --      1.6040                 2.0773                 1.9047
 Frc consts  --      1.3454                 1.7878                 1.7611
 IR Inten    --      3.6379                 3.1261                 1.7412

                     58                     59                     60
                      A                      A                      A
 Frequencies --   1267.9470              1279.9134              1283.7521
 Red. masses --      1.8565                 1.6415                 1.4267
 Frc consts  --      1.7585                 1.5844                 1.3853
 IR Inten    --      1.2416                 0.6074                 2.4988

                     61                     62                     63
                      A                      A                      A
 Frequencies --   1296.2222              1315.8690              1332.9100
 Red. masses --      1.2860                 1.1936                 2.1377
 Frc consts  --      1.2731                 1.2177                 2.2377
 IR Inten    --      1.8162                 1.5154                 0.2743

                     64                     65                     66
                      A                      A                      A
 Frequencies --   1351.7051              1356.4172              1386.0656
 Red. masses --      1.4674                 1.4335                 1.3629
 Frc consts  --      1.5796                 1.5539                 1.5427
 IR Inten    --      5.3189                 5.8130                15.0715

                     67                     68                     69
                      A                      A                      A
 Frequencies --   1400.2192              1401.4634              1413.7945
 Red. masses --      1.3570                 1.2326                 1.3272
 Frc consts  --      1.5675                 1.4264                 1.5630
 IR Inten    --      5.1897                 1.8482                10.1636

                     70                     71                     72
                      A                      A                      A
 Frequencies --   1417.6055              1421.1037              1457.9463
 Red. masses --      1.2511                 1.2764                 2.1824
 Frc consts  --      1.4814                 1.5187                 2.7332
 IR Inten    --      3.8134                42.1440                 2.0692

                     73                     74                     75
                      A                      A                      A
 Frequencies --   1475.7097              1478.8386              1483.4899
 Red. masses --      1.0779                 1.0843                 1.2594
 Frc consts  --      1.3830                 1.3972                 1.6330
 IR Inten    --      3.1558                 1.3408                 4.8225

                     76                     77                     78
                      A                      A                      A
 Frequencies --   1485.5821              1489.8140              1496.1726
 Red. masses --      1.0507                 1.6492                 1.0791
 Frc consts  --      1.3663                 2.1567                 1.4233
 IR Inten    --      4.9710                 3.1602                 1.6435

                     79                     80                     81
                      A                      A                      A
 Frequencies --   1497.3659              1506.1855              1506.6664
 Red. masses --      1.0436                 1.1451                 1.2046
 Frc consts  --      1.3786                 1.5306                 1.6111
 IR Inten    --      5.9967                 5.7618                 8.3909

                     82                     83                     84
                      A                      A                      A
 Frequencies --   1508.7158              1512.2838              1617.6357
 Red. masses --      1.0687                 1.0950                 6.6351
 Frc consts  --      1.4333                 1.4754                10.2297
 IR Inten    --      4.8695                 1.6209                 3.9029

                     85                     86                     87
                      A                      A                      A
 Frequencies --   1626.1945              1724.2817              2977.7189
 Red. masses --      5.4852                 7.6153                 1.0691
 Frc consts  --      8.5465                13.3399                 5.5854
 IR Inten    --      1.2558                 1.2195                40.7278

                     88                     89                     90
                      A                      A                      A
 Frequencies --   3005.4458              3009.4049              3027.7124
 Red. masses --      1.0637                 1.0640                 1.0951
 Frc consts  --      5.6609                 5.6773                 5.9150
 IR Inten    --     24.8559                33.3074                13.3520

                     91                     92                     93
                      A                      A                      A
 Frequencies --   3029.9153              3036.2856              3040.4152
 Red. masses --      1.0396                 1.0352                 1.0355
 Frc consts  --      5.6232                 5.6230                 5.6397
 IR Inten    --     23.1136                23.1818                29.9768

                     94                     95                     96
                      A                      A                      A
 Frequencies --   3047.2494              3053.3459              3074.1394
 Red. masses --      1.0645                 1.0909                 1.0979
 Frc consts  --      5.8238                 5.9921                 6.1132
 IR Inten    --     26.1028                 2.6254                47.8705

                     97                     98                     99
                      A                      A                      A
 Frequencies --   3083.1468              3092.7222              3104.6377
 Red. masses --      1.0965                 1.0966                 1.1017
 Frc consts  --      6.1411                 6.1798                 6.2563
 IR Inten    --     17.3570                 2.8299                26.1853

                    100                    101                    102
                      A                      A                      A
 Frequencies --   3106.1689              3109.1187              3113.5897
 Red. masses --      1.1011                 1.0992                 1.1001
 Frc consts  --      6.2595                 6.2604                 6.2837
 IR Inten    --     27.6820                46.7165                17.4058

                    103                    104                    105
                      A                      A                      A
 Frequencies --   3122.0034              3141.8369              3161.9818
 Red. masses --      1.1016                 1.0863                 1.0851
 Frc consts  --      6.3259                 6.3175                 6.3920
 IR Inten    --     32.2208                23.5238                 4.9574

                    106                    107                    108
                      A                      A                      A
 Frequencies --   3173.1300              3190.3502              3814.5753
 Red. masses --      1.0892                 1.0967                 1.0661
 Frc consts  --      6.4613                 6.5768                 9.1398
 IR Inten    --     18.3418                22.6298                12.8151

 - Thermochemistry -
 -------------------
 Temperature   298.150 Kelvin.  Pressure   1.00000 Atm.
 Atom     1 has atomic number  6 and mass  12.00000

 Molecular mass:   218.16707 amu.
 Principal axes and moments of inertia in atomic units:
                           1         2         3
     Eigenvalues --  3179.221495047.890935816.96450
           X            0.99902  -0.04385  -0.00612
           Y            0.04392   0.99897   0.01146
           Z            0.00561  -0.01172   0.99992
 This molecule is an asymmetric top.
 Rotational symmetry number  1.
 Warning -- assumption of classical behavior for rotation
           may cause significant error
 Rotational temperatures (Kelvin)      0.02724     0.01716     0.01489
 Rotational constants (GHZ):           0.56767     0.35752     0.31025
 Zero-point vibrational energy     878941.1 (Joules/Mol)
                                  210.07197 (Kcal/Mol)
 Warning -- explicit consideration of  28 degrees of freedom as
           vibrations may cause significant error
 Vibrational temperatures:     55.11    70.30    94.55    98.69   135.37
          (Kelvin)            150.96   167.42   187.08   208.51   265.18
                              286.80   294.75   314.52   344.85   382.36
                              438.14   449.07   480.08   488.76   526.32
                              604.18   607.45   689.78   741.37   798.05
                              849.33   864.46   886.06   954.14  1109.38
                             1117.40  1123.80  1130.41  1154.11  1166.25
                             1249.75  1278.59  1312.65  1371.37  1380.11
                             1400.54  1432.77  1464.77  1495.42  1514.71
                             1544.10  1550.57  1554.81  1562.40  1585.56
                             1594.69  1607.06  1625.61  1699.33  1716.69
                             1738.93  1802.39  1824.29  1841.51  1847.03
                             1864.97  1893.24  1917.76  1944.80  1951.58
                             1994.24  2014.60  2016.39  2034.13  2039.62
                             2044.65  2097.66  2123.22  2127.72  2134.41
                             2137.42  2143.51  2152.66  2154.38  2167.06
                             2167.76  2170.71  2175.84  2327.42  2339.73
                             2480.86  4284.27  4324.17  4329.86  4356.20
                             4359.37  4368.54  4374.48  4384.31  4393.08
                             4423.00  4435.96  4449.74  4466.88  4469.08
                             4473.33  4479.76  4491.87  4520.40  4549.39
                             4565.43  4590.20  5488.32

 Zero-point correction=                           0.334771 (Hartree/Particle)
 Thermal correction to Energy=                    0.352733
 Thermal correction to Enthalpy=                  0.353677
 Thermal correction to Gibbs Free Energy=         0.288821
 Sum of electronic and zero-point Energies=           -659.772306
 Sum of electronic and thermal Energies=              -659.754344
 Sum of electronic and thermal Enthalpies=            -659.753400
 Sum of electronic and thermal Free Energies=         -659.818255

                     E (Thermal)             CV                S
                      KCal/Mol        Cal/Mol-Kelvin    Cal/Mol-Kelvin
 Total                  221.343             67.053            136.500
 Electronic               0.000              0.000              0.000
 Translational            0.889              2.981             42.043
 Rotational               0.889              2.981             32.901
 Vibrational            219.566             61.091             61.556
 Vibration     1          0.594              1.982              5.345
 Vibration     2          0.595              1.978              4.863
 Vibration     3          0.597              1.971              4.278
 Vibration     4          0.598              1.969              4.193
 Vibration     5          0.603              1.953              3.573
 Vibration     6          0.605              1.945              3.361
 Vibration     7          0.608              1.936              3.160
 Vibration     8          0.612              1.923              2.946
 Vibration     9          0.616              1.908              2.738
 Vibration    10          0.631              1.861              2.284
 Vibration    11          0.637              1.841              2.139
 Vibration    12          0.640              1.833              2.089
 Vibration    13          0.646              1.813              1.971
 Vibration    14          0.657              1.780              1.805
 Vibration    15          0.672              1.736              1.624
 Vibration    16          0.695              1.665              1.392
 Vibration    17          0.700              1.651              1.351
 Vibration    18          0.715              1.608              1.242
 Vibration    19          0.720              1.596              1.214
 Vibration    20          0.739              1.543              1.097
 Vibration    21          0.783              1.427              0.892
 Vibration    22          0.785              1.422              0.885
 Vibration    23          0.836              1.296              0.712
 Vibration    24          0.870              1.216              0.621
 Vibration    25          0.910              1.129              0.535
 Vibration    26          0.948              1.052              0.467
 Vibration    27          0.959              1.030              0.448
 Vibration    28          0.975              0.998              0.423

                           ! Non-Optimized Parameters !
 Normal termination of Gaussian 16 at Wed May 24 23:53:20 2023.
