 Gaussian 16, Revision A.03,
 Gaussian 16:  ES64L-G16RevA.03 25-Dec-2016

 -----------------------------
 # opt freq b3lyp/6-31g(2df,p)
 -----------------------------

 -------------------
 Title Card Required
 -------------------
 Symbolic Z-matrix:
 Charge =  0 Multiplicity = 1

 SCF Done:  E(RB3LYP) =  -756.159302641     A.U. after   12 cycles
 SCF Done:  E(RB3LYP) =  -756.188872312     A.U. after   10 cycles
 SCF Done:  E(RB3LYP) =  -756.194612031     A.U. after   11 cycles
 SCF Done:  E(RB3LYP) =  -756.201024077     A.U. after   10 cycles
 SCF Done:  E(RB3LYP) =  -756.201363497     A.U. after   10 cycles
 SCF Done:  E(RB3LYP) =  -756.203257141     A.U. after   10 cycles
 SCF Done:  E(RB3LYP) =  -756.205542996     A.U. after   11 cycles
 SCF Done:  E(RB3LYP) =  -756.205563186     A.U. after    9 cycles
 SCF Done:  E(RB3LYP) =  -756.204181898     A.U. after   10 cycles
 SCF Done:  E(RB3LYP) =  -756.206942761     A.U. after   10 cycles
 SCF Done:  E(RB3LYP) =  -756.226597039     A.U. after   10 cycles
 SCF Done:  E(RB3LYP) =  -756.226690699     A.U. after    9 cycles
 SCF Done:  E(RB3LYP) =  -756.226811925     A.U. after    9 cycles
 SCF Done:  E(RB3LYP) =  -756.226838259     A.U. after    9 cycles
 SCF Done:  E(RB3LYP) =  -756.226845615     A.U. after    9 cycles
 SCF Done:  E(RB3LYP) =  -756.226848778     A.U. after    7 cycles
 SCF Done:  E(RB3LYP) =  -756.226849323     A.U. after    7 cycles
 SCF Done:  E(RB3LYP) =  -756.226849439     A.U. after    6 cycles
 SCF Done:  E(RB3LYP) =  -756.226849413     A.U. after    5 cycles
 Optimization completed.
    -- Stationary point found.
 Normal termination of Gaussian 16 at Tue May 23 18:10:55 2023.

 ----------------------------------------------------------------------
 #N Geom=AllCheck Guess=TCheck SCRF=Check GenChk RB3LYP/6-31G(2df,p) Fr
 eq
 ----------------------------------------------------------------------

 Structure from the checkpoint file:  "CCCqOrCqNrCqOrCC1CCqCrCCqCrC1.chk"
 -------------------
 Title Card Required
 -------------------
 Charge =  0 Multiplicity = 1

                         Standard orientation:
 ---------------------------------------------------------------------
 Center     Atomic      Atomic             Coordinates (Angstroms)
 Number     Number       Type             X           Y           Z
 ---------------------------------------------------------------------
      1          6           0        5.949856   -0.649146   -0.312125
      2          6           0        4.580177   -0.408660   -0.953238
      3          6           0        3.490025   -0.106435    0.079566
      4          8           0        3.929205    1.025538    0.808886
      5          6           0        2.093408    0.124492   -0.563987
      6          7           0        1.650563   -0.973184   -1.436958
      7          6           0        0.973728    0.339289    0.489285
      8          8           0        1.334693    1.308723    1.492405
      9          6           0       -0.369100    0.710939   -0.146622
     10          6           0       -1.558159    0.734355    0.836950
     11          6           0       -2.768432    1.493455    0.255843
     12          6           0       -3.494231    0.728933   -0.864810
     13          6           0       -4.695621    1.519201   -1.393121
     14          6           0       -3.909522   -0.664521   -0.365694
     15          6           0       -2.729199   -1.475214    0.193925
     16          6           0       -3.183730   -2.842196    0.716094
     17          6           0       -2.003569   -0.672977    1.288742
     18          1           0        6.712428   -0.836400   -1.074455
     19          1           0        5.924188   -1.518270    0.355140
     20          1           0        6.253217    0.217067    0.279161
     21          1           0        4.292700   -1.286727   -1.541310
     22          1           0        4.639678    0.440991   -1.646699
     23          1           0        3.397607   -0.985909    0.749689
     24          1           0        3.202593    1.252419    1.407404
     25          1           0        2.162908    1.031066   -1.182312
     26          1           0        1.777736   -1.863700   -0.960960
     27          1           0        2.226743   -1.013150   -2.270105
     28          1           0        0.874418   -0.596828    1.054380
     29          1           0        1.220674    2.182465    1.099273
     30          1           0       -0.543470    0.029312   -0.981031
     31          1           0       -0.255394    1.711927   -0.593844
     32          1           0       -1.220615    1.278190    1.727698
     33          1           0       -2.451845    2.479255   -0.108863
     34          1           0       -3.487740    1.682313    1.065817
     35          1           0       -2.791414    0.590920   -1.699105
     36          1           0       -5.432972    1.689357   -0.599252
     37          1           0       -5.199850    0.982607   -2.204139
     38          1           0       -4.391221    2.498691   -1.777824
     39          1           0       -4.395279   -1.222981   -1.176255
     40          1           0       -4.668104   -0.547710    0.424165
     41          1           0       -2.023684   -1.652299   -0.630401
     42          1           0       -3.893342   -2.729920    1.544723
     43          1           0       -2.336371   -3.431210    1.083812
     44          1           0       -3.679976   -3.423312   -0.068750
     45          1           0       -1.147795   -1.247619    1.663153
     46          1           0       -2.684743   -0.561437    2.144416
 ---------------------------------------------------------------------

 SCF Done:  E(RB3LYP) =  -756.226849413     A.U. after    1 cycles

 The electronic state is 1-A.
 Alpha  occ. eigenvalues --  -19.15531 -19.11119 -14.31678 -10.23538 -10.22056
 Alpha  occ. eigenvalues --  -10.20999 -10.17953 -10.17918 -10.17896 -10.17475
 Alpha  occ. eigenvalues --  -10.17405 -10.17178 -10.17160 -10.17001 -10.16831
 Alpha  occ. eigenvalues --  -10.16821 -10.16290  -1.03508  -0.99693  -0.89030
 Alpha  occ. eigenvalues --   -0.83700  -0.77782  -0.76901  -0.76660  -0.73207
 Alpha  occ. eigenvalues --   -0.68663  -0.67233  -0.66839  -0.64255  -0.60164
 Alpha  occ. eigenvalues --   -0.58379  -0.56829  -0.56697  -0.53559  -0.51631
 Alpha  occ. eigenvalues --   -0.49861  -0.46987  -0.46840  -0.46211  -0.45360
 Alpha  occ. eigenvalues --   -0.44427  -0.43999  -0.42173  -0.41726  -0.41302
 Alpha  occ. eigenvalues --   -0.40850  -0.40388  -0.38895  -0.38597  -0.37836
 Alpha  occ. eigenvalues --   -0.37194  -0.36483  -0.35701  -0.35465  -0.35047
 Alpha  occ. eigenvalues --   -0.34332  -0.33761  -0.33239  -0.32685  -0.32588
 Alpha  occ. eigenvalues --   -0.32030  -0.31602  -0.30301  -0.28962  -0.28557
 Alpha  occ. eigenvalues --   -0.27681  -0.26408  -0.22806
 Alpha virt. eigenvalues --    0.06248   0.07147   0.08459   0.09351   0.09882
 Alpha virt. eigenvalues --    0.10665   0.11494   0.12376   0.13334   0.14047
 Alpha virt. eigenvalues --    0.14476   0.15327   0.15604   0.15842   0.16325

 Mulliken charges:
               1
     1  C   -0.382448
     2  C   -0.174106
     3  C    0.132266
     4  O   -0.448438
     5  C   -0.058629
     6  N   -0.510326
     7  C    0.114954
     8  O   -0.440085
     9  C   -0.218948
    10  C   -0.015757
    11  C   -0.214447
    12  C    0.028709
    13  C   -0.402645
    14  C   -0.169996
    15  C    0.024180
    16  C   -0.401603
    17  C   -0.199153
    18  H    0.103079
    19  H    0.107045
    20  H    0.140667
    21  H    0.075696
    22  H    0.094346
    23  H    0.044123
    24  H    0.283795
    25  H    0.074714
    26  H    0.226101
    27  H    0.237190
    28  H    0.087449
    29  H    0.286094
    30  H    0.135552
    31  H    0.072072
    32  H    0.070345
    33  H    0.078578
    34  H    0.084471
    35  H    0.072278
    36  H    0.110114
    37  H    0.107427
    38  H    0.106550
    39  H    0.082824
    40  H    0.083155
    41  H    0.076725
    42  H    0.110348
    43  H    0.105657
    44  H    0.107336
    45  H    0.085989
    46  H    0.086753
 Sum of Mulliken charges =  -0.00000

 Dipole moment (field-independent basis, Debye):
    X=             -1.1169    Y=             -0.4335    Z=             -1.1402  Tot=              1.6539
 Quadrupole moment (field-independent basis, Debye-Ang):
   XX=           -119.4924   YY=           -104.2965   ZZ=           -109.5986
   XY=             -4.7070   XZ=             -5.6843   YZ=              0.1161

  Exact polarizability: 198.841  -2.852 158.775   1.404  -0.829 144.341
 Approx polarizability: 233.404   1.075 234.674  -2.017   1.512 227.457

                      1                      2                      3
                      A                      A                      A
 Frequencies --     21.4908                31.7633                39.5194
 Red. masses --      3.7281                 3.6608                 3.8052
 Frc consts  --      0.0010                 0.0022                 0.0035
 IR Inten    --      0.4245                 0.0459                 0.0767

                      4                      5                      6
                      A                      A                      A
 Frequencies --     69.9642                77.5996                98.1863
 Red. masses --      4.3365                 3.4270                 2.1247
 Frc consts  --      0.0125                 0.0122                 0.0121
 IR Inten    --      2.0708                 0.1053                 0.3033

                      7                      8                      9
                      A                      A                      A
 Frequencies --    124.5214               147.3362               163.5863
 Red. masses --      3.6408                 2.2356                 2.4749
 Frc consts  --      0.0333                 0.0286                 0.0390
 IR Inten    --      0.0162                 0.0189                 0.4251

                     10                     11                     12
                      A                      A                      A
 Frequencies --    199.2315               218.6213               223.1066
 Red. masses --      3.1784                 1.8166                 1.2386
 Frc consts  --      0.0743                 0.0512                 0.0363
 IR Inten    --      0.8939                 1.2462                 1.7659

                     13                     14                     15
                      A                      A                      A
 Frequencies --    234.3039               241.5762               251.2435
 Red. masses --      1.1274                 1.3283                 1.5219
 Frc consts  --      0.0365                 0.0457                 0.0566
 IR Inten    --      0.2008                 0.3336                11.8295

                     16                     17                     18
                      A                      A                      A
 Frequencies --    253.0915               295.8696               301.1106
 Red. masses --      1.5005                 1.9023                 2.4218
 Frc consts  --      0.0566                 0.0981                 0.1294
 IR Inten    --     10.9919                27.5048                13.6157

                     19                     20                     21
                      A                      A                      A
 Frequencies --    310.0548               332.5693               363.5428
 Red. masses --      2.7623                 1.6821                 2.4219
 Frc consts  --      0.1565                 0.1096                 0.1886
 IR Inten    --      5.2874               161.4882                 4.2661

                     22                     23                     24
                      A                      A                      A
 Frequencies --    373.6728               384.6357               387.2993
 Red. masses --      2.9603                 2.5782                 3.9831
 Frc consts  --      0.2435                 0.2247                 0.3520
 IR Inten    --      3.2398                 1.9798                 8.2549

                     25                     26                     27
                      A                      A                      A
 Frequencies --    429.3423               434.9321               457.1151
 Red. masses --      2.3580                 2.3542                 2.2006
 Frc consts  --      0.2561                 0.2624                 0.2709
 IR Inten    --      0.0364                 0.9914                 1.7217

                     28                     29                     30
                      A                      A                      A
 Frequencies --    463.9770               492.8767               534.4146
 Red. masses --      2.2366                 2.5624                 3.5909
 Frc consts  --      0.2837                 0.3667                 0.6042
 IR Inten    --      2.7894                12.0354                 2.8536

                     31                     32                     33
                      A                      A                      A
 Frequencies --    546.4556               571.4159               652.9702
 Red. masses --      3.0064                 2.9960                 2.9690
 Frc consts  --      0.5289                 0.5764                 0.7458
 IR Inten    --      8.0390                13.2380                 4.4472

                     34                     35                     36
                      A                      A                      A
 Frequencies --    686.4443               785.2990               806.3062
 Red. masses --      1.0848                 1.3832                 2.4541
 Frc consts  --      0.3012                 0.5026                 0.9400
 IR Inten    --     69.8916                 1.0900                 0.5395

                     37                     38                     39
                      A                      A                      A
 Frequencies --    829.5331               842.2390               852.7756
 Red. masses --      2.3708                 2.1404                 1.5994
 Frc consts  --      0.9612                 0.8946                 0.6853
 IR Inten    --      0.2573                13.5872               122.1236

                     40                     41                     42
                      A                      A                      A
 Frequencies --    855.9177               876.6235               896.3248
 Red. masses --      1.5198                 1.5206                 1.9692
 Frc consts  --      0.6560                 0.6885                 0.9321
 IR Inten    --      3.6659                 2.3339                 5.5168

                     43                     44                     45
                      A                      A                      A
 Frequencies --    905.6432               944.4114               953.2816
 Red. masses --      1.7774                 2.0259                 2.5903
 Frc consts  --      0.8589                 1.0646                 1.3869
 IR Inten    --     37.1642                16.6697                 1.7457

                     46                     47                     48
                      A                      A                      A
 Frequencies --    957.5812               968.6460               997.1591
 Red. masses --      1.7354                 1.6491                 1.8609
 Frc consts  --      0.9376                 0.9116                 1.0902
 IR Inten    --      0.7505                 2.8197                33.7187

                     49                     50                     51
                      A                      A                      A
 Frequencies --   1013.6276              1018.5946              1034.0224
 Red. masses --      2.0021                 1.4873                 1.8383
 Frc consts  --      1.2120                 0.9092                 1.1581
 IR Inten    --      5.6101                 0.4251                 5.9632

                     52                     53                     54
                      A                      A                      A
 Frequencies --   1046.7534              1051.6283              1071.5896
 Red. masses --      2.5082                 2.0276                 2.6760
 Frc consts  --      1.6192                 1.3211                 1.8104
 IR Inten    --      0.6638                 5.4288                37.1926

                     55                     56                     57
                      A                      A                      A
 Frequencies --   1074.9667              1084.3193              1111.6069
 Red. masses --      1.8153                 2.2330                 2.1388
 Frc consts  --      1.2359                 1.5469                 1.5572
 IR Inten    --      7.9787                10.3066                 6.1146

                     58                     59                     60
                      A                      A                      A
 Frequencies --   1118.9782              1124.6328              1125.0141
 Red. masses --      1.9332                 2.4915                 1.6265
 Frc consts  --      1.4262                 1.8567                 1.2129
 IR Inten    --      2.0180                 1.1561                 0.6157

                     61                     62                     63
                      A                      A                      A
 Frequencies --   1144.5044              1150.6393              1170.2840
 Red. masses --      1.3945                 1.7175                 1.9409
 Frc consts  --      1.0762                 1.3397                 1.5661
 IR Inten    --     18.9080                 6.0768                42.6059

                     64                     65                     66
                      A                      A                      A
 Frequencies --   1182.2346              1197.5626              1207.2319
 Red. masses --      1.8591                 2.1306                 1.4914
 Frc consts  --      1.5309                 1.8003                 1.2806
 IR Inten    --      1.5172                 3.1510                 3.7666

                     67                     68                     69
                      A                      A                      A
 Frequencies --   1243.3159              1269.2569              1282.1214
 Red. masses --      1.3995                 1.3997                 1.3972
 Frc consts  --      1.2747                 1.3285                 1.3532
 IR Inten    --      8.8452                11.8180                 3.0322

                     70                     71                     72
                      A                      A                      A
 Frequencies --   1289.0596              1301.0059              1302.8324
 Red. masses --      1.2206                 1.3092                 1.2642
 Frc consts  --      1.1950                 1.3056                 1.2643
 IR Inten    --     26.2398                 4.4426                 1.5040

                     73                     74                     75
                      A                      A                      A
 Frequencies --   1309.3116              1332.1444              1334.4610
 Red. masses --      1.3259                 1.1788                 1.3163
 Frc consts  --      1.3392                 1.2325                 1.3811
 IR Inten    --      0.6830                12.5990                 0.4091

                     76                     77                     78
                      A                      A                      A
 Frequencies --   1339.6637              1351.5798              1368.2964
 Red. masses --      1.2885                 1.3447                 1.3546
 Frc consts  --      1.3625                 1.4473                 1.4943
 IR Inten    --      3.0771                12.0504                 0.2923

                     79                     80                     81
                      A                      A                      A
 Frequencies --   1369.9495              1376.1013              1378.9669
 Red. masses --      1.3471                 1.3421                 1.3286
 Frc consts  --      1.4896                 1.4974                 1.4885
 IR Inten    --     13.6758                 1.9984                 0.5123

                     82                     83                     84
                      A                      A                      A
 Frequencies --   1383.3499              1389.0033              1397.0146
 Red. masses --      1.4899                 1.4938                 1.3906
 Frc consts  --      1.6798                 1.6980                 1.5990
 IR Inten    --      6.9480                 4.4673                 1.1692

                     85                     86                     87
                      A                      A                      A
 Frequencies --   1398.9624              1403.6482              1405.7323
 Red. masses --      1.4426                 1.3993                 1.2849
 Frc consts  --      1.6634                 1.6243                 1.4960
 IR Inten    --      1.1740                 4.4019                 2.2610

                     88                     89                     90
                      A                      A                      A
 Frequencies --   1412.1530              1415.5467              1415.7177
 Red. masses --      1.2583                 1.2342                 1.2680
 Frc consts  --      1.4784                 1.4570                 1.4973
 IR Inten    --      5.4253                30.5873                14.5858

                     91                     92                     93
                      A                      A                      A
 Frequencies --   1468.2439              1478.3890              1478.8773
 Red. masses --      1.4493                 1.0909                 1.0779
 Frc consts  --      1.8408                 1.4048                 1.3889
 IR Inten    --     74.1317                 0.1375                 0.3315

                     94                     95                     96
                      A                      A                      A
 Frequencies --   1480.9140              1490.3569              1495.0220
 Red. masses --      1.0944                 1.0828                 1.0416
 Frc consts  --      1.4141                 1.4170                 1.3716
 IR Inten    --      1.9033                 6.3222                 4.7991

                     97                     98                     99
                      A                      A                      A
 Frequencies --   1495.3688              1497.3698              1499.8724
 Red. masses --      1.0615                 1.0477                 1.0624
 Frc consts  --      1.3986                 1.3840                 1.4081
 IR Inten    --      2.7947                 1.4780                 3.4242

                    100                    101                    102
                      A                      A                      A
 Frequencies --   1499.9259              1501.4307              1510.3673
 Red. masses --      1.0675                 1.0609                 1.0661
 Frc consts  --      1.4150                 1.4091                 1.4329
 IR Inten    --      8.3398                 4.8304                 5.8944

                    103                    104                    105
                      A                      A                      A
 Frequencies --   1655.5217              2886.5971              2976.9470
 Red. masses --      1.0914                 1.0802                 1.0730
 Frc consts  --      1.7624                 5.3031                 5.6027
 IR Inten    --     21.9022                51.8092                19.2071

                    106                    107                    108
                      A                      A                      A
 Frequencies --   2985.1418              2993.8544              2998.2255
 Red. masses --      1.0670                 1.0732                 1.0731
 Frc consts  --      5.6021                 5.6676                 5.6835
 IR Inten    --      8.7046                 5.6636                 6.0154

                    109                    110                    111
                      A                      A                      A
 Frequencies --   3003.4011              3007.8198              3009.1093
 Red. masses --      1.0692                 1.0773                 1.0727
 Frc consts  --      5.6823                 5.7425                 5.7229
 IR Inten    --     28.3071                18.7566                18.2444

                    112                    113                    114
                      A                      A                      A
 Frequencies --   3019.9141              3020.9931              3021.9512
 Red. masses --      1.0634                 1.0358                 1.0388
 Frc consts  --      5.7137                 5.5694                 5.5892
 IR Inten    --     24.3609                51.1343                43.1780

                    115                    116                    117
                      A                      A                      A
 Frequencies --   3030.3659              3032.9996              3035.2318
 Red. masses --      1.0800                 1.0863                 1.0391
 Frc consts  --      5.8434                 5.8875                 5.6401
 IR Inten    --     42.2482                37.7047                36.9877

                    118                    119                    120
                      A                      A                      A
 Frequencies --   3038.5294              3043.5495              3051.1856
 Red. masses --      1.0986                 1.0986                 1.0969
 Frc consts  --      5.9763                 5.9957                 6.0165
 IR Inten    --     41.1945                58.2192                49.7051

                    121                    122                    123
                      A                      A                      A
 Frequencies --   3068.4589              3086.8840              3087.6824
 Red. masses --      1.0963                 1.1007                 1.1003
 Frc consts  --      6.0819                 6.1795                 6.1807
 IR Inten    --     26.1862                14.0218                73.2956

                    124                    125                    126
                      A                      A                      A
 Frequencies --   3092.4514              3093.0991              3096.9531
 Red. masses --      1.1014                 1.1013                 1.1007
 Frc consts  --      6.2061                 6.2080                 6.2197
 IR Inten    --     20.9734                46.3611                42.9361

                    127                    128                    129
                      A                      A                      A
 Frequencies --   3114.4899              3134.6036              3482.3241
 Red. masses --      1.0867                 1.0995                 1.0521
 Frc consts  --      6.2109                 6.3650                 7.5174
 IR Inten    --     12.0894                19.1238                 0.2166

                    130                    131                    132
                      A                      A                      A
 Frequencies --   3578.5290              3701.6312              3787.2293
 Red. masses --      1.0888                 1.0652                 1.0657
 Frc consts  --      8.2148                 8.5995                 9.0055
 IR Inten    --      1.2291               258.0700                18.3821

 - Thermochemistry -
 -------------------
 Temperature   298.150 Kelvin.  Pressure   1.00000 Atm.
 Atom     1 has atomic number  6 and mass  12.00000

 Molecular mass:   243.21983 amu.
 Principal axes and moments of inertia in atomic units:
                           1         2         3
     Eigenvalues --  2020.024849924.68921**********
           X            0.99998  -0.00574  -0.00250
           Y            0.00560   0.99871  -0.05055
           Z            0.00278   0.05053   0.99872
 This molecule is an asymmetric top.
 Rotational symmetry number  1.
 Warning -- assumption of classical behavior for rotation
           may cause significant error
 Rotational temperatures (Kelvin)      0.04288     0.00873     0.00830
 Rotational constants (GHZ):           0.89343     0.18184     0.17303
 Zero-point vibrational energy    1108428.5 (Joules/Mol)
                                  264.92078 (Kcal/Mol)
 Warning -- explicit consideration of  32 degrees of freedom as
           vibrations may cause significant error
 Vibrational temperatures:     30.92    45.70    56.86   100.66   111.65
          (Kelvin)            141.27   179.16   211.98   235.36   286.65
                              314.55   321.00   337.11   347.57   361.48
                              364.14   425.69   433.23   446.10   478.49
                              523.06   537.63   553.41   557.24   617.73
                              625.77   657.69   667.56   709.14   768.90
                              786.23   822.14   939.48   987.64  1129.87
                             1160.09  1193.51  1211.79  1226.95  1231.47
                             1261.27  1289.61  1303.02  1358.80  1371.56
                             1377.75  1393.67  1434.69  1458.38  1465.53
                             1487.73  1506.04  1513.06  1541.78  1546.64
                             1560.09  1599.35  1609.96  1618.10  1618.64
                             1646.69  1655.51  1683.78  1700.97  1723.03
                             1736.94  1788.85  1826.18  1844.69  1854.67
                             1871.86  1874.49  1883.81  1916.66  1919.99
                             1927.48  1944.62  1968.67  1971.05  1979.90
                             1984.03  1990.33  1998.47  2009.99  2012.79
                             2019.54  2022.54  2031.77  2036.66  2036.90
                             2112.48  2127.07  2127.77  2130.70  2144.29
                             2151.00  2151.50  2154.38  2157.98  2158.06
                             2160.22  2173.08  2381.93  4153.17  4283.16
                             4294.95  4307.49  4313.78  4321.22  4327.58
                             4329.44  4344.98  4346.54  4347.91  4360.02
                             4363.81  4367.02  4371.77  4378.99  4389.98
                             4414.83  4441.34  4442.49  4449.35  4450.28
                             4455.82  4481.06  4510.00  5010.29  5148.71
                             5325.82  5448.98

 Zero-point correction=                           0.422178 (Hartree/Particle)
 Thermal correction to Energy=                    0.442114
 Thermal correction to Enthalpy=                  0.443058
 Thermal correction to Gibbs Free Energy=         0.373544
 Sum of electronic and zero-point Energies=           -755.804671
 Sum of electronic and thermal Energies=              -755.784736
 Sum of electronic and thermal Enthalpies=            -755.783791
 Sum of electronic and thermal Free Energies=         -755.853305

                     E (Thermal)             CV                S
                      KCal/Mol        Cal/Mol-Kelvin    Cal/Mol-Kelvin
 Total                  277.431             76.933            146.304
 Electronic               0.000              0.000              0.000
 Translational            0.889              2.981             42.367
 Rotational               0.889              2.981             33.702
 Vibrational            275.653             70.972             70.235
 Vibration     1          0.593              1.985              6.491
 Vibration     2          0.594              1.983              5.716
 Vibration     3          0.594              1.981              5.283
 Vibration     4          0.598              1.968              4.154
 Vibration     5          0.599              1.964              3.951
 Vibration     6          0.604              1.950              3.490
 Vibration     7          0.610              1.928              3.029
 Vibration     8          0.617              1.906              2.706
 Vibration     9          0.623              1.887              2.508
 Vibration    10          0.637              1.841              2.140
 Vibration    11          0.646              1.813              1.970
 Vibration    12          0.649              1.806              1.934
 Vibration    13          0.654              1.788              1.846
 Vibration    14          0.658              1.777              1.791
 Vibration    15          0.663              1.761              1.722
 Vibration    16          0.664              1.758              1.709
 Vibration    17          0.690              1.681              1.440
 Vibration    18          0.693              1.672              1.411
 Vibration    19          0.699              1.655              1.362
 Vibration    20          0.715              1.610              1.248
 Vibration    21          0.737              1.547              1.107
 Vibration    22          0.745              1.526              1.065
 Vibration    23          0.754              1.503              1.021
 Vibration    24          0.756              1.497              1.011
 Vibration    25          0.791              1.406              0.861
 Vibration    26          0.796              1.394              0.843
 Vibration    27          0.815              1.345              0.775
 Vibration    28          0.822              1.330              0.755
 Vibration    29          0.849              1.266              0.676
 Vibration    30          0.889              1.174              0.577
 Vibration    31          0.902              1.147              0.552
 Vibration    32          0.928              1.093              0.502

 Optimization completed.
    -- Stationary point found.
 Normal termination of Gaussian 16 at Tue May 23 23:24:33 2023.
