 Gaussian 16, Revision A.03,
 Gaussian 16:  ES64L-G16RevA.03 25-Dec-2016

 -----------------------------
 # opt freq b3lyp/6-31g(2df,p)
 -----------------------------

 -------------------
 Title Card Required
 -------------------
 Symbolic Z-matrix:
 Charge =  0 Multiplicity = 1

 SCF Done:  E(RB3LYP) =  -534.842238562     A.U. after   12 cycles
 SCF Done:  E(RB3LYP) =  -534.843307628     A.U. after   10 cycles
 SCF Done:  E(RB3LYP) =  -534.844260911     A.U. after   10 cycles
 SCF Done:  E(RB3LYP) =  -534.844686433     A.U. after   10 cycles
 SCF Done:  E(RB3LYP) =  -534.844762378     A.U. after    9 cycles
 SCF Done:  E(RB3LYP) =  -534.844772885     A.U. after    8 cycles
 SCF Done:  E(RB3LYP) =  -534.844776734     A.U. after    8 cycles
 SCF Done:  E(RB3LYP) =  -534.844777827     A.U. after    8 cycles
 SCF Done:  E(RB3LYP) =  -534.844777979     A.U. after    6 cycles
 SCF Done:  E(RB3LYP) =  -534.844778011     A.U. after    5 cycles
 Optimization completed.
    -- Stationary point found.
 Normal termination of Gaussian 16 at Sat May 27 22:11:53 2023.

 ----------------------------------------------------------------------
 #N Geom=AllCheck Guess=TCheck SCRF=Check GenChk RB3LYP/6-31G(2df,p) Fr
 eq
 ----------------------------------------------------------------------

 Structure from the checkpoint file:  "CCCqCrCCqFrqFrF.chk"
 -------------------
 Title Card Required
 -------------------
 Charge =  0 Multiplicity = 1

                         Standard orientation:
 ---------------------------------------------------------------------
 Center     Atomic      Atomic             Coordinates (Angstroms)
 Number     Number       Type             X           Y           Z
 ---------------------------------------------------------------------
      1          6           0        3.515379   -0.345759    0.341571
      2          6           0        2.218034   -0.714798   -0.384121
      3          6           0        0.973429    0.064792    0.085924
      4          6           0        1.109066    1.574884   -0.161701
      5          6           0       -0.276826   -0.528438   -0.592844
      6          6           0       -1.604868   -0.132221    0.021734
      7          9           0       -1.634653   -0.372344    1.344300
      8          9           0       -1.897879    1.170230   -0.148097
      9          9           0       -2.611090   -0.830923   -0.531841
     10          1           0        4.336030   -0.993795    0.018958
     11          1           0        3.407729   -0.461670    1.425947
     12          1           0        3.818453    0.686686    0.145408
     13          1           0        2.030450   -1.787323   -0.246122
     14          1           0        2.346499   -0.565977   -1.465452
     15          1           0        0.865794   -0.100817    1.166109
     16          1           0        1.241886    1.781203   -1.230957
     17          1           0        1.974368    1.984234    0.365795
     18          1           0        0.226035    2.120117    0.174673
     19          1           0       -0.244204   -1.621792   -0.544045
     20          1           0       -0.315732   -0.254296   -1.652949
 ---------------------------------------------------------------------

 SCF Done:  E(RB3LYP) =  -534.844778011     A.U. after    1 cycles

 The electronic state is 1-A.
 Alpha  occ. eigenvalues --  -24.71321 -24.71285 -24.71078 -10.41172 -10.20283
 Alpha  occ. eigenvalues --  -10.19956 -10.18746 -10.17841 -10.17534  -1.29904
 Alpha  occ. eigenvalues --   -1.21029  -1.20919  -0.82923  -0.76369  -0.71903
 Alpha  occ. eigenvalues --   -0.66638  -0.63468  -0.58396  -0.57924  -0.56358
 Alpha  occ. eigenvalues --   -0.53265  -0.47299  -0.45919  -0.45441  -0.44897
 Alpha  occ. eigenvalues --   -0.43224  -0.41793  -0.41171  -0.40399  -0.39461
 Alpha  occ. eigenvalues --   -0.38137  -0.37994  -0.36679  -0.35877  -0.33255
 Alpha  occ. eigenvalues --   -0.32976  -0.32194
 Alpha virt. eigenvalues --    0.07783   0.10788   0.11393   0.13493   0.13807
 Alpha virt. eigenvalues --    0.14622   0.15456   0.16466   0.17097   0.17213
 Alpha virt. eigenvalues --    0.18964   0.20445   0.20888   0.22114   0.23581

 Mulliken charges:
               1
     1  C   -0.394508
     2  C   -0.174162
     3  C    0.032730
     4  C   -0.402095
     5  C   -0.345019
     6  C    0.282381
     7  F   -0.084457
     8  F   -0.080369
     9  F   -0.079330
    10  H    0.115651
    11  H    0.116808
    12  H    0.121995
    13  H    0.094536
    14  H    0.095525
    15  H    0.089148
    16  H    0.111466
    17  H    0.117676
    18  H    0.131766
    19  H    0.125057
    20  H    0.125201
 Sum of Mulliken charges =  -0.00000

 Dipole moment (field-independent basis, Debye):
    X=              1.9963    Y=             -0.4202    Z=             -0.6348  Tot=              2.1366
 Quadrupole moment (field-independent basis, Debye-Ang):
   XX=            -57.0971   YY=            -53.5747   ZZ=            -53.3989
   XY=             -0.2192   XZ=              0.2607   YZ=              0.2276

  Exact polarizability:  77.917  -0.128  65.804   1.614   0.356  61.077
 Approx polarizability:  93.544   0.710  93.968   1.253  -0.512  93.382

                      1                      2                      3
                      A                      A                      A
 Frequencies --     31.2742                74.0236               110.7293
 Red. masses --      3.7269                 2.7318                 2.3171
 Frc consts  --      0.0021                 0.0088                 0.0167
 IR Inten    --      0.1085                 0.2953                 0.2776

                      4                      5                      6
                      A                      A                      A
 Frequencies --    149.4414               209.6282               246.3798
 Red. masses --      4.4032                 1.0848                 1.7059
 Frc consts  --      0.0579                 0.0281                 0.0610
 IR Inten    --      1.1093                 0.0942                 0.4112

                      7                      8                      9
                      A                      A                      A
 Frequencies --    270.3748               310.2176               322.5712
 Red. masses --      2.5047                 3.7505                 3.1498
 Frc consts  --      0.1079                 0.2127                 0.1931
 IR Inten    --      0.6340                 1.4225                 0.5477

                     10                     11                     12
                      A                      A                      A
 Frequencies --    373.3112               423.5586               477.1627
 Red. masses --      2.7766                 1.8828                 3.6126
 Frc consts  --      0.2280                 0.1990                 0.4846
 IR Inten    --      0.3108                 0.2072                 1.6846

                     13                     14                     15
                      A                      A                      A
 Frequencies --    537.9271               567.0046               657.6501
 Red. masses --      8.0345                 5.4039                 7.4220
 Frc consts  --      1.3698                 1.0236                 1.8913
 IR Inten    --      0.6491                 2.5355                15.1673

                     16                     17                     18
                      A                      A                      A
 Frequencies --    776.9252               833.7059               843.8263
 Red. masses --      1.2752                 2.7787                 3.8782
 Frc consts  --      0.4535                 1.1379                 1.6270
 IR Inten    --      2.8725                 0.6455                 4.4333

                     19                     20                     21
                      A                      A                      A
 Frequencies --    886.6606               932.0180               979.1766
 Red. masses --      1.6539                 1.7668                 1.2209
 Frc consts  --      0.7661                 0.9043                 0.6897
 IR Inten    --      4.2987                 3.1709                 5.6820

                     22                     23                     24
                      A                      A                      A
 Frequencies --   1012.4843              1050.2832              1070.7213
 Red. masses --      1.8021                 2.7774                 1.8024
 Frc consts  --      1.0885                 1.8051                 1.2175
 IR Inten    --     10.2316                 0.7053                66.4854

                     25                     26                     27
                      A                      A                      A
 Frequencies --   1125.5652              1168.6817              1196.5502
 Red. masses --      2.7930                 2.1078                 2.7990
 Frc consts  --      2.0848                 1.6962                 2.3611
 IR Inten    --     80.5877                60.4792                92.7612

                     28                     29                     30
                      A                      A                      A
 Frequencies --   1205.5615              1270.5777              1287.8962
 Red. masses --      2.4358                 2.8287                 1.8235
 Frc consts  --      2.0858                 2.6905                 1.7820
 IR Inten    --     44.9199               128.1474                60.6315

                     31                     32                     33
                      A                      A                      A
 Frequencies --   1308.1817              1323.5486              1378.9776
 Red. masses --      1.4173                 1.3049                 1.4626
 Frc consts  --      1.4291                 1.3468                 1.6387
 IR Inten    --     43.6820                36.3145                20.5512

                     34                     35                     36
                      A                      A                      A
 Frequencies --   1384.4255              1397.5706              1414.7883
 Red. masses --      1.3314                 1.6454                 1.2689
 Frc consts  --      1.5035                 1.8935                 1.4964
 IR Inten    --      8.0441                31.0258                 8.3545

                     37                     38                     39
                      A                      A                      A
 Frequencies --   1420.9551              1470.6868              1486.0574
 Red. masses --      1.2713                 1.1102                 1.0717
 Frc consts  --      1.5124                 1.4147                 1.3945
 IR Inten    --      3.9662                 5.5493                 0.5244

                     40                     41                     42
                      A                      A                      A
 Frequencies --   1497.1220              1501.6218              1507.5848
 Red. masses --      1.0440                 1.0526                 1.0692
 Frc consts  --      1.3787                 1.3984                 1.4317
 IR Inten    --      6.6753                 2.2351                 6.3105

                     43                     44                     45
                      A                      A                      A
 Frequencies --   1515.9414              3007.4548              3020.2637
 Red. masses --      1.0458                 1.0622                 1.0781
 Frc consts  --      1.4160                 5.6603                 5.7945
 IR Inten    --      3.7474                18.4573                 9.3291

                     46                     47                     48
                      A                      A                      A
 Frequencies --   3034.0661              3036.1597              3046.1515
 Red. masses --      1.0428                 1.0432                 1.0959
 Frc consts  --      5.6559                 5.6657                 5.9916
 IR Inten    --     16.6295                20.7512                28.3237

                     49                     50                     51
                      A                      A                      A
 Frequencies --   3050.4820              3095.7790              3100.3814
 Red. masses --      1.0608                 1.1027                 1.1005
 Frc consts  --      5.8160                 6.2268                 6.2327
 IR Inten    --     16.6229                 8.7246                36.1803

                     52                     53                     54
                      A                      A                      A
 Frequencies --   3104.9944              3112.8557              3141.0747
 Red. masses --      1.0971                 1.0979                 1.0987
 Frc consts  --      6.2316                 6.2682                 6.3866
 IR Inten    --     37.0797                35.4343                12.7830

 - Thermochemistry -
 -------------------
 Temperature   298.150 Kelvin.  Pressure   1.00000 Atm.
 Atom     1 has atomic number  6 and mass  12.00000

 Molecular mass:   140.08129 amu.
 Principal axes and moments of inertia in atomic units:
                           1         2         3
     Eigenvalues --   573.590892246.488222404.03295
           X            0.99998  -0.00357   0.00482
           Y            0.00346   0.99975   0.02230
           Z           -0.00490  -0.02229   0.99974
 This molecule is an asymmetric top.
 Rotational symmetry number  1.
 Warning -- assumption of classical behavior for rotation
           may cause significant error
 Rotational temperatures (Kelvin)      0.15100     0.03856     0.03603
 Rotational constants (GHZ):           3.14639     0.80336     0.75071
 Zero-point vibrational energy     435195.5 (Joules/Mol)
                                  104.01423 (Kcal/Mol)
 Warning -- explicit consideration of  14 degrees of freedom as
           vibrations may cause significant error
 Vibrational temperatures:     45.00   106.50   159.31   215.01   301.61
          (Kelvin)            354.49   389.01   446.33   464.11   537.11
                              609.41   686.53   773.96   815.79   946.21
                             1117.82  1199.52  1214.08  1275.71  1340.97
                             1408.82  1456.74  1511.12  1540.53  1619.44
                             1681.47  1721.57  1734.53  1828.08  1853.00
                             1882.18  1904.29  1984.04  1991.88  2010.79
                             2035.56  2044.44  2115.99  2138.11  2154.02
                             2160.50  2169.08  2181.10  4327.06  4345.49
                             4365.34  4368.36  4382.73  4388.96  4454.14
                             4460.76  4467.39  4478.71  4519.31

 Zero-point correction=                           0.165757 (Hartree/Particle)
 Thermal correction to Energy=                    0.175924
 Thermal correction to Enthalpy=                  0.176868
 Thermal correction to Gibbs Free Energy=         0.129462
 Sum of electronic and zero-point Energies=           -534.679021
 Sum of electronic and thermal Energies=              -534.668854
 Sum of electronic and thermal Enthalpies=            -534.667910
 Sum of electronic and thermal Free Energies=         -534.715316

                     E (Thermal)             CV                S
                      KCal/Mol        Cal/Mol-Kelvin    Cal/Mol-Kelvin
 Total                  110.394             36.509             99.774
 Electronic               0.000              0.000              0.000
 Translational            0.889              2.981             40.723
 Rotational               0.889              2.981             29.517
 Vibrational            108.616             30.548             29.534
 Vibration     1          0.594              1.983              5.747
 Vibration     2          0.599              1.966              4.043
 Vibration     3          0.607              1.941              3.256
 Vibration     4          0.618              1.903              2.679
 Vibration     5          0.642              1.826              2.047
 Vibration     6          0.661              1.769              1.756
 Vibration     7          0.674              1.728              1.594
 Vibration     8          0.699              1.654              1.361
 Vibration     9          0.708              1.630              1.297
 Vibration    10          0.745              1.527              1.066
 Vibration    11          0.786              1.419              0.880
 Vibration    12          0.834              1.301              0.718
 Vibration    13          0.893              1.166              0.570
 Vibration    14          0.923              1.103              0.510

 Optimization completed.
    -- Stationary point found.
 Normal termination of Gaussian 16 at Sat May 27 22:41:46 2023.
