 Gaussian 16, Revision A.03,
 Gaussian 16:  ES64L-G16RevA.03 25-Dec-2016

 -----------------------------
 # opt freq b3lyp/6-31g(2df,p)
 -----------------------------

 -------------------
 Title Card Required
 -------------------
 Symbolic Z-matrix:
 Charge =  0 Multiplicity = 1

 SCF Done:  E(RB3LYP) =  -315.730833265     A.U. after   12 cycles
 SCF Done:  E(RB3LYP) =  -315.731924905     A.U. after    9 cycles
 SCF Done:  E(RB3LYP) =  -315.731991650     A.U. after    9 cycles
 SCF Done:  E(RB3LYP) =  -315.732141630     A.U. after    8 cycles
 SCF Done:  E(RB3LYP) =  -315.732148229     A.U. after    7 cycles
 SCF Done:  E(RB3LYP) =  -315.732148885     A.U. after    6 cycles
 Optimization completed.
    -- Stationary point found.
 Normal termination of Gaussian 16 at Sun May 28 05:21:38 2023.

 ----------------------------------------------------------------------
 #N Geom=AllCheck Guess=TCheck SCRF=Check GenChk RB3LYP/6-31G(2df,p) Fr
 eq
 ----------------------------------------------------------------------

 Structure from the checkpoint file:  "CCCqCrCqCrCC.chk"
 -------------------
 Title Card Required
 -------------------
 Charge =  0 Multiplicity = 1

                         Standard orientation:
 ---------------------------------------------------------------------
 Center     Atomic      Atomic             Coordinates (Angstroms)
 Number     Number       Type             X           Y           Z
 ---------------------------------------------------------------------
      1          6           0        3.249482   -0.229861    0.165029
      2          6           0        1.850095   -0.592301   -0.348051
      3          6           0        0.697585    0.260487    0.228362
      4          6           0        0.905223    1.744589   -0.120536
      5          6           0       -0.697585   -0.260485   -0.228364
      6          6           0       -0.905221   -1.744586    0.120536
      7          6           0       -1.850096    0.592303    0.348049
      8          6           0       -3.249483    0.229855   -0.165025
      9          1           0        3.989093   -0.952005   -0.195541
     10          1           0        3.283626   -0.242468    1.260687
     11          1           0        3.576485    0.759966   -0.165495
     12          1           0        1.674662   -1.645263   -0.111272
     13          1           0        1.832829   -0.520162   -1.445050
     14          1           0        0.736496    0.163562    1.325363
     15          1           0        0.792796    1.911470   -1.199266
     16          1           0        1.905501    2.081721    0.162233
     17          1           0        0.197087    2.397553    0.393696
     18          1           0       -0.736495   -0.163561   -1.325365
     19          1           0       -0.792800   -1.911465    1.199267
     20          1           0       -0.197080   -2.397549   -0.393691
     21          1           0       -1.905496   -2.081722   -0.162239
     22          1           0       -1.674668    1.645264    0.111262
     23          1           0       -1.832827    0.520170    1.445048
     24          1           0       -3.283630    0.242451   -1.260683
     25          1           0       -3.989095    0.952001    0.195539
     26          1           0       -3.576484   -0.759970    0.165510
 ---------------------------------------------------------------------

 SCF Done:  E(RB3LYP) =  -315.732148885     A.U. after    1 cycles

 The electronic state is 1-A.
 Alpha  occ. eigenvalues --  -10.17939 -10.17920 -10.17193 -10.17193 -10.16839
 Alpha  occ. eigenvalues --  -10.16839 -10.16510 -10.16510  -0.81721  -0.76749
 Alpha  occ. eigenvalues --   -0.71822  -0.70749  -0.63777  -0.62800  -0.56863
 Alpha  occ. eigenvalues --   -0.54342  -0.45723  -0.45544  -0.43976  -0.42557
 Alpha  occ. eigenvalues --   -0.40944  -0.40098  -0.38233  -0.37710  -0.36013
 Alpha  occ. eigenvalues --   -0.35537  -0.35361  -0.34631  -0.33102  -0.31833
 Alpha  occ. eigenvalues --   -0.30945  -0.29763  -0.29281
 Alpha virt. eigenvalues --    0.08563   0.10341   0.11117   0.12537   0.13437
 Alpha virt. eigenvalues --    0.14131   0.15860   0.16118   0.16240   0.17212
 Alpha virt. eigenvalues --    0.17453   0.17913   0.18654   0.18813   0.19242

 Mulliken charges:
               1
     1  C   -0.390639
     2  C   -0.176104
     3  C    0.051915
     4  C   -0.405866
     5  C    0.051914
     6  C   -0.405866
     7  C   -0.176104
     8  C   -0.390639
     9  H    0.109251
    10  H    0.111536
    11  H    0.117662
    12  H    0.096447
    13  H    0.088265
    14  H    0.062581
    15  H    0.107764
    16  H    0.111921
    17  H    0.115268
    18  H    0.062581
    19  H    0.107764
    20  H    0.115269
    21  H    0.111921
    22  H    0.096447
    23  H    0.088265
    24  H    0.111536
    25  H    0.109251
    26  H    0.117662
 Sum of Mulliken charges =   0.00000

 Dipole moment (field-independent basis, Debye):
    X=             -0.0000    Y=             -0.0000    Z=             -0.0000  Tot=              0.0000
 Quadrupole moment (field-independent basis, Debye-Ang):
   XX=            -55.5485   YY=            -54.9971   ZZ=            -54.2550
   XY=             -0.3313   XZ=             -0.1880   YZ=              0.0006

  Exact polarizability: 104.632  -0.696  86.180   0.071   0.064  76.458
 Approx polarizability: 123.752  -0.495 120.451  -0.215  -0.128 121.018

 ******    1 imaginary frequencies (negative Signs) ******

                      1                      2                      3
                      A                      A                      A
 Frequencies --    -42.6562                57.5927                66.5200
 Red. masses --      1.8054                 2.5363                 1.7202
 Frc consts  --      0.0019                 0.0050                 0.0045
 IR Inten    --      0.0103                 0.0159                 0.0000

                      4                      5                      6
                      A                      A                      A
 Frequencies --    167.3546               195.5300               199.6214
 Red. masses --      1.7599                 1.0928                 1.4984
 Frc consts  --      0.0290                 0.0246                 0.0352
 IR Inten    --      0.1712                 0.0000                 0.0043

                      7                      8                      9
                      A                      A                      A
 Frequencies --    225.2392               238.7911               320.3906
 Red. masses --      1.2232                 1.3248                 2.0104
 Frc consts  --      0.0366                 0.0445                 0.1216
 IR Inten    --      0.0534                 0.0000                 0.0000

                     10                     11                     12
                      A                      A                      A
 Frequencies --    342.4058               353.8310               375.4452
 Red. masses --      3.1560                 1.7368                 2.1962
 Frc consts  --      0.2180                 0.1281                 0.1824
 IR Inten    --      0.0000                 0.0725                 0.2162

                     13                     14                     15
                      A                      A                      A
 Frequencies --    411.8499               483.1978               504.1348
 Red. masses --      2.4408                 2.1794                 2.3322
 Frc consts  --      0.2439                 0.2998                 0.3492
 IR Inten    --      0.0000                 0.0000                 0.7174

                     16                     17                     18
                      A                      A                      A
 Frequencies --    760.8282               778.6622               816.0438
 Red. masses --      1.5370                 1.2299                 1.4338
 Frc consts  --      0.5242                 0.4394                 0.5625
 IR Inten    --      0.0000                 4.2382                 0.0000

                     19                     20                     21
                      A                      A                      A
 Frequencies --    827.7049               901.2862               957.0976
 Red. masses --      2.2883                 1.8039                 1.2873
 Frc consts  --      0.9237                 0.8633                 0.6948
 IR Inten    --      0.4123                 0.0000                 2.9898

                     22                     23                     24
                      A                      A                      A
 Frequencies --    969.3797               978.1864              1006.4514
 Red. masses --      1.1744                 1.7972                 1.3307
 Frc consts  --      0.6502                 1.0132                 0.7942
 IR Inten    --      0.0000                 2.7534                10.9328

                     25                     26                     27
                      A                      A                      A
 Frequencies --   1007.7020              1041.1872              1052.8824
 Red. masses --      1.6849                 3.0488                 2.0149
 Frc consts  --      1.0081                 1.9473                 1.3160
 IR Inten    --      0.0000                 0.0000                 0.6448

                     28                     29                     30
                      A                      A                      A
 Frequencies --   1102.2205              1166.2793              1167.5683
 Red. masses --      2.0083                 1.8909                 2.0956
 Frc consts  --      1.4375                 1.5154                 1.6831
 IR Inten    --      0.2899                 9.7054                 0.0000

                     31                     32                     33
                      A                      A                      A
 Frequencies --   1181.4453              1198.5413              1265.9142
 Red. masses --      1.9096                 2.1336                 1.3507
 Frc consts  --      1.5704                 1.8058                 1.2753
 IR Inten    --      0.0000                 0.0000                 8.4136

                     34                     35                     36
                      A                      A                      A
 Frequencies --   1301.3632              1312.1423              1339.4248
 Red. masses --      1.2448                 1.2490                 1.2454
 Frc consts  --      1.2421                 1.2670                 1.3164
 IR Inten    --      0.0000                 1.6576                 0.0000

                     37                     38                     39
                      A                      A                      A
 Frequencies --   1356.3857              1369.0482              1380.5654
 Red. masses --      1.2000                 1.4239                 1.4254
 Frc consts  --      1.3007                 1.5724                 1.6006
 IR Inten    --      6.3332                 0.0000                 0.7064

                     40                     41                     42
                      A                      A                      A
 Frequencies --   1382.5921              1405.1846              1411.3348
 Red. masses --      1.4310                 1.2555                 1.2529
 Frc consts  --      1.6116                 1.4606                 1.4704
 IR Inten    --      0.0000                 6.6464                 0.0000

                     43                     44                     45
                      A                      A                      A
 Frequencies --   1415.0062              1416.4728              1480.3740
 Red. masses --      1.2103                 1.2244                 1.0649
 Frc consts  --      1.4278                 1.4474                 1.3750
 IR Inten    --      4.1328                 0.0000                 0.1909

                     46                     47                     48
                      A                      A                      A
 Frequencies --   1484.9339              1495.4755              1496.9716
 Red. masses --      1.0643                 1.0434                 1.0664
 Frc consts  --      1.3826                 1.3749                 1.4080
 IR Inten    --      0.0000                 9.9660                 0.0000

                     49                     50                     51
                      A                      A                      A
 Frequencies --   1498.0357              1499.8226              1508.3127
 Red. masses --      1.0398                 1.0480                 1.0630
 Frc consts  --      1.3748                 1.3889                 1.4249
 IR Inten    --      0.0000                 3.4964                 0.0000

                     52                     53                     54
                      A                      A                      A
 Frequencies --   1508.8908              1521.5560              1521.8027
 Red. masses --      1.0665                 1.0422                 1.0468
 Frc consts  --      1.4307                 1.4216                 1.4284
 IR Inten    --      9.9632                10.0021                 0.0000

                     55                     56                     57
                      A                      A                      A
 Frequencies --   2968.9417              2980.3847              3010.2394
 Red. masses --      1.0789                 1.0825                 1.0690
 Frc consts  --      5.6031                 5.6652                 5.7075
 IR Inten    --      0.0000                21.7284                 0.0000

                     58                     59                     60
                      A                      A                      A
 Frequencies --   3012.4180              3030.9071              3030.9555
 Red. masses --      1.0697                 1.0386                 1.0393
 Frc consts  --      5.7191                 5.6213                 5.6254
 IR Inten    --     57.9392                70.7928                 0.0001

                     61                     62                     63
                      A                      A                      A
 Frequencies --   3032.4490              3032.5822              3076.3753
 Red. masses --      1.0425                 1.0427                 1.0918
 Frc consts  --      5.6482                 5.6500                 6.0879
 IR Inten    --     41.2610                 0.0000                 0.0000

                     64                     65                     66
                      A                      A                      A
 Frequencies --   3077.0903              3093.9480              3093.9926
 Red. masses --      1.0919                 1.1004                 1.1005
 Frc consts  --      6.0911                 6.2064                 6.2071
 IR Inten    --     20.4097                 0.0002                73.0878

                     67                     68                     69
                      A                      A                      A
 Frequencies --   3102.2534              3104.1476              3109.0247
 Red. masses --      1.0956                 1.0960                 1.0962
 Frc consts  --      6.2125                 6.2220                 6.2428
 IR Inten    --     69.8263                 0.0000                 0.0000

                     70                     71                     72
                      A                      A                      A
 Frequencies --   3114.0046              3122.7407              3124.4448
 Red. masses --      1.0961                 1.0987                 1.0984
 Frc consts  --      6.2622                 6.3125                 6.3177
 IR Inten    --    102.7623                63.5889                 0.0000

 - Thermochemistry -
 -------------------
 Temperature   298.150 Kelvin.  Pressure   1.00000 Atm.
 Atom     1 has atomic number  6 and mass  12.00000

 Molecular mass:   114.14085 amu.
 Principal axes and moments of inertia in atomic units:
                           1         2         3
     Eigenvalues --   502.611441743.477002106.56924
           X            0.99999   0.00281   0.00152
           Y           -0.00280   0.99999  -0.00203
           Z           -0.00153   0.00202   1.00000
 This molecule is an asymmetric top.
 Rotational symmetry number  1.
 Warning -- assumption of classical behavior for rotation
           may cause significant error
 Rotational temperatures (Kelvin)      0.17233     0.04968     0.04112
 Rotational constants (GHZ):           3.59073     1.03514     0.85672
    1 imaginary frequencies ignored.
 Zero-point vibrational energy     642059.0 (Joules/Mol)
                                  153.45578 (Kcal/Mol)
 Warning -- explicit consideration of  14 degrees of freedom as
           vibrations may cause significant error
 Vibrational temperatures:     82.86    95.71   240.79   281.32   287.21
          (Kelvin)            324.07   343.57   460.97   492.65   509.08
                              540.18   592.56   695.21   725.34  1094.66
                             1120.32  1174.11  1190.88  1296.75  1377.05
                             1394.72  1407.39  1448.06  1449.86  1498.04
                             1514.86  1585.85  1678.02  1679.87  1699.84
                             1724.43  1821.37  1872.37  1887.88  1927.13
                             1951.54  1969.75  1986.33  1989.24  2021.75
                             2030.60  2035.88  2037.99  2129.93  2136.49
                             2151.66  2153.81  2155.34  2157.91  2170.13
                             2170.96  2189.18  2189.53  4271.64  4288.11
                             4331.06  4334.20  4360.80  4360.87  4363.02
                             4363.21  4426.22  4427.25  4451.50  4451.57
                             4463.45  4466.18  4473.19  4480.36  4492.93
                             4495.38

 Zero-point correction=                           0.244547 (Hartree/Particle)
 Thermal correction to Energy=                    0.254864
 Thermal correction to Enthalpy=                  0.255808
 Thermal correction to Gibbs Free Energy=         0.209408
 Sum of electronic and zero-point Energies=           -315.487602
 Sum of electronic and thermal Energies=              -315.477285
 Sum of electronic and thermal Enthalpies=            -315.476341
 Sum of electronic and thermal Free Energies=         -315.522740

                     E (Thermal)             CV                S
                      KCal/Mol        Cal/Mol-Kelvin    Cal/Mol-Kelvin
 Total                  159.929             38.478             97.656
 Electronic               0.000              0.000              0.000
 Translational            0.889              2.981             40.112
 Rotational               0.889              2.981             29.003
 Vibrational            158.152             32.516             28.541
 Vibration     1          0.596              1.974              4.538
 Vibration     2          0.598              1.970              4.254
 Vibration     3          0.624              1.883              2.465
 Vibration     4          0.636              1.846              2.175
 Vibration     5          0.638              1.840              2.137
 Vibration     6          0.650              1.803              1.917
 Vibration     7          0.657              1.781              1.812
 Vibration     8          0.706              1.635              1.308
 Vibration     9          0.722              1.591              1.201
 Vibration    10          0.730              1.567              1.149
 Vibration    11          0.746              1.522              1.057
 Vibration    12          0.776              1.445              0.920
 Vibration    13          0.839              1.287              0.701
 Vibration    14          0.859              1.241              0.648

 Optimization completed.
    -- Stationary point found.
 Normal termination of Gaussian 16 at Sun May 28 05:57:40 2023.
