 Gaussian 16, Revision A.03,
 Gaussian 16:  ES64L-G16RevA.03 25-Dec-2016

 -----------------------------
 # opt freq b3lyp/6-31g(2df,p)
 -----------------------------

 -------------------
 Title Card Required
 -------------------
 Symbolic Z-matrix:
 Charge =  0 Multiplicity = 1

 SCF Done:  E(RB3LYP) =  -354.493387390     A.U. after   15 cycles
 SCF Done:  E(RB3LYP) =  -354.624912464     A.U. after   12 cycles
 SCF Done:  E(RB3LYP) =  -354.733073010     A.U. after   13 cycles
 SCF Done:  E(RB3LYP) =  -354.487506563     A.U. after   15 cycles
 SCF Done:  E(RB3LYP) =  -354.805700540     A.U. after   12 cycles
 SCF Done:  E(RB3LYP) =  -354.858824986     A.U. after   11 cycles
 SCF Done:  E(RB3LYP) =  -354.932031751     A.U. after   11 cycles
 SCF Done:  E(RB3LYP) =  -354.840533356     A.U. after   12 cycles
 SCF Done:  E(RB3LYP) =  -354.964413481     A.U. after   11 cycles
 SCF Done:  E(RB3LYP) =  -354.986266793     A.U. after   11 cycles
 SCF Done:  E(RB3LYP) =  -355.044988953     A.U. after    7 cycles
 SCF Done:  E(RB3LYP) =  -355.044989547     A.U. after    6 cycles
 SCF Done:  E(RB3LYP) =  -355.044990220     A.U. after    6 cycles
 SCF Done:  E(RB3LYP) =  -355.044991222     A.U. after    6 cycles
 SCF Done:  E(RB3LYP) =  -355.044992242     A.U. after    6 cycles
 SCF Done:  E(RB3LYP) =  -355.044993752     A.U. after    6 cycles
 SCF Done:  E(RB3LYP) =  -355.044995304     A.U. after    6 cycles
 SCF Done:  E(RB3LYP) =  -355.044995818     A.U. after    6 cycles
 SCF Done:  E(RB3LYP) =  -355.044995955     A.U. after    6 cycles
 Optimization completed.
    -- Stationary point found.
 Normal termination of Gaussian 16 at Mon May 29 08:55:10 2023.

 ----------------------------------------------------------------------
 #N Geom=AllCheck Guess=TCheck SCRF=Check GenChk RB3LYP/6-31G(2df,p) Fr
 eq
 ----------------------------------------------------------------------

 Structure from the checkpoint file:  "CCCqCrCqCrCqCrC.chk"
 -------------------
 Title Card Required
 -------------------
 Charge =  0 Multiplicity = 1

                         Standard orientation:
 ---------------------------------------------------------------------
 Center     Atomic      Atomic             Coordinates (Angstroms)
 Number     Number       Type             X           Y           Z
 ---------------------------------------------------------------------
      1          6           0        2.488093   -1.512251    0.266389
      2          6           0        1.058912   -1.380435   -0.273384
      3          6           0        0.365005   -0.063738    0.145570
      4          6           0        0.998838    1.138694   -0.613057
      5          6           0        1.435439    2.302547    0.285001
      6          6           0       -1.199349   -0.127151    0.041422
      7          6           0       -1.752124   -1.171889    1.034283
      8          6           0       -1.816655    1.232524    0.428614
      9          6           0       -1.663581   -0.499467   -1.380397
     10          1           0        2.952473   -2.444075   -0.071993
     11          1           0        2.493806   -1.516480    1.362246
     12          1           0        3.130305   -0.688373   -0.062166
     13          1           0        0.483496   -2.243940    0.074137
     14          1           0        1.076978   -1.448127   -1.368604
     15          1           0        0.579987    0.077930    1.215467
     16          1           0        0.307846    1.510548   -1.377493
     17          1           0        1.876107    0.790546   -1.169707
     18          1           0        1.884478    3.109827   -0.303472
     19          1           0        0.594346    2.726195    0.841790
     20          1           0        2.180242    1.972205    1.017685
     21          1           0       -1.422422   -0.957634    2.057204
     22          1           0       -1.443482   -2.191591    0.788771
     23          1           0       -2.847581   -1.157339    1.030489
     24          1           0       -1.525261    2.034023   -0.255699
     25          1           0       -1.520686    1.528587    1.441168
     26          1           0       -2.910338    1.170644    0.410069
     27          1           0       -1.302671    0.212834   -2.129423
     28          1           0       -2.757782   -0.503286   -1.435048
     29          1           0       -1.317310   -1.495505   -1.672063
 ---------------------------------------------------------------------

 SCF Done:  E(RB3LYP) =  -355.044995955     A.U. after    1 cycles

 The electronic state is 1-A.
 Alpha  occ. eigenvalues --  -10.18918 -10.17664 -10.17201 -10.17183 -10.16891
 Alpha  occ. eigenvalues --  -10.16783 -10.16552 -10.16532 -10.16529  -0.82630
 Alpha  occ. eigenvalues --   -0.77006  -0.74153  -0.67862  -0.67623  -0.66718
 Alpha  occ. eigenvalues --   -0.60177  -0.57771  -0.51932  -0.46926  -0.44513
 Alpha  occ. eigenvalues --   -0.43613  -0.43197  -0.41922  -0.40838  -0.39001
 Alpha  occ. eigenvalues --   -0.38730  -0.37330  -0.36594  -0.35921  -0.35382
 Alpha  occ. eigenvalues --   -0.34241  -0.33930  -0.32806  -0.32603  -0.30292
 Alpha  occ. eigenvalues --   -0.29157  -0.29078
 Alpha virt. eigenvalues --    0.07723   0.10407   0.11297   0.11483   0.12810
 Alpha virt. eigenvalues --    0.13379   0.13924   0.14641   0.15551   0.16743
 Alpha virt. eigenvalues --    0.17235   0.17542   0.18290   0.19044   0.19660

 Mulliken charges:
               1
     1  C   -0.388186
     2  C   -0.202332
     3  C    0.070488
     4  C   -0.198291
     5  C   -0.382858
     6  C    0.246488
     7  C   -0.410697
     8  C   -0.409642
     9  C   -0.406704
    10  H    0.109518
    11  H    0.112198
    12  H    0.116696
    13  H    0.091936
    14  H    0.095149
    15  H    0.058024
    16  H    0.094657
    17  H    0.090596
    18  H    0.107055
    19  H    0.117256
    20  H    0.113691
    21  H    0.106511
    22  H    0.111848
    23  H    0.105690
    24  H    0.111556
    25  H    0.107559
    26  H    0.104385
    27  H    0.110184
    28  H    0.105904
    29  H    0.111322
 Sum of Mulliken charges =  -0.00000

 Dipole moment (field-independent basis, Debye):
    X=             -0.0302    Y=             -0.0636    Z=             -0.0527  Tot=              0.0879
 Quadrupole moment (field-independent basis, Debye-Ang):
   XX=            -61.7962   YY=            -61.9006   ZZ=            -61.5130
   XY=             -0.0985   XZ=             -0.1781   YZ=             -0.2144

  Exact polarizability: 106.624   0.079 100.663  -0.164   0.017  89.066
 Approx polarizability: 139.447   0.294 136.984  -0.348  -0.422 136.081

                      1                      2                      3
                      A                      A                      A
 Frequencies --     48.0458                86.8989               122.2912
 Red. masses --      2.3148                 2.4415                 1.9177
 Frc consts  --      0.0031                 0.0109                 0.0169
 IR Inten    --      0.0043                 0.0046                 0.0264

                      4                      5                      6
                      A                      A                      A
 Frequencies --    197.5932               199.1663               215.5768
 Red. masses --      1.6486                 1.6137                 1.1432
 Frc consts  --      0.0379                 0.0377                 0.0313
 IR Inten    --      0.0213                 0.0105                 0.0121

                      7                      8                      9
                      A                      A                      A
 Frequencies --    223.9936               252.6114               283.7458
 Red. masses --      1.1107                 1.0538                 1.2128
 Frc consts  --      0.0328                 0.0396                 0.0575
 IR Inten    --      0.0005                 0.0579                 0.0748

                     10                     11                     12
                      A                      A                      A
 Frequencies --    294.0262               305.5684               325.7751
 Red. masses --      2.0403                 1.9566                 2.1225
 Frc consts  --      0.1039                 0.1076                 0.1327
 IR Inten    --      0.0282                 0.0187                 0.0151

                     13                     14                     15
                      A                      A                      A
 Frequencies --    350.0905               377.5275               399.2492
 Red. masses --      2.1860                 2.2466                 2.2840
 Frc consts  --      0.1579                 0.1887                 0.2145
 IR Inten    --      0.0447                 0.0780                 0.0254

                     16                     17                     18
                      A                      A                      A
 Frequencies --    451.9053               471.2449               530.8884
 Red. masses --      2.4616                 2.2904                 2.5201
 Frc consts  --      0.2962                 0.2997                 0.4185
 IR Inten    --      0.1994                 0.1888                 0.2797

                     19                     20                     21
                      A                      A                      A
 Frequencies --    723.1891               773.1902               789.9171
 Red. masses --      1.9364                 1.3706                 1.4660
 Frc consts  --      0.5967                 0.4828                 0.5389
 IR Inten    --      2.0552                 1.5487                 1.1945

                     22                     23                     24
                      A                      A                      A
 Frequencies --    854.1255               921.5051               927.6037
 Red. masses --      1.7609                 1.9340                 1.9200
 Frc consts  --      0.7569                 0.9676                 0.9734
 IR Inten    --      0.5186                 2.4290                 2.8176

                     25                     26                     27
                      A                      A                      A
 Frequencies --    932.1661               935.7832               957.1387
 Red. masses --      1.7468                 1.7969                 1.2001
 Frc consts  --      0.8943                 0.9271                 0.6478
 IR Inten    --      0.4480                 0.2004                 0.0079

                     28                     29                     30
                      A                      A                      A
 Frequencies --   1024.5912              1025.1670              1038.6288
 Red. masses --      1.7161                 1.3716                 1.5310
 Frc consts  --      1.0614                 0.8493                 0.9731
 IR Inten    --      1.1395                 0.0819                 0.4426

                     31                     32                     33
                      A                      A                      A
 Frequencies --   1046.2382              1054.3734              1110.5656
 Red. masses --      1.9638                 1.9390                 1.5871
 Frc consts  --      1.2665                 1.2700                 1.1533
 IR Inten    --      0.6726                 0.5764                 1.7253

                     34                     35                     36
                      A                      A                      A
 Frequencies --   1137.0793              1169.4365              1218.8568
 Red. masses --      1.9196                 2.0294                 2.1138
 Frc consts  --      1.4624                 1.6352                 1.8502
 IR Inten    --      0.3312                 2.0070                 4.9424

                     37                     38                     39
                      A                      A                      A
 Frequencies --   1241.6862              1258.4859              1286.4658
 Red. masses --      2.5842                 2.4614                 1.3021
 Frc consts  --      2.3475                 2.2969                 1.2696
 IR Inten    --      3.1266                 9.9094                 0.3741

                     40                     41                     42
                      A                      A                      A
 Frequencies --   1301.1716              1331.8669              1344.2302
 Red. masses --      1.2551                 1.2737                 1.2731
 Frc consts  --      1.2520                 1.3312                 1.3553
 IR Inten    --      0.4869                 1.9558                 2.1681

                     43                     44                     45
                      A                      A                      A
 Frequencies --   1382.3692              1385.2915              1399.9732
 Red. masses --      1.4107                 1.4048                 1.2320
 Frc consts  --      1.5883                 1.5883                 1.4226
 IR Inten    --      1.2762                 0.0922                 4.1178

                     46                     47                     48
                      A                      A                      A
 Frequencies --   1400.5186              1410.9937              1411.5808
 Red. masses --      1.2282                 1.2273                 1.2324
 Frc consts  --      1.4194                 1.4396                 1.4468
 IR Inten    --      4.8613                 1.8755                 3.8487

                     49                     50                     51
                      A                      A                      A
 Frequencies --   1432.5852              1479.1468              1483.1417
 Red. masses --      1.2216                 1.0524                 1.0514
 Frc consts  --      1.4771                 1.3566                 1.3626
 IR Inten    --      7.3151                 0.0941                 0.3371

                     52                     53                     54
                      A                      A                      A
 Frequencies --   1486.7203              1487.9540              1493.0364
 Red. masses --      1.0457                 1.0547                 1.0494
 Frc consts  --      1.3618                 1.3759                 1.3783
 IR Inten    --      0.4732                 0.4169                 0.1520

                     55                     56                     57
                      A                      A                      A
 Frequencies --   1500.1420              1504.2166              1506.5549
 Red. masses --      1.0420                 1.0417                 1.0569
 Frc consts  --      1.3816                 1.3887                 1.4133
 IR Inten    --      0.8343                 2.3845                 0.6492

                     58                     59                     60
                      A                      A                      A
 Frequencies --   1506.9293              1511.6829              1518.1911
 Red. masses --      1.0583                 1.0681                 1.0670
 Frc consts  --      1.4160                 1.4380                 1.4490
 IR Inten    --      1.0142                 5.1965                11.5689

                     61                     62                     63
                      A                      A                      A
 Frequencies --   1521.0575              2981.4703              3024.5405
 Red. masses --      1.0596                 1.0819                 1.0426
 Frc consts  --      1.4444                 5.6662                 5.6194
 IR Inten    --     11.6276                14.7925                12.5233

                     64                     65                     66
                      A                      A                      A
 Frequencies --   3025.9387              3027.6029              3029.4580
 Red. masses --      1.0554                 1.0364                 1.0374
 Frc consts  --      5.6934                 5.5970                 5.6095
 IR Inten    --     11.1883                24.9227                24.0402

                     67                     68                     69
                      A                      A                      A
 Frequencies --   3031.0964              3033.7489              3038.8826
 Red. masses --      1.0371                 1.0442                 1.0553
 Frc consts  --      5.6139                 5.6624                 5.7420
 IR Inten    --     54.1511                19.0395                20.9335

                     70                     71                     72
                      A                      A                      A
 Frequencies --   3061.5036              3070.4748              3085.7882
 Red. masses --      1.0990                 1.0953                 1.1014
 Frc consts  --      6.0691                 6.0838                 6.1792
 IR Inten    --     18.2101                 8.0145                 1.2246

                     73                     74                     75
                      A                      A                      A
 Frequencies --   3090.0856              3094.2578              3095.0163
 Red. masses --      1.1008                 1.1010                 1.0999
 Frc consts  --      6.1931                 6.2111                 6.2077
 IR Inten    --     15.6023                40.4456                71.1827

                     76                     77                     78
                      A                      A                      A
 Frequencies --   3096.6818              3100.0540              3104.8029
 Red. masses --      1.1014                 1.1009                 1.1007
 Frc consts  --      6.2230                 6.2333                 6.2515
 IR Inten    --     57.3310                25.2920                 5.7149

                     79                     80                     81
                      A                      A                      A
 Frequencies --   3107.7347              3109.9934              3110.2869
 Red. masses --      1.0998                 1.0996                 1.0976
 Frc consts  --      6.2582                 6.2665                 6.2561
 IR Inten    --     68.7498                34.5166                51.9978

 - Thermochemistry -
 -------------------
 Temperature   298.150 Kelvin.  Pressure   1.00000 Atm.
 Atom     1 has atomic number  6 and mass  12.00000

 Molecular mass:   128.15650 amu.
 Principal axes and moments of inertia in atomic units:
                           1         2         3
     Eigenvalues --  1066.589691436.314021977.46791
           X            1.00000   0.00043   0.00283
           Y           -0.00044   1.00000   0.00300
           Z           -0.00283  -0.00300   0.99999
 This molecule is an asymmetric top.
 Rotational symmetry number  1.
 Warning -- assumption of classical behavior for rotation
           may cause significant error
 Rotational temperatures (Kelvin)      0.08121     0.06030     0.04380
 Rotational constants (GHZ):           1.69207     1.25651     0.91265
 Zero-point vibrational energy     715852.3 (Joules/Mol)
                                  171.09281 (Kcal/Mol)
 Warning -- explicit consideration of  18 degrees of freedom as
           vibrations may cause significant error
 Vibrational temperatures:     69.13   125.03   175.95   284.29   286.56
          (Kelvin)            310.17   322.28   363.45   408.25   423.04
                              439.64   468.72   503.70   543.18   574.43
                              650.19   678.02   763.83  1040.51  1112.45
                             1136.51  1228.90  1325.84  1334.61  1341.18
                             1346.38  1377.11  1474.16  1474.99  1494.36
                             1505.30  1517.01  1597.86  1636.00  1682.56
                             1753.66  1786.51  1810.68  1850.94  1872.10
                             1916.26  1934.05  1988.92  1993.13  2014.25
                             2015.03  2030.11  2030.95  2061.17  2128.16
                             2133.91  2139.06  2140.83  2148.15  2158.37
                             2164.23  2167.60  2168.14  2174.97  2184.34
                             2188.46  4289.67  4351.64  4353.65  4356.05
                             4358.71  4361.07  4364.89  4372.27  4404.82
                             4417.73  4439.76  4445.94  4451.95  4453.04
                             4455.43  4460.29  4467.12  4471.34  4474.59
                             4475.01

 Zero-point correction=                           0.272654 (Hartree/Particle)
 Thermal correction to Energy=                    0.284825
 Thermal correction to Enthalpy=                  0.285769
 Thermal correction to Gibbs Free Energy=         0.235867
 Sum of electronic and zero-point Energies=           -354.772342
 Sum of electronic and thermal Energies=              -354.760171
 Sum of electronic and thermal Enthalpies=            -354.759227
 Sum of electronic and thermal Free Energies=         -354.809129

                     E (Thermal)             CV                S
                      KCal/Mol        Cal/Mol-Kelvin    Cal/Mol-Kelvin
 Total                  178.730             46.150            105.028
 Electronic               0.000              0.000              0.000
 Translational            0.889              2.981             40.457
 Rotational               0.889              2.981             29.495
 Vibrational            176.953             40.188             35.076
 Vibration     1          0.595              1.978              4.896
 Vibration     2          0.601              1.958              3.729
 Vibration     3          0.610              1.931              3.064
 Vibration     4          0.637              1.843              2.155
 Vibration     5          0.637              1.841              2.141
 Vibration     6          0.645              1.817              1.996
 Vibration     7          0.649              1.805              1.927
 Vibration     8          0.664              1.758              1.712
 Vibration     9          0.682              1.704              1.511
 Vibration    10          0.689              1.685              1.451
 Vibration    11          0.696              1.663              1.386
 Vibration    12          0.710              1.624              1.281
 Vibration    13          0.727              1.575              1.166
 Vibration    14          0.748              1.518              1.049
 Vibration    15          0.765              1.472              0.965
 Vibration    16          0.811              1.357              0.790
 Vibration    17          0.828              1.314              0.734
 Vibration    18          0.886              1.182              0.585

                           ! Non-Optimized Parameters !
 Normal termination of Gaussian 16 at Mon May 29 09:51:01 2023.
