 Gaussian 16, Revision A.03,
 Gaussian 16:  ES64L-G16RevA.03 25-Dec-2016

 -----------------------------
 # opt freq b3lyp/6-31g(2df,p)
 -----------------------------

 -------------------
 Title Card Required
 -------------------
 Symbolic Z-matrix:
 Charge =  0 Multiplicity = 1

 SCF Done:  E(RB3LYP) =  -276.417196494     A.U. after   12 cycles
 SCF Done:  E(RB3LYP) =  -276.417904276     A.U. after    9 cycles
 SCF Done:  E(RB3LYP) =  -276.417942911     A.U. after    9 cycles
 SCF Done:  E(RB3LYP) =  -276.418099624     A.U. after    9 cycles
 SCF Done:  E(RB3LYP) =  -276.418106017     A.U. after    8 cycles
 SCF Done:  E(RB3LYP) =  -276.418113876     A.U. after    7 cycles
 SCF Done:  E(RB3LYP) =  -276.418118620     A.U. after    8 cycles
 SCF Done:  E(RB3LYP) =  -276.418123909     A.U. after    8 cycles
 SCF Done:  E(RB3LYP) =  -276.418128633     A.U. after    8 cycles
 SCF Done:  E(RB3LYP) =  -276.418133749     A.U. after    9 cycles
 SCF Done:  E(RB3LYP) =  -276.418134588     A.U. after    9 cycles
 SCF Done:  E(RB3LYP) =  -276.418134366     A.U. after    8 cycles
 SCF Done:  E(RB3LYP) =  -276.418134698     A.U. after    8 cycles
 SCF Done:  E(RB3LYP) =  -276.418134730     A.U. after    6 cycles
 SCF Done:  E(RB3LYP) =  -276.418134741     A.U. after    6 cycles
 Optimization completed.
    -- Stationary point found.
 Normal termination of Gaussian 16 at Sun May 28 03:12:56 2023.

 ----------------------------------------------------------------------
 #N Geom=AllCheck Guess=TCheck SCRF=Check GenChk RB3LYP/6-31G(2df,p) Fr
 eq
 ----------------------------------------------------------------------

 Structure from the checkpoint file:  "CCCqCrCqCrC.chk"
 -------------------
 Title Card Required
 -------------------
 Charge =  0 Multiplicity = 1

                         Standard orientation:
 ---------------------------------------------------------------------
 Center     Atomic      Atomic             Coordinates (Angstroms)
 Number     Number       Type             X           Y           Z
 ---------------------------------------------------------------------
      1          6           0        2.754816   -0.399075    0.250101
      2          6           0        1.386963   -0.576324   -0.419682
      3          6           0        0.246757    0.261056    0.200073
      4          6           0        0.491044    1.759318   -0.045899
      5          6           0       -1.146100   -0.199476   -0.312772
      6          6           0       -1.490607   -1.628710    0.139527
      7          6           0       -2.282760    0.742726    0.117673
      8          1           0        3.497507   -1.063646   -0.202974
      9          1           0        2.704043   -0.639962    1.318138
     10          1           0        3.135900    0.622387    0.159363
     11          1           0        1.128019   -1.638679   -0.378536
     12          1           0        1.466174   -0.326269   -1.487110
     13          1           0        0.261692    0.092553    1.288830
     14          1           0        0.389353    2.001822   -1.111218
     15          1           0        1.497542    2.053762    0.263264
     16          1           0       -0.210315    2.387627    0.507955
     17          1           0       -1.107155   -0.191879   -1.412983
     18          1           0       -1.527485   -1.690102    1.234169
     19          1           0       -0.771647   -2.373057   -0.210966
     20          1           0       -2.474565   -1.925023   -0.238670
     21          1           0       -2.317673    0.843736    1.209667
     22          1           0       -3.250899    0.345857   -0.205205
     23          1           0       -2.181162    1.743786   -0.307858
 ---------------------------------------------------------------------

 SCF Done:  E(RB3LYP) =  -276.418134741     A.U. after    1 cycles

 The electronic state is 1-A.
 Alpha  occ. eigenvalues --  -10.18090 -10.17903 -10.17224 -10.16863 -10.16652
 Alpha  occ. eigenvalues --  -10.16618 -10.16543  -0.81515  -0.75727  -0.71026
 Alpha  occ. eigenvalues --   -0.67506  -0.63565  -0.58236  -0.54370  -0.46013
 Alpha  occ. eigenvalues --   -0.44543  -0.43867  -0.41438  -0.40250  -0.39208
 Alpha  occ. eigenvalues --   -0.37692  -0.36584  -0.35723  -0.35110  -0.34089
 Alpha  occ. eigenvalues --   -0.32751  -0.31013  -0.29999  -0.29843
 Alpha virt. eigenvalues --    0.08356   0.11053   0.11469   0.12542   0.13959
 Alpha virt. eigenvalues --    0.15030   0.15918   0.16833   0.17137   0.17567
 Alpha virt. eigenvalues --    0.18072   0.18825   0.19477   0.20263   0.22262

 Mulliken charges:
               1
     1  C   -0.389075
     2  C   -0.172395
     3  C    0.068571
     4  C   -0.406853
     5  C    0.049470
     6  C   -0.394434
     7  C   -0.398782
     8  H    0.109889
     9  H    0.112247
    10  H    0.117034
    11  H    0.093625
    12  H    0.089418
    13  H    0.061083
    14  H    0.108701
    15  H    0.110813
    16  H    0.114144
    17  H    0.065868
    18  H    0.109869
    19  H    0.113904
    20  H    0.107992
    21  H    0.108951
    22  H    0.106311
    23  H    0.113648
 Sum of Mulliken charges =  -0.00000

 Dipole moment (field-independent basis, Debye):
    X=             -0.0028    Y=             -0.0461    Z=             -0.0474  Tot=              0.0662
 Quadrupole moment (field-independent basis, Debye-Ang):
   XX=            -48.6674   YY=            -48.5173   ZZ=            -47.6913
   XY=             -0.0331   XZ=              0.0314   YZ=              0.0430

  Exact polarizability:  88.003  -0.252  77.766  -0.054  -0.017  67.799
 Approx polarizability: 108.068   0.133 105.624  -0.105  -0.113 105.865

                      1                      2                      3
                      A                      A                      A
 Frequencies --     25.3518                65.0414               191.2471
 Red. masses --      1.8129                 2.2171                 1.3586
 Frc consts  --      0.0007                 0.0055                 0.0293
 IR Inten    --      0.0045                 0.0067                 0.0233

                      4                      5                      6
                      A                      A                      A
 Frequencies --    209.4276               218.4488               225.8449
 Red. masses --      1.1648                 1.2889                 1.2215
 Frc consts  --      0.0301                 0.0362                 0.0367
 IR Inten    --      0.0322                 0.0402                 0.0042

                      7                      8                      9
                      A                      A                      A
 Frequencies --    261.3196               330.3719               368.3696
 Red. masses --      1.4743                 1.9344                 2.2052
 Frc consts  --      0.0593                 0.1244                 0.1763
 IR Inten    --      0.0419                 0.0113                 0.1596

                     10                     11                     12
                      A                      A                      A
 Frequencies --    378.0370               418.7350               451.5294
 Red. masses --      2.0133                 2.6210                 2.1877
 Frc consts  --      0.1695                 0.2708                 0.2628
 IR Inten    --      0.0683                 0.0649                 0.1596

                     13                     14                     15
                      A                      A                      A
 Frequencies --    487.3076               761.0911               794.6533
 Red. masses --      2.2012                 1.5412                 1.4756
 Frc consts  --      0.3080                 0.5260                 0.5490
 IR Inten    --      0.0067                 1.9270                 0.8360

                     16                     17                     18
                      A                      A                      A
 Frequencies --    850.9652               922.2563               929.3473
 Red. masses --      2.3338                 1.4655                 1.4199
 Frc consts  --      0.9957                 0.7344                 0.7225
 IR Inten    --      0.4450                 0.8135                 0.5097

                     19                     20                     21
                      A                      A                      A
 Frequencies --    963.1068               968.6079               993.7416
 Red. masses --      1.4898                 1.1863                 1.8036
 Frc consts  --      0.8142                 0.6558                 1.0494
 IR Inten    --      0.2991                 1.3945                 0.9385

                     22                     23                     24
                      A                      A                      A
 Frequencies --   1007.7006              1046.9365              1089.1616
 Red. masses --      1.3683                 2.1548                 2.1597
 Frc consts  --      0.8186                 1.3916                 1.5095
 IR Inten    --      7.8144                 0.1904                 0.5536

                     25                     26                     27
                      A                      A                      A
 Frequencies --   1169.5036              1174.3066              1192.6856
 Red. masses --      1.9906                 1.9866                 1.7174
 Frc consts  --      1.6041                 1.6141                 1.4394
 IR Inten    --      5.2731                 2.6032                 0.6842

                     28                     29                     30
                      A                      A                      A
 Frequencies --   1201.8738              1282.3271              1308.9663
 Red. masses --      2.1885                 1.3510                 1.2274
 Frc consts  --      1.8626                 1.3089                 1.2391
 IR Inten    --      0.4927                 7.4487                 0.9021

                     31                     32                     33
                      A                      A                      A
 Frequencies --   1342.8057              1353.1961              1372.1169
 Red. masses --      1.2729                 1.3462                 1.4040
 Frc consts  --      1.3523                 1.4524                 1.5574
 IR Inten    --      5.3839                 0.6134                 0.6661

                     34                     35                     36
                      A                      A                      A
 Frequencies --   1382.6060              1401.6412              1407.2912
 Red. masses --      1.4386                 1.2429                 1.2742
 Frc consts  --      1.6203                 1.4387                 1.4868
 IR Inten    --      0.8397                 2.1443                 3.4152

                     37                     38                     39
                      A                      A                      A
 Frequencies --   1415.4586              1422.8301              1480.9907
 Red. masses --      1.2148                 1.2135                 1.0640
 Frc consts  --      1.4340                 1.4475                 1.3750
 IR Inten    --      2.8249                 2.9571                 0.3757

                     40                     41                     42
                      A                      A                      A
 Frequencies --   1487.5770              1491.4692              1497.1157
 Red. masses --      1.0500                 1.0438                 1.0437
 Frc consts  --      1.3689                 1.3681                 1.3782
 IR Inten    --      0.8857                 3.8021                 2.6395

                     43                     44                     45
                      A                      A                      A
 Frequencies --   1499.9182              1505.8797              1508.4877
 Red. masses --      1.0590                 1.0560                 1.0561
 Frc consts  --      1.4038                 1.4109                 1.4160
 IR Inten    --      1.2280                 1.2541                 4.5505

                     46                     47                     48
                      A                      A                      A
 Frequencies --   1512.1658              1524.2494              2972.7240
 Red. masses --      1.0494                 1.0477                 1.0794
 Frc consts  --      1.4138                 1.4342                 5.6202
 IR Inten    --     13.9776                 2.3935                 3.0947

                     49                     50                     51
                      A                      A                      A
 Frequencies --   2988.5524              3014.0699              3024.2346
 Red. masses --      1.0829                 1.0681                 1.0389
 Frc consts  --      5.6985                 5.7172                 5.5982
 IR Inten    --     23.0062                30.4082                19.3670

                     52                     53                     54
                      A                      A                      A
 Frequencies --   3029.6213              3030.3540              3032.4871
 Red. masses --      1.0398                 1.0405                 1.0390
 Frc consts  --      5.6231                 5.6295                 5.6292
 IR Inten    --     49.5148                21.2004                17.7558

                     55                     56                     57
                      A                      A                      A
 Frequencies --   3069.6749              3085.0717              3092.5741
 Red. masses --      1.0924                 1.0997                 1.0989
 Frc consts  --      6.0651                 6.1668                 6.1921
 IR Inten    --     13.9462                 1.3217                61.7019

                     58                     59                     60
                      A                      A                      A
 Frequencies --   3095.2647              3098.7812              3106.3583
 Red. masses --      1.1007                 1.0959                 1.0989
 Frc consts  --      6.2130                 6.2000                 6.2478
 IR Inten    --     40.1648                36.4522                17.7247

                     61                     62                     63
                      A                      A                      A
 Frequencies --   3112.8701              3115.2081              3121.7841
 Red. masses --      1.0995                 1.0970                 1.0986
 Frc consts  --      6.2774                 6.2724                 6.3079
 IR Inten    --     64.8046                56.0023                14.4266

 - Thermochemistry -
 -------------------
 Temperature   298.150 Kelvin.  Pressure   1.00000 Atm.
 Atom     1 has atomic number  6 and mass  12.00000

 Molecular mass:   100.12520 amu.
 Principal axes and moments of inertia in atomic units:
                           1         2         3
     Eigenvalues --   483.732891096.951431454.67360
           X            1.00000   0.00033  -0.00034
           Y           -0.00033   1.00000  -0.00213
           Z            0.00034   0.00213   1.00000
 This molecule is an asymmetric top.
 Rotational symmetry number  1.
 Warning -- assumption of classical behavior for rotation
           may cause significant error
 Rotational temperatures (Kelvin)      0.17905     0.07896     0.05954
 Rotational constants (GHZ):           3.73086     1.64523     1.24065
 Zero-point vibrational energy     567530.5 (Joules/Mol)
                                  135.64305 (Kcal/Mol)
 Warning -- explicit consideration of  13 degrees of freedom as
           vibrations may cause significant error
 Vibrational temperatures:     36.48    93.58   275.16   301.32   314.30
          (Kelvin)            324.94   375.98   475.33   530.00   543.91
                              602.47   649.65   701.13  1095.04  1143.33
                             1224.35  1326.92  1337.12  1385.70  1393.61
                             1429.77  1449.86  1506.31  1567.06  1682.65
                             1689.57  1716.01  1729.23  1844.98  1883.31
                             1932.00  1946.95  1974.17  1989.26  2016.65
                             2024.78  2036.53  2047.14  2130.82  2140.29
                             2145.89  2154.02  2158.05  2166.63  2170.38
                             2175.67  2193.05  4277.09  4299.86  4336.57
                             4351.20  4358.95  4360.00  4363.07  4416.58
                             4438.73  4449.52  4453.40  4458.46  4469.36
                             4478.73  4482.09  4491.55

 Zero-point correction=                           0.216161 (Hartree/Particle)
 Thermal correction to Energy=                    0.225923
 Thermal correction to Enthalpy=                  0.226867
 Thermal correction to Gibbs Free Energy=         0.181350
 Sum of electronic and zero-point Energies=           -276.201974
 Sum of electronic and thermal Energies=              -276.192212
 Sum of electronic and thermal Enthalpies=            -276.191267
 Sum of electronic and thermal Free Energies=         -276.236785

                     E (Thermal)             CV                S
                      KCal/Mol        Cal/Mol-Kelvin    Cal/Mol-Kelvin
 Total                  141.769             35.495             95.800
 Electronic               0.000              0.000              0.000
 Translational            0.889              2.981             39.722
 Rotational               0.889              2.981             28.136
 Vibrational            139.991             29.533             27.942
 Vibration     1          0.593              1.985              6.163
 Vibration     2          0.597              1.971              4.298
 Vibration     3          0.634              1.852              2.216
 Vibration     4          0.642              1.826              2.049
 Vibration     5          0.646              1.813              1.972
 Vibration     6          0.650              1.802              1.912
 Vibration     7          0.669              1.744              1.653
 Vibration     8          0.713              1.615              1.258
 Vibration     9          0.741              1.537              1.087
 Vibration    10          0.748              1.517              1.047
 Vibration    11          0.782              1.430              0.896
 Vibration    12          0.810              1.358              0.791
 Vibration    13          0.843              1.278              0.691

 Optimization completed.
    -- Stationary point found.
 Normal termination of Gaussian 16 at Sun May 28 03:37:48 2023.
