 Gaussian 16, Revision A.03,
 Gaussian 16:  ES64L-G16RevA.03 25-Dec-2016

 -----------------------------
 # opt freq b3lyp/6-31g(2df,p)
 -----------------------------

 -------------------
 Title Card Required
 -------------------
 Symbolic Z-matrix:
 Charge =  0 Multiplicity = 1

 SCF Done:  E(RB3LYP) =  -811.501383626     A.U. after   14 cycles
 SCF Done:  E(RB3LYP) =  -811.529101846     A.U. after   12 cycles
 SCF Done:  E(RB3LYP) =  -811.548071533     A.U. after   12 cycles
 SCF Done:  E(RB3LYP) =  -811.555249971     A.U. after   12 cycles
 SCF Done:  E(RB3LYP) =  -811.558027674     A.U. after   12 cycles
 SCF Done:  E(RB3LYP) =  -811.559661187     A.U. after   13 cycles
 SCF Done:  E(RB3LYP) =  -811.560833252     A.U. after   10 cycles
 SCF Done:  E(RB3LYP) =  -811.561223528     A.U. after   12 cycles
 SCF Done:  E(RB3LYP) =  -811.561363721     A.U. after   11 cycles
 SCF Done:  E(RB3LYP) =  -811.561450726     A.U. after   11 cycles
 SCF Done:  E(RB3LYP) =  -811.561754871     A.U. after   10 cycles
 SCF Done:  E(RB3LYP) =  -811.561778469     A.U. after   12 cycles
 SCF Done:  E(RB3LYP) =  -811.561790114     A.U. after   10 cycles
 SCF Done:  E(RB3LYP) =  -811.561797210     A.U. after    9 cycles
 SCF Done:  E(RB3LYP) =  -811.561797401     A.U. after    9 cycles
 SCF Done:  E(RB3LYP) =  -811.561800455     A.U. after   10 cycles
 SCF Done:  E(RB3LYP) =  -811.561799778     A.U. after    9 cycles
 SCF Done:  E(RB3LYP) =  -811.561800796     A.U. after    9 cycles
 SCF Done:  E(RB3LYP) =  -811.561800810     A.U. after    6 cycles
 Optimization completed.
    -- Stationary point found.
 Normal termination of Gaussian 16 at Sun May 28 00:02:26 2023.

 ----------------------------------------------------------------------
 #N Geom=AllCheck Guess=TCheck SCRF=Check GenChk RB3LYP/6-31G(2df,p) Fr
 eq
 ----------------------------------------------------------------------

 Structure from the checkpoint file:  "CCCqCrCCqCCNCCCCNCrOCdO.chk"
 -------------------
 Title Card Required
 -------------------
 Charge =  0 Multiplicity = 1

                         Standard orientation:
 ---------------------------------------------------------------------
 Center     Atomic      Atomic             Coordinates (Angstroms)
 Number     Number       Type             X           Y           Z
 ---------------------------------------------------------------------
      1          6           0        3.671420    4.100286    0.693137
      2          6           0        4.119623    2.727605    0.182579
      3          6           0        2.981282    1.710125   -0.048455
      4          6           0        1.971226    2.226721   -1.086285
      5          6           0        3.585623    0.342502   -0.449646
      6          6           0        2.847373   -0.919332    0.021500
      7          6           0        1.443025   -1.160672   -0.550918
      8          6           0        0.310218   -0.641113    0.340240
      9          7           0       -0.968194   -0.738905   -0.348710
     10          6           0       -2.108389   -0.325585    0.462789
     11          6           0       -3.420473   -0.478829   -0.305970
     12          6           0       -4.641326   -0.018134    0.495302
     13          6           0       -5.954213   -0.174447   -0.271612
     14          7           0       -7.092916    0.242086    0.537080
     15          6           0       -8.365186    0.137282   -0.163082
     16          8           0        3.660253   -2.053282   -0.376759
     17          6           0        4.456936   -2.620482    0.542535
     18          8           0        5.188751   -3.533112    0.297154
     19          1           0        4.537649    4.728949    0.921504
     20          1           0        3.079204    4.007220    1.610923
     21          1           0        3.064065    4.636911   -0.041381
     22          1           0        4.824807    2.296643    0.904439
     23          1           0        4.682250    2.848465   -0.753688
     24          1           0        2.461027    1.590990    0.913861
     25          1           0        2.474897    2.425365   -2.040026
     26          1           0        1.502030    3.158632   -0.758851
     27          1           0        1.167827    1.512712   -1.281290
     28          1           0        4.599796    0.270957   -0.038485
     29          1           0        3.698249    0.285874   -1.539504
     30          1           0        2.791394   -0.915008    1.120647
     31          1           0        1.324232   -2.242772   -0.675456
     32          1           0        1.355789   -0.722256   -1.549692
     33          1           0        0.469623    0.413713    0.594026
     34          1           0        0.328506   -1.191138    1.302256
     35          1           0       -1.109518   -1.696744   -0.658889
     36          1           0       -1.962498    0.729708    0.731518
     37          1           0       -2.173897   -0.879611    1.419515
     38          1           0       -3.549718   -1.533461   -0.589442
     39          1           0       -3.344788    0.084669   -1.243687
     40          1           0       -4.512855    1.037283    0.776788
     41          1           0       -4.715617   -0.579874    1.434187
     42          1           0       -6.100427   -1.231364   -0.534908
     43          1           0       -5.887968    0.372878   -1.233260
     44          1           0       -6.953032    1.202535    0.835561
     45          1           0       -8.581501   -0.917043   -0.371369
     46          1           0       -8.400192    0.677198   -1.127351
     47          1           0       -9.169090    0.521260    0.472009
     48          1           0        4.352665   -2.159360    1.545612
 ---------------------------------------------------------------------

 SCF Done:  E(RB3LYP) =  -811.561800810     A.U. after    1 cycles

 The electronic state is 1-A.
 Alpha  occ. eigenvalues --  -19.18290 -19.12533 -14.31723 -14.31005 -10.30402
 Alpha  occ. eigenvalues --  -10.25572 -10.21324 -10.20673 -10.20190 -10.19759
 Alpha  occ. eigenvalues --  -10.19710 -10.19053 -10.18971 -10.18530 -10.18253
 Alpha  occ. eigenvalues --  -10.18108 -10.17788 -10.17682  -1.09770  -1.02075
 Alpha  occ. eigenvalues --   -0.90925  -0.89759  -0.82750  -0.79673  -0.78067
 Alpha  occ. eigenvalues --   -0.73980  -0.72119  -0.69982  -0.66627  -0.64479
 Alpha  occ. eigenvalues --   -0.62863  -0.60803  -0.60664  -0.59886  -0.58379
 Alpha  occ. eigenvalues --   -0.56680  -0.52666  -0.50096  -0.48681  -0.47821
 Alpha  occ. eigenvalues --   -0.47059  -0.46023  -0.45881  -0.45271  -0.44890
 Alpha  occ. eigenvalues --   -0.43450  -0.42934  -0.42529  -0.42074  -0.41898
 Alpha  occ. eigenvalues --   -0.40668  -0.39235  -0.38679  -0.38435  -0.37453
 Alpha  occ. eigenvalues --   -0.37211  -0.36749  -0.36331  -0.35742  -0.35288
 Alpha  occ. eigenvalues --   -0.34463  -0.34367  -0.33950  -0.33326  -0.32846
 Alpha  occ. eigenvalues --   -0.32686  -0.32359  -0.31935  -0.28939  -0.27246
 Alpha  occ. eigenvalues --   -0.22791  -0.21927
 Alpha virt. eigenvalues --    0.01137   0.06964   0.08163   0.08419   0.08975
 Alpha virt. eigenvalues --    0.09698   0.09961   0.10579   0.10987   0.11835
 Alpha virt. eigenvalues --    0.12003   0.12782   0.13228   0.13576   0.14238

 Mulliken charges:
               1
     1  C   -0.394609
     2  C   -0.169935
     3  C    0.033686
     4  C   -0.405125
     5  C   -0.199735
     6  C    0.075284
     7  C   -0.226785
     8  C   -0.133530
     9  N   -0.301985
    10  C   -0.124717
    11  C   -0.198200
    12  C   -0.193039
    13  C   -0.119611
    14  N   -0.279792
    15  C   -0.308456
    16  O   -0.186697
    17  C    0.162392
    18  O   -0.280445
    19  H    0.115542
    20  H    0.112632
    21  H    0.121045
    22  H    0.093356
    23  H    0.098159
    24  H    0.068494
    25  H    0.113498
    26  H    0.115976
    27  H    0.136423
    28  H    0.097013
    29  H    0.111695
    30  H    0.083408
    31  H    0.112845
    32  H    0.119193
    33  H    0.111909
    34  H    0.076174
    35  H    0.212063
    36  H    0.099920
    37  H    0.076153
    38  H    0.091014
    39  H    0.107448
    40  H    0.088352
    41  H    0.107593
    42  H    0.099276
    43  H    0.071920
    44  H    0.211573
    45  H    0.120506
    46  H    0.090550
    47  H    0.115577
    48  H    0.071992
 Sum of Mulliken charges =  -0.00000

 Dipole moment (field-independent basis, Debye):
    X=             -2.7059    Y=              3.5084    Z=              0.8725  Tot=              4.5157
 Quadrupole moment (field-independent basis, Debye-Ang):
   XX=           -131.4273   YY=           -124.2690   ZZ=           -115.5293
   XY=             16.9090   XZ=              6.9635   YZ=             -0.6067

  Exact polarizability: 217.520 -10.026 177.878   4.323   1.763 146.052
 Approx polarizability: 247.606 -15.114 245.634   2.299   3.301 233.460

                      1                      2                      3
                      A                      A                      A
 Frequencies --     13.4734                27.0694                32.1371
 Red. masses --      4.2677                 1.9160                 3.9057
 Frc consts  --      0.0005                 0.0008                 0.0024
 IR Inten    --      0.2817                 0.0453                 0.2293

                      4                      5                      6
                      A                      A                      A
 Frequencies --     34.4887                42.3495                55.0329
 Red. masses --      4.7393                 3.8752                 2.3750
 Frc consts  --      0.0033                 0.0041                 0.0042
 IR Inten    --      0.3757                 0.7631                 1.8067

                      7                      8                      9
                      A                      A                      A
 Frequencies --     64.3560                91.9551                94.4798
 Red. masses --      2.9317                 2.2674                 2.8073
 Frc consts  --      0.0072                 0.0113                 0.0148
 IR Inten    --      0.8410                 2.4048                 0.1605

                     10                     11                     12
                      A                      A                      A
 Frequencies --    102.7012               119.4350               135.9299
 Red. masses --      2.3788                 1.9092                 2.5275
 Frc consts  --      0.0148                 0.0160                 0.0275
 IR Inten    --      0.2882                 0.4707                12.7685

                     13                     14                     15
                      A                      A                      A
 Frequencies --    141.1495               157.3835               166.6877
 Red. masses --      2.2758                 2.2240                 2.8888
 Frc consts  --      0.0267                 0.0325                 0.0473
 IR Inten    --      1.7639                 4.2205                 1.2952

                     16                     17                     18
                      A                      A                      A
 Frequencies --    169.7167               179.2091               211.2795
 Red. masses --      2.0419                 4.2353                 2.3796
 Frc consts  --      0.0347                 0.0801                 0.0626
 IR Inten    --      1.1453                 0.0816                 0.2934

                     19                     20                     21
                      A                      A                      A
 Frequencies --    228.2507               250.4650               258.6301
 Red. masses --      1.2745                 1.2333                 2.2871
 Frc consts  --      0.0391                 0.0456                 0.0901
 IR Inten    --      0.5815                 0.8027                 0.0616

                     22                     23                     24
                      A                      A                      A
 Frequencies --    261.0570               286.9357               302.3627
 Red. masses --      2.9952                 1.6306                 3.2647
 Frc consts  --      0.1203                 0.0791                 0.1759
 IR Inten    --      2.2155                 0.2385                 2.9620

                     25                     26                     27
                      A                      A                      A
 Frequencies --    328.6049               357.1435               370.2192
 Red. masses --      2.9585                 5.1601                 3.5817
 Frc consts  --      0.1882                 0.3878                 0.2892
 IR Inten    --      0.2376                 1.0399                 1.8021

                     28                     29                     30
                      A                      A                      A
 Frequencies --    419.6050               458.1628               470.2517
 Red. masses --      1.8182                 2.5931                 2.7575
 Frc consts  --      0.1886                 0.3207                 0.3593
 IR Inten    --      0.0257                 1.3898                 0.4192

                     31                     32                     33
                      A                      A                      A
 Frequencies --    507.3011               524.0892               553.2501
 Red. masses --      3.2546                 3.0099                 2.9832
 Frc consts  --      0.4935                 0.4871                 0.5380
 IR Inten    --      0.6657                 3.1147                 2.6782

                     34                     35                     36
                      A                      A                      A
 Frequencies --    692.1769               749.0439               777.6201
 Red. masses --      5.2108                 1.0802                 1.2779
 Frc consts  --      1.4709                 0.3571                 0.4553
 IR Inten    --     19.8203                 1.6019                13.7403

                     37                     38                     39
                      A                      A                      A
 Frequencies --    779.4439               781.4929               787.5655
 Red. masses --      1.2291                 1.1866                 1.2652
 Frc consts  --      0.4400                 0.4270                 0.4624
 IR Inten    --    118.3830                 1.2991                15.0314

                     40                     41                     42
                      A                      A                      A
 Frequencies --    814.7663               838.0479               860.2922
 Red. masses --      1.2289                 1.9141                 2.1197
 Frc consts  --      0.4807                 0.7920                 0.9243
 IR Inten    --      0.1811                 0.4895                 0.8858

                     43                     44                     45
                      A                      A                      A
 Frequencies --    924.7519               941.5142               957.7907
 Red. masses --      1.6108                 1.2786                 2.1489
 Frc consts  --      0.8116                 0.6678                 1.1615
 IR Inten    --      4.6784                 7.3377                 8.2349

                     46                     47                     48
                      A                      A                      A
 Frequencies --    972.7668               974.9925              1001.1666
 Red. masses --      1.2462                 2.1763                 2.2635
 Frc consts  --      0.6948                 1.2189                 1.3367
 IR Inten    --      6.6348                 6.3569                31.1642

                     49                     50                     51
                      A                      A                      A
 Frequencies --   1016.5125              1019.6979              1042.7980
 Red. masses --      2.7235                 3.4345                 2.5806
 Frc consts  --      1.6581                 2.1041                 1.6534
 IR Inten    --     12.4740                 4.6405                14.3942

                     52                     53                     54
                      A                      A                      A
 Frequencies --   1046.7131              1050.4950              1052.0551
 Red. masses --      1.8721                 2.6418                 2.8514
 Frc consts  --      1.2085                 1.7177                 1.8594
 IR Inten    --      1.1020                 4.8453                 5.8164

                     55                     56                     57
                      A                      A                      A
 Frequencies --   1067.9099              1071.6522              1096.4746
 Red. masses --      2.1771                 1.6338                 2.1860
 Frc consts  --      1.4628                 1.1055                 1.5484
 IR Inten    --      1.6132                11.7095                 4.3382

                     58                     59                     60
                      A                      A                      A
 Frequencies --   1111.9023              1121.6768              1139.2505
 Red. masses --      1.4469                 1.9682                 1.7896
 Frc consts  --      1.0540                 1.4590                 1.3685
 IR Inten    --      5.1048                12.8550                74.2450

                     61                     62                     63
                      A                      A                      A
 Frequencies --   1149.8476              1155.2896              1159.9402
 Red. masses --      2.8919                 2.6608                 3.2551
 Frc consts  --      2.2527                 2.0924                 2.5804
 IR Inten    --     67.7473                 5.7081                60.9751

                     64                     65                     66
                      A                      A                      A
 Frequencies --   1181.4059              1183.7114              1192.7763
 Red. masses --      1.9794                 1.9498                 1.7583
 Frc consts  --      1.6277                 1.6097                 1.4739
 IR Inten    --     13.2959                 6.3602                 3.6944

                     67                     68                     69
                      A                      A                      A
 Frequencies --   1201.3084              1226.9617              1238.5027
 Red. masses --      4.3894                 1.6190                 1.4249
 Frc consts  --      3.7322                 1.4360                 1.2878
 IR Inten    --    311.1747                 6.5974                17.2560

                     70                     71                     72
                      A                      A                      A
 Frequencies --   1256.0954              1281.3568              1292.8765
 Red. masses --      1.3452                 1.3947                 1.2910
 Frc consts  --      1.2505                 1.3492                 1.2714
 IR Inten    --      2.4510                18.4360                 4.8267

                     73                     74                     75
                      A                      A                      A
 Frequencies --   1297.8074              1308.9298              1314.1458
 Red. masses --      1.2816                 1.2821                 1.1461
 Frc consts  --      1.2718                 1.2943                 1.1662
 IR Inten    --      8.5922                 3.1309                 2.8984

                     76                     77                     78
                      A                      A                      A
 Frequencies --   1316.0200              1318.8449              1327.0563
 Red. masses --      1.1285                 1.0579                 1.1290
 Frc consts  --      1.1516                 1.0841                 1.1715
 IR Inten    --      8.6395                 1.0099                 4.3782

                     79                     80                     81
                      A                      A                      A
 Frequencies --   1352.2930              1357.0610              1371.7958
 Red. masses --      1.3077                 1.2457                 1.3546
 Frc consts  --      1.4089                 1.3517                 1.5019
 IR Inten    --      1.1684                 5.5155                 2.3413

                     82                     83                     84
                      A                      A                      A
 Frequencies --   1380.8786              1385.5174              1386.0405
 Red. masses --      1.3432                 1.3587                 1.4891
 Frc consts  --      1.5091                 1.5367                 1.6855
 IR Inten    --     13.2731                10.0453                 6.1944

                     85                     86                     87
                      A                      A                      A
 Frequencies --   1400.5618              1411.1153              1413.4664
 Red. masses --      1.3553                 1.5211                 1.2519
 Frc consts  --      1.5663                 1.7846                 1.4737
 IR Inten    --     35.0839                 5.9185                 4.1234

                     88                     89                     90
                      A                      A                      A
 Frequencies --   1419.3563              1429.6776              1442.5920
 Red. masses --      1.2356                 1.4806                 1.2106
 Frc consts  --      1.4665                 1.7830                 1.4844
 IR Inten    --      2.5948                 0.7147                 5.3944

                     91                     92                     93
                      A                      A                      A
 Frequencies --   1459.7875              1479.7716              1484.5316
 Red. masses --      1.1803                 1.0796                 1.1422
 Frc consts  --      1.4820                 1.3929                 1.4831
 IR Inten    --      2.0878                 0.5644                20.0318

                     94                     95                     96
                      A                      A                      A
 Frequencies --   1486.1045              1487.5138              1491.1827
 Red. masses --      1.0698                 1.0752                 1.1146
 Frc consts  --      1.3920                 1.4018                 1.4603
 IR Inten    --      0.3680                 0.0166                 2.4997

                     97                     98                     99
                      A                      A                      A
 Frequencies --   1495.3263              1496.0813              1498.3680
 Red. masses --      1.1934                 1.0561                 1.0982
 Frc consts  --      1.5723                 1.3927                 1.4527
 IR Inten    --     10.1923                 6.5745                20.5668

                    100                    101                    102
                      A                      A                      A
 Frequencies --   1500.1364              1501.6317              1506.8930
 Red. masses --      1.0683                 1.0779                 1.0647
 Frc consts  --      1.4164                 1.4320                 1.4245
 IR Inten    --      5.0188                 4.6147                11.2945

                    103                    104                    105
                      A                      A                      A
 Frequencies --   1514.5112              1516.6998              1519.4710
 Red. masses --      1.0754                 1.0625                 1.0658
 Frc consts  --      1.4533                 1.4401                 1.4498
 IR Inten    --      1.1252                20.5818                 1.8031

                    106                    107                    108
                      A                      A                      A
 Frequencies --   1524.8064              1530.2947              1860.2604
 Red. masses --      1.0835                 1.0849                 9.7964
 Frc consts  --      1.4843                 1.4969                19.9740
 IR Inten    --      0.4909                 0.2977               486.3718

                    109                    110                    111
                      A                      A                      A
 Frequencies --   2900.3706              2900.4032              2911.8894
 Red. masses --      1.0732                 1.0739                 1.0728
 Frc consts  --      5.3190                 5.3225                 5.3596
 IR Inten    --     32.7439                74.5817                93.3000

                    112                    113                    114
                      A                      A                      A
 Frequencies --   2930.3523              2935.5080              2985.4823
 Red. masses --      1.0869                 1.0602                 1.0815
 Frc consts  --      5.4989                 5.3827                 5.6797
 IR Inten    --     52.7645               104.7064                 4.4515

                    115                    116                    117
                      A                      A                      A
 Frequencies --   2990.7298              2999.4015              3006.0153
 Red. masses --      1.0818                 1.0665                 1.0703
 Frc consts  --      5.7009                 5.6529                 5.6982
 IR Inten    --     36.5881                 0.3917                13.8923

                    118                    119                    120
                      A                      A                      A
 Frequencies --   3010.0083              3021.3509              3024.8486
 Red. masses --      1.0604                 1.0828                 1.0592
 Frc consts  --      5.6603                 5.8239                 5.7099
 IR Inten    --     17.7376                 9.3617                33.0577

                    121                    122                    123
                      A                      A                      A
 Frequencies --   3025.5181              3032.2329              3035.6338
 Red. masses --      1.0777                 1.0393                 1.0427
 Frc consts  --      5.8124                 5.6301                 5.6611
 IR Inten    --     76.7359                27.0367                17.4117

                    124                    125                    126
                      A                      A                      A
 Frequencies --   3041.3422              3046.1546              3049.6846
 Red. masses --      1.0700                 1.0991                 1.0941
 Frc consts  --      5.8312                 6.0090                 5.9953
 IR Inten    --      3.9407                16.0377                 0.0243

                    127                    128                    129
                      A                      A                      A
 Frequencies --   3051.3088              3053.3372              3065.8572
 Red. masses --      1.0732                 1.0745                 1.1022
 Frc consts  --      5.8871                 5.9018                 6.1039
 IR Inten    --     42.1346                39.2595                31.7933

                    130                    131                    132
                      A                      A                      A
 Frequencies --   3071.9864              3092.0155              3097.2675
 Red. masses --      1.1005                 1.1017                 1.0999
 Frc consts  --      6.1191                 6.2058                 6.2170
 IR Inten    --     72.9362                33.0168                39.7799

                    133                    134                    135
                      A                      A                      A
 Frequencies --   3100.1684              3101.3519              3110.8258
 Red. masses --      1.1007                 1.0976                 1.0991
 Frc consts  --      6.2328                 6.2199                 6.2669
 IR Inten    --     32.0939                27.1541                38.9447

                    136                    137                    138
                      A                      A                      A
 Frequencies --   3126.0101              3493.3460              3507.4347
 Red. masses --      1.0989                 1.0732                 1.0735
 Frc consts  --      6.3268                 7.7164                 7.7808
 IR Inten    --     19.0504                 0.2340                 0.4539

 - Thermochemistry -
 -------------------
 Temperature   298.150 Kelvin.  Pressure   1.00000 Atm.
 Atom     1 has atomic number  6 and mass  12.00000

 Molecular mass:   258.23073 amu.
 Principal axes and moments of inertia in atomic units:
                           1         2         3
     Eigenvalues --  3506.70603********************
           X            0.99981   0.01912   0.00247
           Y           -0.01912   0.99982   0.00198
           Z           -0.00243  -0.00203   0.99999
 This molecule is an asymmetric top.
 Rotational symmetry number  1.
 Warning -- assumption of classical behavior for rotation
           may cause significant error
 Rotational temperatures (Kelvin)      0.02470     0.00506     0.00432
 Rotational constants (GHZ):           0.51465     0.10543     0.09011
 Zero-point vibrational energy    1144408.6 (Joules/Mol)
                                  273.52021 (Kcal/Mol)
 Warning -- explicit consideration of  33 degrees of freedom as
           vibrations may cause significant error
 Vibrational temperatures:     19.39    38.95    46.24    49.62    60.93
          (Kelvin)             79.18    92.59   132.30   135.94   147.76
                              171.84   195.57   203.08   226.44   239.83
                              244.18   257.84   303.98   328.40   360.36
                              372.11   375.60   412.84   435.03   472.79
                              513.85   532.66   603.72   659.19   676.59
                              729.89   754.05   796.00   995.89  1077.71
                             1118.82  1121.45  1124.39  1133.13  1172.27
                             1205.76  1237.77  1330.51  1354.63  1378.05
                             1399.59  1402.80  1440.46  1462.53  1467.12
                             1500.35  1505.99  1511.43  1513.67  1536.48
                             1541.87  1577.58  1599.78  1613.84  1639.13
                             1654.37  1662.20  1668.90  1699.78  1703.10
                             1716.14  1728.41  1765.32  1781.93  1807.24
                             1843.59  1860.16  1867.26  1883.26  1890.76
                             1893.46  1897.52  1909.34  1945.65  1952.51
                             1973.71  1986.78  1993.45  1994.20  2015.10
                             2030.28  2033.66  2042.14  2056.99  2075.57
                             2100.31  2129.06  2135.91  2138.17  2140.20
                             2145.48  2151.44  2152.53  2155.82  2158.36
                             2160.51  2168.08  2179.04  2182.19  2186.18
                             2193.86  2201.75  2676.50  4172.99  4173.03
                             4189.56  4216.12  4223.54  4295.44  4302.99
                             4315.47  4324.99  4330.73  4347.05  4352.08
                             4353.05  4362.71  4367.60  4375.81  4382.74
                             4387.82  4390.15  4393.07  4411.08  4419.90
                             4448.72  4456.28  4460.45  4462.15  4475.78
                             4497.63  5026.15  5046.42

 Zero-point correction=                           0.435882 (Hartree/Particle)
 Thermal correction to Energy=                    0.459050
 Thermal correction to Enthalpy=                  0.459994
 Thermal correction to Gibbs Free Energy=         0.379195
 Sum of electronic and zero-point Energies=           -811.125919
 Sum of electronic and thermal Energies=              -811.102751
 Sum of electronic and thermal Enthalpies=            -811.101806
 Sum of electronic and thermal Free Energies=         -811.182606

                     E (Thermal)             CV                S
                      KCal/Mol        Cal/Mol-Kelvin    Cal/Mol-Kelvin
 Total                  288.058             81.736            170.057
 Electronic               0.000              0.000              0.000
 Translational            0.889              2.981             42.546
 Rotational               0.889              2.981             35.440
 Vibrational            286.281             75.774             92.071
 Vibration     1          0.593              1.987              7.419
 Vibration     2          0.593              1.984              6.033
 Vibration     3          0.594              1.983              5.693
 Vibration     4          0.594              1.983              5.553
 Vibration     5          0.595              1.980              5.146
 Vibration     6          0.596              1.976              4.628
 Vibration     7          0.597              1.971              4.319
 Vibration     8          0.602              1.955              3.618
 Vibration     9          0.603              1.953              3.565
 Vibration    10          0.605              1.947              3.402
 Vibration    11          0.609              1.933              3.109
 Vibration    12          0.614              1.917              2.860
 Vibration    13          0.615              1.912              2.788
 Vibration    14          0.621              1.894              2.581
 Vibration    15          0.624              1.883              2.473
 Vibration    16          0.625              1.880              2.439
 Vibration    17          0.629              1.868              2.337
 Vibration    18          0.643              1.824              2.033
 Vibration    19          0.651              1.798              1.893
 Vibration    20          0.663              1.762              1.727
 Vibration    21          0.667              1.748              1.671
 Vibration    22          0.669              1.744              1.655
 Vibration    23          0.684              1.698              1.492
 Vibration    24          0.694              1.669              1.404
 Vibration    25          0.712              1.618              1.267
 Vibration    26          0.732              1.561              1.135
 Vibration    27          0.742              1.533              1.079
 Vibration    28          0.782              1.428              0.893
 Vibration    29          0.816              1.343              0.771
 Vibration    30          0.827              1.316              0.737
 Vibration    31          0.862              1.234              0.640
 Vibration    32          0.879              1.197              0.601
 Vibration    33          0.909              1.133              0.537

 Optimization completed.
    -- Stationary point found.
 Normal termination of Gaussian 16 at Sun May 28 05:21:08 2023.
