 Gaussian 16, Revision A.03,
 Gaussian 16:  ES64L-G16RevA.03 25-Dec-2016

 -----------------------------
 # opt freq b3lyp/6-31g(2df,p)
 -----------------------------

 -------------------
 Title Card Required
 -------------------
 Symbolic Z-matrix:
 Charge =  0 Multiplicity = 1

 SCF Done:  E(RB3LYP) =  -355.036103756     A.U. after   12 cycles
 SCF Done:  E(RB3LYP) =  -355.041933061     A.U. after   10 cycles
 SCF Done:  E(RB3LYP) =  -355.044874922     A.U. after   10 cycles
 SCF Done:  E(RB3LYP) =  -355.047033002     A.U. after   10 cycles
 SCF Done:  E(RB3LYP) =  -355.047900041     A.U. after   10 cycles
 SCF Done:  E(RB3LYP) =  -355.048060512     A.U. after    9 cycles
 SCF Done:  E(RB3LYP) =  -355.048137083     A.U. after    8 cycles
 SCF Done:  E(RB3LYP) =  -355.048166639     A.U. after    9 cycles
 SCF Done:  E(RB3LYP) =  -355.048170010     A.U. after    7 cycles
 SCF Done:  E(RB3LYP) =  -355.048170589     A.U. after    6 cycles
 SCF Done:  E(RB3LYP) =  -355.048170641     A.U. after    5 cycles
 Optimization completed.
    -- Stationary point found.
 Normal termination of Gaussian 16 at Sun May 28 12:30:10 2023.

 ----------------------------------------------------------------------
 #N Geom=AllCheck Guess=TCheck SCRF=Check GenChk RB3LYP/6-31G(2df,p) Fr
 eq
 ----------------------------------------------------------------------

 Structure from the checkpoint file:  "CCCqCrCCqCrCC.chk"
 -------------------
 Title Card Required
 -------------------
 Charge =  0 Multiplicity = 1

                         Standard orientation:
 ---------------------------------------------------------------------
 Center     Atomic      Atomic             Coordinates (Angstroms)
 Number     Number       Type             X           Y           Z
 ---------------------------------------------------------------------
      1          6           0       -3.782615   -0.726265   -0.423459
      2          6           0       -2.445260   -0.860176    0.312307
      3          6           0       -1.327834    0.093115   -0.166500
      4          6           0       -1.736679    1.561045    0.030938
      5          6           0        0.000005   -0.278503    0.537326
      6          6           0        1.327834    0.093085   -0.166532
      7          6           0        1.736629    1.561050    0.030744
      8          6           0        2.445288   -0.860119    0.312383
      9          6           0        3.782636   -0.726259   -0.423404
     10          1           0       -4.484107   -1.500132   -0.095599
     11          1           0       -3.650652   -0.836998   -1.506083
     12          1           0       -4.260806    0.241303   -0.245049
     13          1           0       -2.088323   -1.891772    0.200888
     14          1           0       -2.603328   -0.711570    1.390022
     15          1           0       -1.193831   -0.081943   -1.245127
     16          1           0       -1.860331    1.787924    1.097080
     17          1           0       -2.684904    1.782764   -0.467150
     18          1           0       -0.996764    2.255510   -0.370947
     19          1           0       -0.000003   -1.368419    0.665362
     20          1           0        0.000022    0.136317    1.556077
     21          1           0        1.193840   -0.082095   -1.245141
     22          1           0        1.860243    1.788062    1.096862
     23          1           0        0.996705    2.255443   -0.371248
     24          1           0        2.684861    1.782738   -0.467344
     25          1           0        2.088378   -1.891738    0.201087
     26          1           0        2.603356   -0.711382    1.390080
     27          1           0        3.650672   -0.837125   -1.506015
     28          1           0        4.484151   -1.500068   -0.095456
     29          1           0        4.260802    0.241343   -0.245112
 ---------------------------------------------------------------------

 SCF Done:  E(RB3LYP) =  -355.048170641     A.U. after    1 cycles

 The electronic state is 1-A.
 Alpha  occ. eigenvalues --  -10.17987 -10.17987 -10.17288 -10.17288 -10.16863
 Alpha  occ. eigenvalues --  -10.16850 -10.16850 -10.16556 -10.16556  -0.81548
 Alpha  occ. eigenvalues --   -0.78542  -0.72942  -0.70883  -0.67923  -0.63473
 Alpha  occ. eigenvalues --   -0.60472  -0.55107  -0.54951  -0.46450  -0.45021
 Alpha  occ. eigenvalues --   -0.44519  -0.43544  -0.41466  -0.40779  -0.39018
 Alpha  occ. eigenvalues --   -0.38047  -0.37893  -0.36339  -0.35927  -0.35130
 Alpha  occ. eigenvalues --   -0.34175  -0.33216  -0.31697  -0.31485  -0.31157
 Alpha  occ. eigenvalues --   -0.30333  -0.28805
 Alpha virt. eigenvalues --    0.08096   0.10153   0.11073   0.12306   0.12962
 Alpha virt. eigenvalues --    0.13829   0.14018   0.14318   0.14956   0.16727
 Alpha virt. eigenvalues --    0.16986   0.17409   0.17862   0.18660   0.18677

 Mulliken charges:
               1
     1  C   -0.392725
     2  C   -0.161419
     3  C    0.039350
     4  C   -0.394308
     5  C   -0.193772
     6  C    0.039350
     7  C   -0.394306
     8  C   -0.161419
     9  C   -0.392725
    10  H    0.110153
    11  H    0.111426
    12  H    0.117765
    13  H    0.090147
    14  H    0.090718
    15  H    0.064161
    16  H    0.108984
    17  H    0.111753
    18  H    0.116924
    19  H    0.083101
    20  H    0.084809
    21  H    0.064162
    22  H    0.108983
    23  H    0.116926
    24  H    0.111753
    25  H    0.090147
    26  H    0.090718
    27  H    0.111426
    28  H    0.110153
    29  H    0.117765
 Sum of Mulliken charges =  -0.00000

 Dipole moment (field-independent basis, Debye):
    X=              0.0000    Y=             -0.1040    Z=             -0.0329  Tot=              0.1090
 Quadrupole moment (field-independent basis, Debye-Ang):
   XX=            -62.2383   YY=            -61.5817   ZZ=            -61.0015
   XY=              0.0000   XZ=              0.0000   YZ=              0.1664

  Exact polarizability: 120.379  -0.000  95.192   0.000  -0.157  85.874
 Approx polarizability: 138.846  -0.000 135.252  -0.000   0.321 135.185

 ******    1 imaginary frequencies (negative Signs) ******

                      1                      2                      3
                      A                      A                      A
 Frequencies --    -62.8510                57.3646                85.4836
 Red. masses --      2.2259                 2.5837                 1.9028
 Frc consts  --      0.0052                 0.0050                 0.0082
 IR Inten    --      0.0315                 0.0040                 0.0040

                      4                      5                      6
                      A                      A                      A
 Frequencies --     90.8412               147.3442               179.2596
 Red. masses --      1.7044                 2.4276                 1.0275
 Frc consts  --      0.0083                 0.0311                 0.0195
 IR Inten    --      0.0013                 0.0052                 0.3660

                      7                      8                      9
                      A                      A                      A
 Frequencies --    208.3137               231.5446               262.6864
 Red. masses --      1.0995                 1.3916                 2.4459
 Frc consts  --      0.0281                 0.0440                 0.0994
 IR Inten    --      0.0442                 0.0026                 0.0454

                     10                     11                     12
                      A                      A                      A
 Frequencies --    266.2392               298.8216               305.5078
 Red. masses --      1.5500                 2.1390                 2.1403
 Frc consts  --      0.0647                 0.1125                 0.1177
 IR Inten    --      0.0266                 0.1276                 0.2837

                     13                     14                     15
                      A                      A                      A
 Frequencies --    353.5575               413.1493               414.4753
 Red. masses --      2.4273                 1.6545                 2.0066
 Frc consts  --      0.1788                 0.1664                 0.2031
 IR Inten    --      0.0276                 0.1290                 0.1081

                     16                     17                     18
                      A                      A                      A
 Frequencies --    494.8542               515.0930               770.7880
 Red. masses --      2.1777                 2.6308                 1.4332
 Frc consts  --      0.3142                 0.4113                 0.5017
 IR Inten    --      0.2179                 0.0012                 0.0048

                     19                     20                     21
                      A                      A                      A
 Frequencies --    774.3955               813.0053               833.2403
 Red. masses --      1.2393                 1.7816                 2.2886
 Frc consts  --      0.4379                 0.6938                 0.9362
 IR Inten    --      4.4669                 0.0022                 0.2633

                     22                     23                     24
                      A                      A                      A
 Frequencies --    859.0472               891.5511               938.8144
 Red. masses --      1.5847                 1.7603                 1.7075
 Frc consts  --      0.6890                 0.8244                 0.8867
 IR Inten    --      0.0665                 0.3050                 1.3050

                     25                     26                     27
                      A                      A                      A
 Frequencies --    963.0663               971.7290               997.7118
 Red. masses --      1.2341                 1.2097                 1.6709
 Frc consts  --      0.6744                 0.6730                 0.9800
 IR Inten    --      4.7515                 2.1944                 6.3592

                     28                     29                     30
                      A                      A                      A
 Frequencies --   1017.3746              1043.3698              1051.6569
 Red. masses --      1.6387                 2.7393                 2.3926
 Frc consts  --      0.9994                 1.7570                 1.5591
 IR Inten    --      3.1916                 0.1712                 0.0410

                     31                     32                     33
                      A                      A                      A
 Frequencies --   1075.3948              1110.1393              1162.8772
 Red. masses --      1.6446                 1.9311                 2.2794
 Frc consts  --      1.1206                 1.4022                 1.8161
 IR Inten    --      0.8262                 0.3346                 0.4673

                     34                     35                     36
                      A                      A                      A
 Frequencies --   1172.8204              1175.1620              1197.7519
 Red. masses --      1.7885                 1.9918                 2.1105
 Frc consts  --      1.4494                 1.6206                 1.7839
 IR Inten    --     10.8275                 1.5283                 0.1905

                     37                     38                     39
                      A                      A                      A
 Frequencies --   1248.0071              1293.5532              1296.4727
 Red. masses --      1.3997                 1.1862                 1.2822
 Frc consts  --      1.2844                 1.1694                 1.2698
 IR Inten    --      8.8562                 0.0051                 2.7293

                     40                     41                     42
                      A                      A                      A
 Frequencies --   1307.8574              1330.0334              1368.9380
 Red. masses --      1.1287                 1.1965                 1.3609
 Frc consts  --      1.1375                 1.2470                 1.5026
 IR Inten    --      0.6319                 0.0560                 5.6186

                     43                     44                     45
                      A                      A                      A
 Frequencies --   1370.7148              1379.4580              1381.6123
 Red. masses --      1.3538                 1.5135                 1.4301
 Frc consts  --      1.4986                 1.6969                 1.6084
 IR Inten    --      3.1748                 0.1198                 0.7116

                     46                     47                     48
                      A                      A                      A
 Frequencies --   1388.8169              1410.2264              1412.3760
 Red. masses --      1.2502                 1.2644                 1.2200
 Frc consts  --      1.4208                 1.4815                 1.4339
 IR Inten    --      0.0086                 4.3194                 1.1718

                     49                     50                     51
                      A                      A                      A
 Frequencies --   1417.5324              1418.4863              1474.0422
 Red. masses --      1.2134                 1.3261                 1.0816
 Frc consts  --      1.4365                 1.5720                 1.3847
 IR Inten    --      5.2298                 0.2752                 0.0837

                     52                     53                     54
                      A                      A                      A
 Frequencies --   1479.9440              1490.5936              1491.7157
 Red. masses --      1.0669                 1.0715                 1.0542
 Frc consts  --      1.3768                 1.4027                 1.3822
 IR Inten    --      0.2043                 0.0863                 1.0376

                     55                     56                     57
                      A                      A                      A
 Frequencies --   1492.6886              1497.7076              1502.0049
 Red. masses --      1.0501                 1.0420                 1.0570
 Frc consts  --      1.3786                 1.3771                 1.4050
 IR Inten    --      0.6854                 9.1689                 0.1038

                     58                     59                     60
                      A                      A                      A
 Frequencies --   1504.1211              1508.8017              1511.2247
 Red. masses --      1.0571                 1.0662                 1.0509
 Frc consts  --      1.4091                 1.4301                 1.4140
 IR Inten    --      0.1892                 8.8887                 5.2367

                     61                     62                     63
                      A                      A                      A
 Frequencies --   1523.5040              2979.6809              2984.9734
 Red. masses --      1.0447                 1.0817                 1.0787
 Frc consts  --      1.4287                 5.6583                 5.6627
 IR Inten    --      8.2002                 0.4894                13.3098

                     64                     65                     66
                      A                      A                      A
 Frequencies --   2998.4979              3007.4035              3011.3035
 Red. masses --      1.0607                 1.0610                 1.0624
 Frc consts  --      5.6191                 5.6542                 5.6762
 IR Inten    --      1.7552                 1.3676                91.6505

                     67                     68                     69
                      A                      A                      A
 Frequencies --   3030.2094              3030.3313              3032.3256
 Red. masses --      1.0388                 1.0461                 1.0416
 Frc consts  --      5.6201                 5.6600                 5.6428
 IR Inten    --     19.5426                19.9897                28.9882

                     70                     71                     72
                      A                      A                      A
 Frequencies --   3034.1346              3036.1475              3043.7101
 Red. masses --      1.0754                 1.0600                 1.0984
 Frc consts  --      5.8330                 5.7569                 5.9951
 IR Inten    --     15.9537                15.9441                 2.1503

                     73                     74                     75
                      A                      A                      A
 Frequencies --   3049.1501              3094.4041              3094.5538
 Red. masses --      1.0983                 1.1004                 1.1003
 Frc consts  --      6.0163                 6.2079                 6.2081
 IR Inten    --     83.7309                26.2522                49.8573

                     76                     77                     78
                      A                      A                      A
 Frequencies --   3097.2396              3098.6503              3107.5328
 Red. masses --      1.0976                 1.0982                 1.0984
 Frc consts  --      6.2034                 6.2126                 6.2496
 IR Inten    --     13.1751                64.2001                 0.6923

                     79                     80                     81
                      A                      A                      A
 Frequencies --   3108.5747              3120.0737              3136.7973
 Red. masses --      1.0984                 1.0996                 1.0938
 Frc consts  --      6.2535                 6.3070                 6.3411
 IR Inten    --     74.9218                57.3449                17.9578

 - Thermochemistry -
 -------------------
 Temperature   298.150 Kelvin.  Pressure   1.00000 Atm.
 Atom     1 has atomic number  6 and mass  12.00000

 Molecular mass:   128.15650 amu.
 Principal axes and moments of inertia in atomic units:
                           1         2         3
     Eigenvalues --   564.211132796.353203156.02116
           X            1.00000  -0.00000  -0.00000
           Y            0.00000   1.00000   0.00038
           Z            0.00000  -0.00038   1.00000
 This molecule is an asymmetric top.
 Rotational symmetry number  1.
 Warning -- assumption of classical behavior for rotation
           may cause significant error
 Rotational temperatures (Kelvin)      0.15351     0.03097     0.02744
 Rotational constants (GHZ):           3.19870     0.64539     0.57184
    1 imaginary frequencies ignored.
 Zero-point vibrational energy     716207.6 (Joules/Mol)
                                  171.17772 (Kcal/Mol)
 Warning -- explicit consideration of  16 degrees of freedom as
           vibrations may cause significant error
 Vibrational temperatures:     82.53   122.99   130.70   212.00   257.91
          (Kelvin)            299.72   333.14   377.95   383.06   429.94
                              439.56   508.69   594.43   596.34   711.98
                              741.10  1108.99  1114.18  1169.73  1198.85
                             1235.98  1282.74  1350.74  1385.64  1398.10
                             1435.48  1463.78  1501.18  1513.10  1547.25
                             1597.24  1673.12  1687.43  1690.80  1723.30
                             1795.60  1861.13  1865.34  1881.72  1913.62
                             1969.60  1972.15  1984.73  1987.83  1998.20
                             2029.00  2032.09  2039.51  2040.89  2120.82
                             2129.31  2144.63  2146.25  2147.65  2154.87
                             2161.05  2164.09  2170.83  2174.32  2191.98
                             4287.10  4294.71  4314.17  4326.98  4332.59
                             4359.80  4359.97  4362.84  4365.44  4368.34
                             4379.22  4387.05  4452.16  4452.37  4456.24
                             4458.27  4471.05  4472.55  4489.09  4513.15

 Zero-point correction=                           0.272789 (Hartree/Particle)
 Thermal correction to Energy=                    0.284423
 Thermal correction to Enthalpy=                  0.285367
 Thermal correction to Gibbs Free Energy=         0.235824
 Sum of electronic and zero-point Energies=           -354.775382
 Sum of electronic and thermal Energies=              -354.763748
 Sum of electronic and thermal Enthalpies=            -354.762804
 Sum of electronic and thermal Free Energies=         -354.812347

                     E (Thermal)             CV                S
                      KCal/Mol        Cal/Mol-Kelvin    Cal/Mol-Kelvin
 Total                  178.478             43.367            104.272
 Electronic               0.000              0.000              0.000
 Translational            0.889              2.981             40.457
 Rotational               0.889              2.981             29.989
 Vibrational            176.700             37.406             33.826
 Vibration     1          0.596              1.975              4.546
 Vibration     2          0.601              1.959              3.761
 Vibration     3          0.602              1.956              3.642
 Vibration     4          0.617              1.906              2.706
 Vibration     5          0.629              1.868              2.336
 Vibration     6          0.642              1.828              2.058
 Vibration     7          0.653              1.793              1.867
 Vibration     8          0.670              1.741              1.644
 Vibration     9          0.672              1.735              1.620
 Vibration    10          0.692              1.676              1.423
 Vibration    11          0.696              1.663              1.387
 Vibration    12          0.730              1.568              1.150
 Vibration    13          0.777              1.442              0.916
 Vibration    14          0.778              1.439              0.911
 Vibration    15          0.850              1.261              0.671
 Vibration    16          0.870              1.217              0.621

 Optimization completed.
    -- Stationary point found.
 Normal termination of Gaussian 16 at Sun May 28 13:14:40 2023.
