 Gaussian 16, Revision A.03,
 Gaussian 16:  ES64L-G16RevA.03 25-Dec-2016

 -----------------------------
 # opt freq b3lyp/6-31g(2df,p)
 -----------------------------

 -------------------
 Title Card Required
 -------------------
 Symbolic Z-matrix:
 Charge =  0 Multiplicity = 1

 SCF Done:  E(RB3LYP) =  -414.962952491     A.U. after   12 cycles
 SCF Done:  E(RB3LYP) =  -414.966226112     A.U. after   11 cycles
 SCF Done:  E(RB3LYP) =  -414.967509186     A.U. after   10 cycles
 SCF Done:  E(RB3LYP) =  -414.968788514     A.U. after   11 cycles
 SCF Done:  E(RB3LYP) =  -414.969026109     A.U. after   10 cycles
 SCF Done:  E(RB3LYP) =  -414.969064281     A.U. after    9 cycles
 SCF Done:  E(RB3LYP) =  -414.969080343     A.U. after    8 cycles
 SCF Done:  E(RB3LYP) =  -414.969093732     A.U. after    9 cycles
 SCF Done:  E(RB3LYP) =  -414.969106044     A.U. after    9 cycles
 SCF Done:  E(RB3LYP) =  -414.969115989     A.U. after    9 cycles
 SCF Done:  E(RB3LYP) =  -414.969443671     A.U. after   10 cycles
 SCF Done:  E(RB3LYP) =  -414.969610219     A.U. after    9 cycles
 SCF Done:  E(RB3LYP) =  -414.969658029     A.U. after   10 cycles
 SCF Done:  E(RB3LYP) =  -414.969684545     A.U. after    9 cycles
 SCF Done:  E(RB3LYP) =  -414.969701404     A.U. after    9 cycles
 SCF Done:  E(RB3LYP) =  -414.969704603     A.U. after    9 cycles
 SCF Done:  E(RB3LYP) =  -414.969704730     A.U. after    7 cycles
 SCF Done:  E(RB3LYP) =  -414.969704737     A.U. after    7 cycles
 SCF Done:  E(RB3LYP) =  -414.969704758     A.U. after    6 cycles
 Optimization completed.
    -- Stationary point found.
 Normal termination of Gaussian 16 at Mon May 29 02:27:55 2023.

 ----------------------------------------------------------------------
 #N Geom=AllCheck Guess=TCheck SCRF=Check GenChk RB3LYP/6-31G(2df,p) Fr
 eq
 ----------------------------------------------------------------------

 Structure from the checkpoint file:  "CCCqCrqCrCCqCrF.chk"
 -------------------
 Title Card Required
 -------------------
 Charge =  0 Multiplicity = 1

                         Standard orientation:
 ---------------------------------------------------------------------
 Center     Atomic      Atomic             Coordinates (Angstroms)
 Number     Number       Type             X           Y           Z
 ---------------------------------------------------------------------
      1          6           0        3.334407   -0.009393   -0.422223
      2          6           0        1.894282   -0.217012   -0.904604
      3          6           0        0.760728   -0.002019    0.135392
      4          6           0        0.968469   -0.935100    1.344208
      5          6           0        0.750757    1.462333    0.611931
      6          6           0       -0.561802   -0.369453   -0.591603
      7          6           0       -1.888204   -0.124060    0.143295
      8          6           0       -2.579644    1.188549   -0.195462
      9          9           0       -2.766251   -1.149820   -0.215132
     10          1           0        4.033597   -0.175259   -1.247978
     11          1           0        3.605449   -0.705522    0.377052
     12          1           0        3.505251    1.006605   -0.053297
     13          1           0        1.801324   -1.236625   -1.301405
     14          1           0        1.707349    0.453226   -1.754076
     15          1           0        1.879939   -0.679989    1.892718
     16          1           0        1.049014   -1.980444    1.025897
     17          1           0        0.139390   -0.868526    2.055495
     18          1           0        1.703345    1.733690    1.076469
     19          1           0       -0.027544    1.636895    1.361575
     20          1           0        0.577787    2.152824   -0.221260
     21          1           0       -0.536579   -1.441827   -0.815433
     22          1           0       -0.595254    0.147660   -1.559273
     23          1           0       -1.750122   -0.205188    1.228965
     24          1           0       -2.770843    1.242427   -1.272001
     25          1           0       -1.963430    2.045229    0.087784
     26          1           0       -3.536375    1.260136    0.329357
 ---------------------------------------------------------------------

 SCF Done:  E(RB3LYP) =  -414.969704758     A.U. after    1 cycles

 The electronic state is 1-A.
 Alpha  occ. eigenvalues --  -24.65253 -10.25015 -10.19761 -10.17870 -10.17632
 Alpha  occ. eigenvalues --  -10.17589 -10.17411 -10.17326 -10.17186  -1.16563
 Alpha  occ. eigenvalues --   -0.82978  -0.76732  -0.73024  -0.69158  -0.68380
 Alpha  occ. eigenvalues --   -0.63345  -0.58507  -0.53244  -0.49401  -0.46756
 Alpha  occ. eigenvalues --   -0.45504  -0.44717  -0.44442  -0.42218  -0.41378
 Alpha  occ. eigenvalues --   -0.38935  -0.38678  -0.38334  -0.37233  -0.36702
 Alpha  occ. eigenvalues --   -0.35815  -0.34176  -0.33494  -0.31997  -0.31683
 Alpha  occ. eigenvalues --   -0.30784  -0.29491
 Alpha virt. eigenvalues --    0.06935   0.10272   0.11214   0.11962   0.12508
 Alpha virt. eigenvalues --    0.13386   0.13772   0.14409   0.15748   0.16122
 Alpha virt. eigenvalues --    0.16517   0.17385   0.18841   0.19209   0.20338

 Mulliken charges:
               1
     1  C   -0.407201
     2  C   -0.172264
     3  C    0.255986
     4  C   -0.413327
     5  C   -0.412680
     6  C   -0.237507
     7  C    0.127284
     8  C   -0.412139
     9  F   -0.179174
    10  H    0.114325
    11  H    0.118681
    12  H    0.116928
    13  H    0.092168
    14  H    0.090511
    15  H    0.114136
    16  H    0.111934
    17  H    0.113418
    18  H    0.113649
    19  H    0.112570
    20  H    0.109477
    21  H    0.106982
    22  H    0.089540
    23  H    0.076629
    24  H    0.124865
    25  H    0.122433
    26  H    0.122776
 Sum of Mulliken charges =   0.00000

 Dipole moment (field-independent basis, Debye):
    X=              1.2901    Y=              1.1467    Z=              0.2749  Tot=              1.7479
 Quadrupole moment (field-independent basis, Debye-Ang):
   XX=            -62.7437   YY=            -59.5010   ZZ=            -57.7046
   XY=             -3.8290   XZ=             -1.0999   YZ=             -0.3328

  Exact polarizability: 101.999  -2.567  83.041  -0.723  -0.299  81.108
 Approx polarizability: 125.245   0.586 121.841   0.194   0.301 121.619

                      1                      2                      3
                      A                      A                      A
 Frequencies --     48.9832                77.3016                92.1315
 Red. masses --      3.3301                 2.3780                 1.9306
 Frc consts  --      0.0047                 0.0084                 0.0097
 IR Inten    --      1.1746                 0.1970                 0.2254

                      4                      5                      6
                      A                      A                      A
 Frequencies --    157.5016               208.6103               227.8330
 Red. masses --      3.0118                 1.0581                 1.0977
 Frc consts  --      0.0440                 0.0271                 0.0336
 IR Inten    --      0.4288                 0.1445                 0.1209

                      7                      8                      9
                      A                      A                      A
 Frequencies --    256.1073               278.4714               282.7593
 Red. masses --      1.8144                 1.6760                 1.4107
 Frc consts  --      0.0701                 0.0766                 0.0665
 IR Inten    --      0.2484                 0.2872                 0.0721

                     10                     11                     12
                      A                      A                      A
 Frequencies --    307.9496               328.0642               351.9463
 Red. masses --      1.5845                 3.2940                 2.2430
 Frc consts  --      0.0885                 0.2089                 0.1637
 IR Inten    --      0.2905                 1.6494                 1.1778

                     13                     14                     15
                      A                      A                      A
 Frequencies --    378.9855               405.1747               447.5912
 Red. masses --      2.1356                 1.8495                 3.0313
 Frc consts  --      0.1807                 0.1789                 0.3578
 IR Inten    --      0.6239                 0.1820                 3.7743

                     16                     17                     18
                      A                      A                      A
 Frequencies --    456.6576               563.1564               736.3689
 Red. masses --      2.4408                 2.4876                 3.1153
 Frc consts  --      0.2999                 0.4648                 0.9953
 IR Inten    --      1.6614                 1.2399                 0.8496

                     19                     20                     21
                      A                      A                      A
 Frequencies --    783.2626               847.7133               861.1408
 Red. masses --      1.1824                 2.4507                 1.7739
 Frc consts  --      0.4274                 1.0376                 0.7751
 IR Inten    --      2.1170                 0.7139                 0.6460

                     22                     23                     24
                      A                      A                      A
 Frequencies --    894.0695               940.3329               950.2912
 Red. masses --      1.9157                 1.5227                 1.9497
 Frc consts  --      0.9022                 0.7933                 1.0373
 IR Inten    --     13.8773                 0.5031                19.4630

                     25                     26                     27
                      A                      A                      A
 Frequencies --    971.7733               998.3944              1027.4974
 Red. masses --      1.8419                 1.2633                 1.8182
 Frc consts  --      1.0248                 0.7419                 1.1310
 IR Inten    --      3.0659                 1.0200                10.3105

                     28                     29                     30
                      A                      A                      A
 Frequencies --   1031.6536              1064.9574              1102.1426
 Red. masses --      1.9089                 1.7528                 2.3168
 Frc consts  --      1.1970                 1.1712                 1.6581
 IR Inten    --      1.2815                14.2667                21.3585

                     31                     32                     33
                      A                      A                      A
 Frequencies --   1119.0926              1151.2516              1208.4617
 Red. masses --      1.5980                 2.0658                 1.9829
 Frc consts  --      1.1791                 1.6132                 1.7061
 IR Inten    --      1.6675                33.2677                 7.6082

                     34                     35                     36
                      A                      A                      A
 Frequencies --   1219.4202              1252.5492              1275.3151
 Red. masses --      2.0245                 3.1802                 1.2714
 Frc consts  --      1.7737                 2.9396                 1.2183
 IR Inten    --     13.0524                 4.5399                 2.1156

                     37                     38                     39
                      A                      A                      A
 Frequencies --   1329.0144              1344.5105              1369.9950
 Red. masses --      1.3685                 1.3525                 1.4104
 Frc consts  --      1.4242                 1.4405                 1.5596
 IR Inten    --      0.6382                 1.7858                 0.1532

                     40                     41                     42
                      A                      A                      A
 Frequencies --   1382.7618              1398.6529              1402.6147
 Red. masses --      1.2292                 1.3550                 1.2642
 Frc consts  --      1.3848                 1.5617                 1.4654
 IR Inten    --      7.5989                 6.4173                 4.8974

                     43                     44                     45
                      A                      A                      A
 Frequencies --   1410.5853              1412.2248              1426.7001
 Red. masses --      1.3492                 1.2595                 1.2350
 Frc consts  --      1.5817                 1.4799                 1.4810
 IR Inten    --     20.0817                 5.8986                 4.8041

                     46                     47                     48
                      A                      A                      A
 Frequencies --   1472.6268              1481.4207              1483.9754
 Red. masses --      1.0757                 1.0466                 1.0605
 Frc consts  --      1.3745                 1.3533                 1.3760
 IR Inten    --      0.3663                 1.1570                 0.2193

                     49                     50                     51
                      A                      A                      A
 Frequencies --   1487.6483              1491.7954              1499.1287
 Red. masses --      1.0561                 1.0474                 1.0605
 Frc consts  --      1.3770                 1.3733                 1.4043
 IR Inten    --      0.8667                 3.1501                 0.8586

                     52                     53                     54
                      A                      A                      A
 Frequencies --   1507.4174              1508.9936              1513.4130
 Red. masses --      1.0709                 1.0510                 1.0507
 Frc consts  --      1.4338                 1.4100                 1.4180
 IR Inten    --      1.9149                 6.9823                 2.4778

                     55                     56                     57
                      A                      A                      A
 Frequencies --   1517.7718              3008.5968              3017.5141
 Red. masses --      1.0542                 1.0595                 1.0653
 Frc consts  --      1.4308                 5.6506                 5.7151
 IR Inten    --     11.9802                16.3997                 9.5339

                     58                     59                     60
                      A                      A                      A
 Frequencies --   3027.2032              3029.6871              3034.6764
 Red. masses --      1.0511                 1.0602                 1.0397
 Frc consts  --      5.6749                 5.7339                 5.6412
 IR Inten    --     27.3623                45.3713                 8.6634

                     61                     62                     63
                      A                      A                      A
 Frequencies --   3040.7781              3042.9109              3044.8569
 Red. masses --      1.0379                 1.1000                 1.0366
 Frc consts  --      5.6544                 6.0009                 5.6622
 IR Inten    --     22.8339                13.2173                17.4148

                     64                     65                     66
                      A                      A                      A
 Frequencies --   3070.1269              3095.4804              3098.3745
 Red. masses --      1.0999                 1.1008                 1.1002
 Frc consts  --      6.1085                 6.2148                 6.2228
 IR Inten    --     23.7133                12.5576                 8.9616

                     67                     68                     69
                      A                      A                      A
 Frequencies --   3099.6136              3101.1211              3107.9562
 Red. masses --      1.1005                 1.1005                 1.0990
 Frc consts  --      6.2293                 6.2358                 6.2543
 IR Inten    --     43.4297                49.6364                57.6124

                     70                     71                     72
                      A                      A                      A
 Frequencies --   3112.8215              3116.5431              3131.7681
 Red. masses --      1.1008                 1.1019                 1.1001
 Frc consts  --      6.2847                 6.3058                 6.3571
 IR Inten    --     27.2966                30.0312                16.7389

 - Thermochemistry -
 -------------------
 Temperature   298.150 Kelvin.  Pressure   1.00000 Atm.
 Atom     1 has atomic number  6 and mass  12.00000

 Molecular mass:   132.13143 amu.
 Principal axes and moments of inertia in atomic units:
                           1         2         3
     Eigenvalues --   633.531232234.408072375.05520
           X            0.99951  -0.03129  -0.00256
           Y            0.03120   0.99905  -0.03036
           Z            0.00350   0.03026   0.99954
 This molecule is an asymmetric top.
 Rotational symmetry number  1.
 Warning -- assumption of classical behavior for rotation
           may cause significant error
 Rotational temperatures (Kelvin)      0.13672     0.03876     0.03647
 Rotational constants (GHZ):           2.84870     0.80770     0.75987
 Zero-point vibrational energy     621616.7 (Joules/Mol)
                                  148.56995 (Kcal/Mol)
 Warning -- explicit consideration of  17 degrees of freedom as
           vibrations may cause significant error
 Vibrational temperatures:     70.48   111.22   132.56   226.61   300.14
          (Kelvin)            327.80   368.48   400.66   406.83   443.07
                              472.01   506.37   545.28   582.96   643.98
                              657.03   810.26  1059.47  1126.94  1219.67
                             1238.99  1286.37  1352.93  1367.26  1398.17
                             1436.47  1478.34  1484.32  1532.24  1585.74
                             1610.12  1656.39  1738.71  1754.47  1802.14
                             1834.89  1912.16  1934.45  1971.12  1989.49
                             2012.35  2018.05  2029.52  2031.88  2052.70
                             2118.78  2131.43  2135.11  2140.39  2146.36
                             2156.91  2168.84  2171.11  2177.46  2183.74
                             4328.70  4341.53  4355.47  4359.04  4366.22
                             4375.00  4378.07  4380.87  4417.23  4453.71
                             4457.87  4459.65  4461.82  4471.66  4478.66
                             4484.01  4505.92

 Zero-point correction=                           0.236761 (Hartree/Particle)
 Thermal correction to Energy=                    0.248396
 Thermal correction to Enthalpy=                  0.249340
 Thermal correction to Gibbs Free Energy=         0.199936
 Sum of electronic and zero-point Energies=           -414.732943
 Sum of electronic and thermal Energies=              -414.721309
 Sum of electronic and thermal Enthalpies=            -414.720365
 Sum of electronic and thermal Free Energies=         -414.769769

                     E (Thermal)             CV                S
                      KCal/Mol        Cal/Mol-Kelvin    Cal/Mol-Kelvin
 Total                  155.871             43.221            103.980
 Electronic               0.000              0.000              0.000
 Translational            0.889              2.981             40.549
 Rotational               0.889              2.981             29.598
 Vibrational            154.093             37.259             33.833
 Vibration     1          0.595              1.978              4.858
 Vibration     2          0.599              1.964              3.958
 Vibration     3          0.602              1.955              3.614
 Vibration     4          0.621              1.894              2.580
 Vibration     5          0.642              1.828              2.056
 Vibration     6          0.651              1.799              1.896
 Vibration     7          0.666              1.752              1.688
 Vibration     8          0.679              1.713              1.543
 Vibration     9          0.682              1.706              1.517
 Vibration    10          0.698              1.659              1.373
 Vibration    11          0.711              1.619              1.270
 Vibration    12          0.728              1.571              1.157
 Vibration    13          0.749              1.515              1.043
 Vibration    14          0.770              1.459              0.944
 Vibration    15          0.807              1.366              0.803
 Vibration    16          0.815              1.346              0.776
 Vibration    17          0.919              1.111              0.518

 Optimization completed.
    -- Stationary point found.
 Normal termination of Gaussian 16 at Mon May 29 03:12:13 2023.
