 Gaussian 16, Revision A.03,
 Gaussian 16:  ES64L-G16RevA.03 25-Dec-2016

 -----------------------------
 # opt freq b3lyp/6-31g(2df,p)
 -----------------------------

 -------------------
 Title Card Required
 -------------------
 Symbolic Z-matrix:
 Charge =  0 Multiplicity = 1

 SCF Done:  E(RB3LYP) =  -599.813290276     A.U. after   13 cycles
 SCF Done:  E(RB3LYP) =  -599.900612925     A.U. after   12 cycles
 SCF Done:  E(RB3LYP) =  -599.959657371     A.U. after   12 cycles
 SCF Done:  E(RB3LYP) =  -599.967484739     A.U. after   11 cycles
 SCF Done:  E(RB3LYP) =  -600.030852538     A.U. after   11 cycles
 SCF Done:  E(RB3LYP) =  -600.048884702     A.U. after   12 cycles
 SCF Done:  E(RB3LYP) =  -600.078523050     A.U. after   11 cycles
 SCF Done:  E(RB3LYP) =  -600.069127498     A.U. after   12 cycles
 SCF Done:  E(RB3LYP) =  -600.087074603     A.U. after   11 cycles
 SCF Done:  E(RB3LYP) =  -600.092775991     A.U. after   11 cycles
 SCF Done:  E(RB3LYP) =  -600.102378619     A.U. after    8 cycles
 SCF Done:  E(RB3LYP) =  -600.102381437     A.U. after    7 cycles
 SCF Done:  E(RB3LYP) =  -600.102382732     A.U. after    7 cycles
 SCF Done:  E(RB3LYP) =  -600.102383352     A.U. after    7 cycles
 SCF Done:  E(RB3LYP) =  -600.102383571     A.U. after    6 cycles
 SCF Done:  E(RB3LYP) =  -600.102383726     A.U. after    6 cycles
 SCF Done:  E(RB3LYP) =  -600.102383840     A.U. after    6 cycles
 SCF Done:  E(RB3LYP) =  -600.102383918     A.U. after    6 cycles
 SCF Done:  E(RB3LYP) =  -600.102383941     A.U. after    6 cycles
 Optimization completed.
    -- Stationary point found.
 Normal termination of Gaussian 16 at Mon May 22 09:39:54 2023.

 ----------------------------------------------------------------------
 #N Geom=AllCheck Guess=TCheck SCRF=Check GenChk RB3LYP/6-31G(2df,p) Fr
 eq
 ----------------------------------------------------------------------

 Structure from the checkpoint file:  "CCCqCrOCqCCqCrCrNOC.chk"
 -------------------
 Title Card Required
 -------------------
 Charge =  0 Multiplicity = 1

                         Standard orientation:
 ---------------------------------------------------------------------
 Center     Atomic      Atomic             Coordinates (Angstroms)
 Number     Number       Type             X           Y           Z
 ---------------------------------------------------------------------
      1          6           0       -4.463320   -0.112882    0.176566
      2          6           0       -3.064776    0.120491    0.754473
      3          6           0       -1.938488    0.091656   -0.282225
      4          6           0       -2.040399    1.198695   -1.331858
      5          8           0       -0.713321    0.213070    0.455480
      6          6           0        0.413058   -0.415835   -0.104900
      7          6           0        1.698235    0.265972    0.353766
      8          6           0        1.928836    1.693614   -0.182068
      9          6           0        1.184811    2.754143    0.643248
     10          6           0        3.430096    2.013402   -0.233459
     11          7           0        0.412581   -1.820714    0.363220
     12          8           0        1.174952   -2.574383   -0.594468
     13          6           0        2.031792   -3.462489    0.097701
     14          1           0       -5.207942   -0.156028    0.976810
     15          1           0       -4.515810   -1.059165   -0.374127
     16          1           0       -4.763785    0.686515   -0.507495
     17          1           0       -2.839330   -0.643811    1.506439
     18          1           0       -3.026042    1.084643    1.276268
     19          1           0       -1.958405   -0.884457   -0.794080
     20          1           0       -2.082415    2.179876   -0.848108
     21          1           0       -2.937001    1.076323   -1.946744
     22          1           0       -1.175696    1.183660   -2.001419
     23          1           0        0.361138   -0.400082   -1.207353
     24          1           0        2.512204   -0.386176    0.017710
     25          1           0        1.715680    0.257736    1.450061
     26          1           0        1.547161    1.732571   -1.213180
     27          1           0        1.589144    2.797130    1.662177
     28          1           0        0.121139    2.524454    0.719089
     29          1           0        1.300889    3.749268    0.200031
     30          1           0        3.876686    1.948499    0.766218
     31          1           0        3.606475    3.027413   -0.608008
     32          1           0        3.967977    1.315184   -0.883585
     33          1           0       -0.540083   -2.169405    0.249199
     34          1           0        2.614969   -3.976728   -0.672171
     35          1           0        1.466691   -4.205140    0.677125
     36          1           0        2.706176   -2.927379    0.777035
 ---------------------------------------------------------------------

 SCF Done:  E(RB3LYP) =  -600.102383941     A.U. after    1 cycles

 The electronic state is 1-A.
 Alpha  occ. eigenvalues --  -19.15925 -19.14188 -14.35597 -10.25087 -10.23644
 Alpha  occ. eigenvalues --  -10.21752 -10.18129 -10.18007 -10.17877 -10.17628
 Alpha  occ. eigenvalues --  -10.16759 -10.16511 -10.15821  -1.06103  -1.03313
 Alpha  occ. eigenvalues --   -0.84067  -0.79558  -0.78824  -0.72647  -0.70680
 Alpha  occ. eigenvalues --   -0.67107  -0.65571  -0.64823  -0.59352  -0.57298
 Alpha  occ. eigenvalues --   -0.55506  -0.51985  -0.48837  -0.48388  -0.46759
 Alpha  occ. eigenvalues --   -0.45011  -0.44030  -0.42985  -0.42402  -0.42322
 Alpha  occ. eigenvalues --   -0.41012  -0.40490  -0.38987  -0.38874  -0.37318
 Alpha  occ. eigenvalues --   -0.37090  -0.36465  -0.35704  -0.34965  -0.33698
 Alpha  occ. eigenvalues --   -0.33561  -0.32228  -0.31614  -0.31326  -0.30343
 Alpha  occ. eigenvalues --   -0.27631  -0.25396  -0.23295
 Alpha virt. eigenvalues --    0.06986   0.08648   0.09561   0.09891   0.11127
 Alpha virt. eigenvalues --    0.11983   0.12839   0.13294   0.14606   0.15152
 Alpha virt. eigenvalues --    0.15492   0.15556   0.16174   0.16549   0.17018

 Mulliken charges:
               1
     1  C   -0.390252
     2  C   -0.182244
     3  C    0.129446
     4  C   -0.395365
     5  O   -0.268342
     6  C    0.156651
     7  C   -0.183504
     8  C    0.042022
     9  C   -0.386236
    10  C   -0.389069
    11  N   -0.242840
    12  O   -0.253166
    13  C   -0.202025
    14  H    0.118559
    15  H    0.114162
    16  H    0.121004
    17  H    0.103594
    18  H    0.106212
    19  H    0.067850
    20  H    0.125400
    21  H    0.117943
    22  H    0.122160
    23  H    0.067230
    24  H    0.101913
    25  H    0.103133
    26  H    0.065479
    27  H    0.106543
    28  H    0.129938
    29  H    0.099417
    30  H    0.111437
    31  H    0.106150
    32  H    0.107490
    33  H    0.231209
    34  H    0.118881
    35  H    0.106838
    36  H    0.112379
 Sum of Mulliken charges =  -0.00000

 Dipole moment (field-independent basis, Debye):
    X=             -0.9763    Y=             -0.4153    Z=             -0.6758  Tot=              1.2579
 Quadrupole moment (field-independent basis, Debye-Ang):
   XX=            -78.3368   YY=            -81.4123   ZZ=            -85.3706
   XY=             -1.0432   XZ=              0.8406   YZ=             -1.3789

  Exact polarizability: 146.882  -3.460 134.474  -1.049  -0.943 106.185
 Approx polarizability: 178.163  -5.641 175.874  -1.376   1.784 167.307

                      1                      2                      3
                      A                      A                      A
 Frequencies --     32.2727                34.7161                52.5785
 Red. masses --      2.9068                 2.6912                 2.9215
 Frc consts  --      0.0018                 0.0019                 0.0048
 IR Inten    --      0.0838                 0.0132                 0.5228

                      4                      5                      6
                      A                      A                      A
 Frequencies --     60.1649                69.8009                89.3014
 Red. masses --      3.1662                 2.6514                 2.8128
 Frc consts  --      0.0068                 0.0076                 0.0132
 IR Inten    --      0.0476                 1.2249                 0.6555

                      7                      8                      9
                      A                      A                      A
 Frequencies --     98.3526               155.5432               184.8760
 Red. masses --      2.1638                 2.5224                 2.0564
 Frc consts  --      0.0123                 0.0360                 0.0414
 IR Inten    --      0.1265                 0.4296                 0.1105

                     10                     11                     12
                      A                      A                      A
 Frequencies --    195.1327               216.3649               227.1880
 Red. masses --      1.8265                 1.0482                 1.1479
 Frc consts  --      0.0410                 0.0289                 0.0349
 IR Inten    --      0.7294                 0.0688                 0.9913

                     13                     14                     15
                      A                      A                      A
 Frequencies --    231.6011               241.9553               253.7137
 Red. masses --      1.7628                 1.4197                 2.0749
 Frc consts  --      0.0557                 0.0490                 0.0787
 IR Inten    --      7.1199                 0.1593                 0.6940

                     16                     17                     18
                      A                      A                      A
 Frequencies --    273.6780               294.8324               346.2187
 Red. masses --      1.5122                 1.8588                 2.4849
 Frc consts  --      0.0667                 0.0952                 0.1755
 IR Inten    --      0.3913                 0.5748                 2.0226

                     19                     20                     21
                      A                      A                      A
 Frequencies --    388.8637               402.5301               425.2545
 Red. masses --      3.1011                 2.3654                 3.0004
 Frc consts  --      0.2763                 0.2258                 0.3197
 IR Inten    --      0.3912                 2.5110                 5.5332

                     22                     23                     24
                      A                      A                      A
 Frequencies --    435.8527               457.3289               518.5313
 Red. masses --      2.5246                 2.3031                 3.4643
 Frc consts  --      0.2826                 0.2838                 0.5488
 IR Inten    --      2.5487                 3.0788                 0.7954

                     25                     26                     27
                      A                      A                      A
 Frequencies --    542.5530               560.0467               779.8036
 Red. masses --      3.0192                 2.8777                 1.3077
 Frc consts  --      0.5236                 0.5318                 0.4685
 IR Inten    --      6.9549                 2.2459                 1.2949

                     28                     29                     30
                      A                      A                      A
 Frequencies --    822.8260               839.7978               855.6873
 Red. masses --      2.1077                 1.9511                 2.0802
 Frc consts  --      0.8408                 0.8107                 0.8974
 IR Inten    --      6.6045                 4.1296                 7.9299

                     31                     32                     33
                      A                      A                      A
 Frequencies --    887.3195               923.8614               935.5801
 Red. masses --      3.0188                 1.4294                 1.4659
 Frc consts  --      1.4004                 0.7188                 0.7560
 IR Inten    --     31.3081                 3.4337                 6.1132

                     34                     35                     36
                      A                      A                      A
 Frequencies --    947.7008               967.1681               970.2691
 Red. masses --      1.8899                 1.5317                 1.2350
 Frc consts  --      1.0000                 0.8442                 0.6850
 IR Inten    --      4.6981                 0.9013                 3.3141

                     37                     38                     39
                      A                      A                      A
 Frequencies --    988.4803              1004.0141              1022.6296
 Red. masses --      1.8688                 2.4278                 2.1622
 Frc consts  --      1.0758                 1.4419                 1.3322
 IR Inten    --     62.1051                42.0867                 2.7850

                     40                     41                     42
                      A                      A                      A
 Frequencies --   1037.3920              1073.6008              1106.9697
 Red. masses --      2.8448                 3.2983                 4.2439
 Frc consts  --      1.8038                 2.2399                 3.0640
 IR Inten    --     17.3711                89.5850                54.5106

                     43                     44                     45
                      A                      A                      A
 Frequencies --   1121.8169              1139.6566              1152.2552
 Red. masses --      2.2065                 2.1446                 2.0426
 Frc consts  --      1.6360                 1.6412                 1.5979
 IR Inten    --    116.6380                13.1721                13.5611

                     46                     47                     48
                      A                      A                      A
 Frequencies --   1166.1662              1181.0160              1191.6298
 Red. masses --      2.1650                 1.4571                 1.7830
 Frc consts  --      1.7347                 1.1974                 1.4917
 IR Inten    --     16.0688                 6.2818                19.9721

                     49                     50                     51
                      A                      A                      A
 Frequencies --   1197.1273              1210.5810              1222.1559
 Red. masses --      1.8568                 2.0138                 1.6307
 Frc consts  --      1.5678                 1.7388                 1.4351
 IR Inten    --      7.8966                 5.7417                 1.9678

                     52                     53                     54
                      A                      A                      A
 Frequencies --   1261.7046              1288.3395              1304.3763
 Red. masses --      1.3364                 1.2754                 1.1999
 Frc consts  --      1.2535                 1.2472                 1.2028
 IR Inten    --      9.9684                 8.0902                 0.5515

                     55                     56                     57
                      A                      A                      A
 Frequencies --   1331.4925              1352.3245              1364.8997
 Red. masses --      1.2552                 1.3091                 1.3342
 Frc consts  --      1.3111                 1.4106                 1.4645
 IR Inten    --     18.6781                26.2526                 5.7060

                     58                     59                     60
                      A                      A                      A
 Frequencies --   1373.9101              1379.8736              1393.1321
 Red. masses --      1.3007                 1.4336                 1.3781
 Frc consts  --      1.4466                 1.6082                 1.5759
 IR Inten    --      2.3387                 5.3561                20.5965

                     61                     62                     63
                      A                      A                      A
 Frequencies --   1399.0596              1405.9023              1412.7417
 Red. masses --      1.3241                 1.2638                 1.2753
 Frc consts  --      1.5270                 1.4718                 1.4996
 IR Inten    --      3.1515                10.6525                11.2645

                     64                     65                     66
                      A                      A                      A
 Frequencies --   1414.9371              1420.8001              1458.6049
 Red. masses --      1.2201                 1.2465                 1.1533
 Frc consts  --      1.4392                 1.4825                 1.4457
 IR Inten    --      7.6236                 0.9906                 5.7806

                     67                     68                     69
                      A                      A                      A
 Frequencies --   1467.1511              1471.6915              1479.6590
 Red. masses --      1.1679                 1.0920                 1.1117
 Frc consts  --      1.4812                 1.3935                 1.4340
 IR Inten    --      8.4244                 3.0968                17.2864

                     70                     71                     72
                      A                      A                      A
 Frequencies --   1481.6019              1488.7250              1491.6607
 Red. masses --      1.0594                 1.0484                 1.0545
 Frc consts  --      1.3701                 1.3689                 1.3824
 IR Inten    --      0.7872                 3.0154                 0.7905

                     73                     74                     75
                      A                      A                      A
 Frequencies --   1494.3206              1497.3394              1503.7048
 Red. masses --      1.0598                 1.0456                 1.0515
 Frc consts  --      1.3943                 1.3812                 1.4008
 IR Inten    --      1.2815                 5.2810                 4.6229

                     76                     77                     78
                      A                      A                      A
 Frequencies --   1504.9912              1510.8961              1511.5504
 Red. masses --      1.0522                 1.0688                 1.0644
 Frc consts  --      1.4042                 1.4375                 1.4329
 IR Inten    --      3.1062                10.0244                 5.4516

                     79                     80                     81
                      A                      A                      A
 Frequencies --   1514.7394              2947.9017              2965.9747
 Red. masses --      1.0538                 1.0812                 1.0827
 Frc consts  --      1.4245                 5.5356                 5.6114
 IR Inten    --      3.9392                30.0212                32.5433

                     82                     83                     84
                      A                      A                      A
 Frequencies --   2990.1473              3000.9209              3020.7738
 Red. masses --      1.0817                 1.0330                 1.0358
 Frc consts  --      5.6984                 5.4809                 5.5690
 IR Inten    --     24.5303                67.2552                22.4632

                     85                     86                     87
                      A                      A                      A
 Frequencies --   3026.7712              3031.8994              3034.8837
 Red. masses --      1.0409                 1.0496                 1.0470
 Frc consts  --      5.6187                 5.6845                 5.6816
 IR Inten    --     35.9107                 7.8192                37.7746

                     88                     89                     90
                      A                      A                      A
 Frequencies --   3036.9254              3039.7379              3062.2419
 Red. masses --      1.0577                 1.0361                 1.1027
 Frc consts  --      5.7473                 5.6406                 6.0925
 IR Inten    --     23.6513                 9.9268                45.9152

                     91                     92                     93
                      A                      A                      A
 Frequencies --   3069.1723              3079.2146              3083.0878
 Red. masses --      1.1011                 1.1027                 1.1006
 Frc consts  --      6.1109                 6.1599                 6.1639
 IR Inten    --      8.3034                10.9819                 3.4825

                     94                     95                     96
                      A                      A                      A
 Frequencies --   3090.2484              3095.9854              3100.2010
 Red. masses --      1.1000                 1.1015                 1.1004
 Frc consts  --      6.1894                 6.2208                 6.2311
 IR Inten    --     69.3541                39.9163                38.0313

                     97                     98                     99
                      A                      A                      A
 Frequencies --   3108.4633              3109.2451              3113.3947
 Red. masses --      1.1014                 1.1015                 1.1018
 Frc consts  --      6.2703                 6.2742                 6.2924
 IR Inten    --     42.8188                28.2440                26.2139

                    100                    101                    102
                      A                      A                      A
 Frequencies --   3115.5467              3140.3517              3436.4679
 Red. masses --      1.1005                 1.0968                 1.0750
 Frc consts  --      6.2936                 6.3726                 7.4796
 IR Inten    --     27.7249                14.6052                 3.8851

 - Thermochemistry -
 -------------------
 Temperature   298.150 Kelvin.  Pressure   1.00000 Atm.
 Atom     1 has atomic number  6 and mass  12.00000

 Molecular mass:   189.17288 amu.
 Principal axes and moments of inertia in atomic units:
                           1         2         3
     Eigenvalues --  2395.725973664.110595529.55215
           X            0.99987   0.01530   0.00443
           Y           -0.01527   0.99986  -0.00727
           Z           -0.00454   0.00721   0.99996
 This molecule is an asymmetric top.
 Rotational symmetry number  1.
 Warning -- assumption of classical behavior for rotation
           may cause significant error
 Rotational temperatures (Kelvin)      0.03615     0.02364     0.01566
 Rotational constants (GHZ):           0.75332     0.49255     0.32638
 Zero-point vibrational energy     856612.6 (Joules/Mol)
                                  204.73533 (Kcal/Mol)
 Warning -- explicit consideration of  26 degrees of freedom as
           vibrations may cause significant error
 Vibrational temperatures:     46.43    49.95    75.65    86.56   100.43
          (Kelvin)            128.48   141.51   223.79   266.00   280.75
                              311.30   326.87   333.22   348.12   365.04
                              393.76   424.20   498.13   559.49   579.15
                              611.85   627.09   657.99   746.05   780.61
                              805.78  1121.96  1183.86  1208.28  1231.14
                             1276.65  1329.23  1346.09  1363.53  1391.54
                             1396.00  1422.20  1444.55  1471.34  1492.58
                             1544.67  1592.68  1614.04  1639.71  1657.84
                             1677.85  1699.22  1714.49  1722.40  1741.76
                             1758.41  1815.31  1853.63  1876.71  1915.72
                             1945.69  1963.79  1976.75  1985.33  2004.41
                             2012.93  2022.78  2032.62  2035.78  2044.21
                             2098.61  2110.90  2117.44  2128.90  2131.69
                             2141.94  2146.17  2149.99  2154.34  2163.50
                             2165.35  2173.84  2174.78  2179.37  4241.37
                             4267.38  4302.16  4317.66  4346.22  4354.85
                             4362.23  4366.52  4369.46  4373.50  4405.88
                             4415.85  4430.30  4435.88  4446.18  4454.43
                             4460.50  4472.39  4473.51  4479.48  4482.58
                             4518.27  4944.31

 Zero-point correction=                           0.326267 (Hartree/Particle)
 Thermal correction to Energy=                    0.343508
 Thermal correction to Enthalpy=                  0.344452
 Thermal correction to Gibbs Free Energy=         0.280266
 Sum of electronic and zero-point Energies=           -599.776117
 Sum of electronic and thermal Energies=              -599.758876
 Sum of electronic and thermal Enthalpies=            -599.757932
 Sum of electronic and thermal Free Energies=         -599.822118

                     E (Thermal)             CV                S
                      KCal/Mol        Cal/Mol-Kelvin    Cal/Mol-Kelvin
 Total                  215.555             61.841            135.090
 Electronic               0.000              0.000              0.000
 Translational            0.889              2.981             41.618
 Rotational               0.889              2.981             32.251
 Vibrational            213.777             55.879             61.221
 Vibration     1          0.594              1.983              5.685
 Vibration     2          0.594              1.983              5.540
 Vibration     3          0.596              1.977              4.718
 Vibration     4          0.597              1.973              4.452
 Vibration     5          0.598              1.969              4.159
 Vibration     6          0.602              1.957              3.675
 Vibration     7          0.604              1.950              3.487
 Vibration     8          0.620              1.896              2.603
 Vibration     9          0.631              1.860              2.279
 Vibration    10          0.636              1.847              2.179
 Vibration    11          0.645              1.816              1.989
 Vibration    12          0.651              1.800              1.901
 Vibration    13          0.653              1.793              1.867
 Vibration    14          0.658              1.776              1.788
 Vibration    15          0.665              1.757              1.705
 Vibration    16          0.676              1.722              1.573
 Vibration    17          0.689              1.683              1.446
 Vibration    18          0.724              1.583              1.183
 Vibration    19          0.757              1.494              1.004
 Vibration    20          0.768              1.465              0.953
 Vibration    21          0.787              1.415              0.874
 Vibration    22          0.796              1.392              0.840
 Vibration    23          0.815              1.345              0.774
 Vibration    24          0.874              1.209              0.613
 Vibration    25          0.898              1.156              0.560
 Vibration    26          0.916              1.118              0.524

 Optimization completed.
    -- Stationary point found.
 Normal termination of Gaussian 16 at Mon May 22 11:36:46 2023.
