 Gaussian 16, Revision A.03,
 Gaussian 16:  ES64L-G16RevA.03 25-Dec-2016

 -----------------------------
 # opt freq b3lyp/6-31g(2df,p)
 -----------------------------

 -------------------
 Title Card Required
 -------------------
 Symbolic Z-matrix:
 Charge =  0 Multiplicity = 1

 SCF Done:  E(RB3LYP) =  -197.788321358     A.U. after   11 cycles
 SCF Done:  E(RB3LYP) =  -197.788943496     A.U. after    9 cycles
 SCF Done:  E(RB3LYP) =  -197.789027954     A.U. after    8 cycles
 SCF Done:  E(RB3LYP) =  -197.789032964     A.U. after    8 cycles
 SCF Done:  E(RB3LYP) =  -197.789033922     A.U. after    6 cycles
 SCF Done:  E(RB3LYP) =  -197.789034014     A.U. after    6 cycles
 Optimization completed.
    -- Stationary point found.
 Normal termination of Gaussian 16 at Sat May 27 22:27:36 2023.

 ----------------------------------------------------------------------
 #N Geom=AllCheck Guess=TCheck SCRF=Check GenChk RB3LYP/6-31G(2df,p) Fr
 eq
 ----------------------------------------------------------------------

 Structure from the checkpoint file:  "CCCqCrC.chk"
 -------------------
 Title Card Required
 -------------------
 Charge =  0 Multiplicity = 1

                         Standard orientation:
 ---------------------------------------------------------------------
 Center     Atomic      Atomic             Coordinates (Angstroms)
 Number     Number       Type             X           Y           Z
 ---------------------------------------------------------------------
      1          6           0       -2.099673   -0.032985   -0.115137
      2          6           0       -0.763669   -0.662342    0.292217
      3          6           0        0.481454   -0.002614   -0.329132
      4          6           0        0.660610    1.453888    0.121782
      5          6           0        1.739392   -0.822564   -0.012290
      6          1           0       -2.940901   -0.591262    0.307863
      7          1           0       -2.219038   -0.030239   -1.204741
      8          1           0       -2.188347    1.001696    0.229950
      9          1           0       -0.771247   -1.723175    0.010045
     10          1           0       -0.666755   -0.642783    1.387047
     11          1           0        0.345735   -0.003035   -1.421087
     12          1           0        0.777367    1.512482    1.211092
     13          1           0       -0.192587    2.079529   -0.155834
     14          1           0        1.554490    1.896821   -0.330023
     15          1           0        1.920363   -0.858908    1.068978
     16          1           0        2.628208   -0.387025   -0.480979
     17          1           0        1.644023   -1.854401   -0.366944
 ---------------------------------------------------------------------

 SCF Done:  E(RB3LYP) =  -197.789034014     A.U. after    1 cycles

 The electronic state is 1-A.
 Alpha  occ. eigenvalues --  -10.18103 -10.17323 -10.16868 -10.16684 -10.16679
 Alpha  occ. eigenvalues --   -0.80266  -0.72646  -0.67628  -0.61926  -0.54995
 Alpha  occ. eigenvalues --   -0.45869  -0.43745  -0.42286  -0.40444  -0.37826
 Alpha  occ. eigenvalues --   -0.37450  -0.35397  -0.34301  -0.31613  -0.31408
 Alpha  occ. eigenvalues --   -0.30844
 Alpha virt. eigenvalues --    0.08498   0.12065   0.12952   0.14089   0.15544
 Alpha virt. eigenvalues --    0.16203   0.17100   0.17795   0.18490   0.19321
 Alpha virt. eigenvalues --    0.21286   0.22157   0.23185   0.25295   0.25727

 Mulliken charges:
               1
     1  C   -0.387972
     2  C   -0.149170
     3  C    0.064529
     4  C   -0.379576
     5  C   -0.385922
     6  H    0.110259
     7  H    0.111616
     8  H    0.116979
     9  H    0.088928
    10  H    0.089191
    11  H    0.067691
    12  H    0.108926
    13  H    0.112120
    14  H    0.108289
    15  H    0.109816
    16  H    0.106916
    17  H    0.107380
 Sum of Mulliken charges =   0.00000

 Dipole moment (field-independent basis, Debye):
    X=             -0.0250    Y=             -0.0290    Z=             -0.0489  Tot=              0.0621
 Quadrupole moment (field-independent basis, Debye-Ang):
   XX=            -35.2879   YY=            -34.9960   ZZ=            -34.4300
   XY=              0.2462   XZ=             -0.1812   YZ=              0.0593

  Exact polarizability:  62.099   0.060  55.895  -0.104  -0.098  50.771
 Approx polarizability:  76.237   0.580  75.518  -0.209   0.046  75.903

                      1                      2                      3
                      A                      A                      A
 Frequencies --     94.9809               214.5859               224.8088
 Red. masses --      1.7250                 1.0436                 1.1707
 Frc consts  --      0.0092                 0.0283                 0.0349
 IR Inten    --      0.0024                 0.0355                 0.0137

                      4                      5                      6
                      A                      A                      A
 Frequencies --    260.1173               264.2875               362.2511
 Red. masses --      1.1967                 1.8590                 2.0953
 Frc consts  --      0.0477                 0.0765                 0.1620
 IR Inten    --      0.0171                 0.0080                 0.0003

                      7                      8                      9
                      A                      A                      A
 Frequencies --    410.7627               454.0565               764.9747
 Red. masses --      1.9338                 2.4108                 1.6792
 Frc consts  --      0.1922                 0.2928                 0.5790
 IR Inten    --      0.1615                 0.2117                 1.6828

                     10                     11                     12
                      A                      A                      A
 Frequencies --    798.1998               916.6083               927.1167
 Red. masses --      1.4335                 2.1000                 1.1782
 Frc consts  --      0.5381                 1.0395                 0.5967
 IR Inten    --      0.5137                 0.3659                 0.6943

                     13                     14                     15
                      A                      A                      A
 Frequencies --    964.5634               983.9066              1025.8447
 Red. masses --      1.4229                 1.1823                 1.4975
 Frc consts  --      0.7800                 0.6743                 0.9285
 IR Inten    --      0.1288                 3.0117                 2.2482

                     16                     17                     18
                      A                      A                      A
 Frequencies --   1047.5154              1169.7602              1195.6229
 Red. masses --      2.8681                 1.9849                 1.7565
 Frc consts  --      1.8542                 1.6002                 1.4794
 IR Inten    --      0.2763                 2.4490                 1.6647

                     19                     20                     21
                      A                      A                      A
 Frequencies --   1206.5578              1298.2349              1327.8874
 Red. masses --      1.9798                 1.2483                 1.2582
 Frc consts  --      1.6981                 1.2396                 1.3071
 IR Inten    --      0.2081                 1.6123                 4.8946

                     22                     23                     24
                      A                      A                      A
 Frequencies --   1369.5388              1383.6318              1400.0627
 Red. masses --      1.3303                 1.4856                 1.2856
 Frc consts  --      1.4701                 1.6757                 1.4848
 IR Inten    --      3.0006                 0.1668                 3.6011

                     25                     26                     27
                      A                      A                      A
 Frequencies --   1411.8681              1421.8287              1479.8968
 Red. masses --      1.2395                 1.2295                 1.0635
 Frc consts  --      1.4557                 1.4644                 1.3724
 IR Inten    --      2.1979                 2.6607                 0.1613

                     28                     29                     30
                      A                      A                      A
 Frequencies --   1487.6204              1495.6799              1500.4484
 Red. masses --      1.0428                 1.0538                 1.0407
 Frc consts  --      1.3597                 1.3890                 1.3804
 IR Inten    --      0.1854                 0.9098                 8.7992

                     31                     32                     33
                      A                      A                      A
 Frequencies --   1505.4384              1508.4789              1513.9407
 Red. masses --      1.0662                 1.0595                 1.0487
 Frc consts  --      1.4237                 1.4204                 1.4162
 IR Inten    --      1.8373                 6.2790                 2.9747

                     34                     35                     36
                      A                      A                      A
 Frequencies --   2988.9442              3007.0666              3021.0001
 Red. masses --      1.0808                 1.0605                 1.0360
 Frc consts  --      5.6887                 5.6501                 5.5709
 IR Inten    --     10.4754                29.8981                29.5937

                     37                     38                     39
                      A                      A                      A
 Frequencies --   3026.6416              3031.1180              3041.3664
 Red. masses --      1.0377                 1.0385                 1.0987
 Frc consts  --      5.6009                 5.6219                 5.9880
 IR Inten    --     32.2164                19.7455                22.6437

                     40                     41                     42
                      A                      A                      A
 Frequencies --   3084.7863              3090.6482              3095.4146
 Red. masses --      1.1001                 1.0998                 1.1005
 Frc consts  --      6.1678                 6.1897                 6.2124
 IR Inten    --      5.3810                41.2256                62.9608

                     43                     44                     45
                      A                      A                      A
 Frequencies --   3095.8034              3101.1899              3108.7835
 Red. masses --      1.1014                 1.1010                 1.0996
 Frc consts  --      6.2194                 6.2387                 6.2612
 IR Inten    --     23.2555                59.8249                33.9223

 - Thermochemistry -
 -------------------
 Temperature   298.150 Kelvin.  Pressure   1.00000 Atm.
 Atom     1 has atomic number  6 and mass  12.00000

 Molecular mass:    72.09390 amu.
 Principal axes and moments of inertia in atomic units:
                           1         2         3
     Eigenvalues --   248.39873 541.97856 709.10204
           X            0.99996  -0.00750   0.00372
           Y            0.00750   0.99997   0.00020
           Z           -0.00373  -0.00017   0.99999
 This molecule is an asymmetric top.
 Rotational symmetry number  1.
 Rotational temperatures (Kelvin)      0.34869     0.15981     0.12215
 Rotational constants (GHZ):           7.26550     3.32991     2.54511
 Zero-point vibrational energy     419194.5 (Joules/Mol)
                                  100.18988 (Kcal/Mol)
 Warning -- explicit consideration of   8 degrees of freedom as
           vibrations may cause significant error
 Vibrational temperatures:    136.66   308.74   323.45   374.25   380.25
          (Kelvin)            521.20   591.00   653.29  1100.63  1148.43
                             1318.79  1333.91  1387.79  1415.62  1475.96
                             1507.14  1683.02  1720.23  1735.97  1867.87
                             1910.53  1970.46  1990.74  2014.38  2031.36
                             2045.69  2129.24  2140.35  2151.95  2158.81
                             2165.99  2170.36  2178.22  4300.42  4326.50
                             4346.55  4354.66  4361.10  4375.85  4438.32
                             4446.75  4453.61  4454.17  4461.92  4472.85

 Zero-point correction=                           0.159663 (Hartree/Particle)
 Thermal correction to Energy=                    0.166706
 Thermal correction to Enthalpy=                  0.167650
 Thermal correction to Gibbs Free Energy=         0.129724
 Sum of electronic and zero-point Energies=           -197.629371
 Sum of electronic and thermal Energies=              -197.622328
 Sum of electronic and thermal Enthalpies=            -197.621384
 Sum of electronic and thermal Free Energies=         -197.659310

                     E (Thermal)             CV                S
                      KCal/Mol        Cal/Mol-Kelvin    Cal/Mol-Kelvin
 Total                  104.610             25.147             79.822
 Electronic               0.000              0.000              0.000
 Translational            0.889              2.981             38.743
 Rotational               0.889              2.981             26.060
 Vibrational            102.832             19.185             15.020
 Vibration     1          0.603              1.953              3.555
 Vibration     2          0.645              1.819              2.004
 Vibration     3          0.649              1.803              1.920
 Vibration     4          0.668              1.746              1.661
 Vibration     5          0.671              1.738              1.633
 Vibration     6          0.736              1.550              1.112
 Vibration     7          0.775              1.447              0.924
 Vibration     8          0.812              1.352              0.784

 Optimization completed.
    -- Stationary point found.
 Normal termination of Gaussian 16 at Sat May 27 22:38:13 2023.
