 Gaussian 16, Revision A.03,
 Gaussian 16:  ES64L-G16RevA.03 25-Dec-2016

 -----------------------------
 # opt freq b3lyp/6-31g(2df,p)
 -----------------------------

 -------------------
 Title Card Required
 -------------------
 Symbolic Z-matrix:
 Charge =  0 Multiplicity = 1

 SCF Done:  E(RB3LYP) =  -540.206759965     A.U. after   13 cycles
 SCF Done:  E(RB3LYP) =  -540.207471624     A.U. after   14 cycles
 SCF Done:  E(RB3LYP) =  -540.213540604     A.U. after   11 cycles
 SCF Done:  E(RB3LYP) =  -540.217480979     A.U. after   12 cycles
 SCF Done:  E(RB3LYP) =  -540.218680100     A.U. after   12 cycles
 SCF Done:  E(RB3LYP) =  -540.219988291     A.U. after   11 cycles
 SCF Done:  E(RB3LYP) =  -540.220350898     A.U. after   11 cycles
 SCF Done:  E(RB3LYP) =  -540.220672950     A.U. after   11 cycles
 SCF Done:  E(RB3LYP) =  -540.220805299     A.U. after   10 cycles
 SCF Done:  E(RB3LYP) =  -540.220911957     A.U. after   10 cycles
 SCF Done:  E(RB3LYP) =  -540.220955670     A.U. after    9 cycles
 SCF Done:  E(RB3LYP) =  -540.220968651     A.U. after   10 cycles
 SCF Done:  E(RB3LYP) =  -540.220973804     A.U. after    9 cycles
 SCF Done:  E(RB3LYP) =  -540.220977259     A.U. after    9 cycles
 SCF Done:  E(RB3LYP) =  -540.220980769     A.U. after    9 cycles
 SCF Done:  E(RB3LYP) =  -540.220983565     A.U. after    9 cycles
 SCF Done:  E(RB3LYP) =  -540.220985694     A.U. after    9 cycles
 SCF Done:  E(RB3LYP) =  -540.220986082     A.U. after    7 cycles
 SCF Done:  E(RB3LYP) =  -540.220986125     A.U. after    6 cycles
 Optimization completed.
    -- Stationary point found.
 Normal termination of Gaussian 16 at Mon May 22 19:58:58 2023.

 ----------------------------------------------------------------------
 #N Geom=AllCheck Guess=TCheck SCRF=Check GenChk RB3LYP/6-31G(2df,p) Fr
 eq
 ----------------------------------------------------------------------

 Structure from the checkpoint file:  "CCCqdOrOCqCOrCqCrC.chk"
 -------------------
 Title Card Required
 -------------------
 Charge =  0 Multiplicity = 1

                         Standard orientation:
 ---------------------------------------------------------------------
 Center     Atomic      Atomic             Coordinates (Angstroms)
 Number     Number       Type             X           Y           Z
 ---------------------------------------------------------------------
      1          6           0        3.905906   -0.612805    0.064175
      2          6           0        2.556311   -0.764290   -0.632934
      3          6           0        1.420111   -0.116265    0.129174
      4          8           0        1.540060    0.477024    1.178364
      5          8           0        0.252601   -0.292781   -0.513288
      6          6           0       -0.948518    0.240371    0.102273
      7          6           0       -1.132322    1.696093   -0.343747
      8          8           0        0.023821    2.488814   -0.181857
      9          6           0       -2.100902   -0.693226   -0.299173
     10          6           0       -1.838539   -2.127455    0.181979
     11          6           0       -3.453164   -0.188944    0.228904
     12          1           0        4.694337   -1.089708   -0.524460
     13          1           0        3.889296   -1.071737    1.055918
     14          1           0        4.161693    0.441370    0.195721
     15          1           0        2.297696   -1.818398   -0.787790
     16          1           0        2.568998   -0.318087   -1.634455
     17          1           0       -0.802549    0.210620    1.188535
     18          1           0       -1.985624    2.116854    0.209513
     19          1           0       -1.385196    1.723879   -1.411111
     20          1           0        0.464624    2.212863    0.632067
     21          1           0       -2.138093   -0.700972   -1.397043
     22          1           0       -1.808850   -2.173262    1.277236
     23          1           0       -0.889093   -2.508729   -0.199759
     24          1           0       -2.635303   -2.797092   -0.156405
     25          1           0       -3.432186   -0.069593    1.318686
     26          1           0       -4.239975   -0.912044   -0.006794
     27          1           0       -3.744932    0.768723   -0.209520
 ---------------------------------------------------------------------

 SCF Done:  E(RB3LYP) =  -540.220986125     A.U. after    1 cycles

 The electronic state is 1-A.
 Alpha  occ. eigenvalues --  -19.18207 -19.12991 -19.12529 -10.30961 -10.24207
 Alpha  occ. eigenvalues --  -10.22696 -10.19943 -10.19924 -10.18312 -10.17906
 Alpha  occ. eigenvalues --  -10.17757  -1.10280  -1.01735  -1.00760  -0.82177
 Alpha  occ. eigenvalues --   -0.78309  -0.73194  -0.69310  -0.66533  -0.62769
 Alpha  occ. eigenvalues --   -0.57659  -0.56534  -0.50597  -0.50063  -0.48661
 Alpha  occ. eigenvalues --   -0.46907  -0.45072  -0.44546  -0.43662  -0.41339
 Alpha  occ. eigenvalues --   -0.40406  -0.39774  -0.38882  -0.38588  -0.37234
 Alpha  occ. eigenvalues --   -0.35922  -0.35071  -0.34811  -0.34241  -0.33434
 Alpha  occ. eigenvalues --   -0.32884  -0.29610  -0.27449  -0.25903
 Alpha virt. eigenvalues --    0.01000   0.07942   0.09166   0.10993   0.11276
 Alpha virt. eigenvalues --    0.12260   0.13036   0.14295   0.14964   0.15171
 Alpha virt. eigenvalues --    0.16097   0.16610   0.16758   0.17582   0.18777

 Mulliken charges:
               1
     1  C   -0.372389
     2  C   -0.303880
     3  C    0.469207
     4  O   -0.385232
     5  O   -0.251101
     6  C    0.064957
     7  C   -0.057384
     8  O   -0.429716
     9  C    0.021501
    10  C   -0.397966
    11  C   -0.403160
    12  H    0.112997
    13  H    0.131192
    14  H    0.135259
    15  H    0.131207
    16  H    0.139859
    17  H    0.103751
    18  H    0.093351
    19  H    0.105231
    20  H    0.294951
    21  H    0.085479
    22  H    0.114620
    23  H    0.123808
    24  H    0.113627
    25  H    0.118440
    26  H    0.117306
    27  H    0.124084
 Sum of Mulliken charges =  -0.00000

 Dipole moment (field-independent basis, Debye):
    X=             -1.0621    Y=             -2.1444    Z=             -0.5919  Tot=              2.4651
 Quadrupole moment (field-independent basis, Debye-Ang):
   XX=            -62.0501   YY=            -72.2750   ZZ=            -68.8832
   XY=             -2.5576   XZ=             -2.7301   YZ=              1.1131

  Exact polarizability: 118.396  -1.569  92.370   1.030   2.210  82.844
 Approx polarizability: 140.892   0.677 128.731   5.005   7.592 137.236

                      1                      2                      3
                      A                      A                      A
 Frequencies --     28.4979                52.5991                63.6856
 Red. masses --      1.9605                 2.5321                 3.6511
 Frc consts  --      0.0009                 0.0041                 0.0087
 IR Inten    --      0.2064                 1.5498                 6.3047

                      4                      5                      6
                      A                      A                      A
 Frequencies --    100.6897               130.5458               147.5062
 Red. masses --      4.0874                 3.6773                 2.8354
 Frc consts  --      0.0244                 0.0369                 0.0363
 IR Inten    --      0.9433                 5.8640                 2.2955

                      7                      8                      9
                      A                      A                      A
 Frequencies --    191.7144               203.3914               227.8719
 Red. masses --      2.9654                 1.1614                 1.1546
 Frc consts  --      0.0642                 0.0283                 0.0353
 IR Inten    --      0.8286                 1.0622                 0.1020

                     10                     11                     12
                      A                      A                      A
 Frequencies --    237.8179               275.4351               311.9220
 Red. masses --      1.3983                 2.6946                 4.2739
 Frc consts  --      0.0466                 0.1204                 0.2450
 IR Inten    --      0.2124                 2.4766                 8.7217

                     13                     14                     15
                      A                      A                      A
 Frequencies --    324.1564               353.8536               392.5899
 Red. masses --      3.1161                 2.7922                 2.6392
 Frc consts  --      0.1929                 0.2060                 0.2397
 IR Inten    --      6.8174                 0.6124                 3.2336

                     16                     17                     18
                      A                      A                      A
 Frequencies --    439.0618               455.4191               498.2410
 Red. masses --      1.2874                 2.3406                 3.0659
 Frc consts  --      0.1462                 0.2860                 0.4484
 IR Inten    --    127.1740                30.1963                25.1543

                     19                     20                     21
                      A                      A                      A
 Frequencies --    559.2284               594.5375               661.5294
 Red. masses --      2.4027                 2.2645                 4.0038
 Frc consts  --      0.4427                 0.4716                 1.0323
 IR Inten    --      6.4156                 4.1611                 1.5777

                     22                     23                     24
                      A                      A                      A
 Frequencies --    810.4917               848.1966               869.7569
 Red. masses --      1.4274                 2.6833                 3.1157
 Frc consts  --      0.5524                 1.1374                 1.3887
 IR Inten    --      8.8785                 2.3585                11.9537

                     25                     26                     27
                      A                      A                      A
 Frequencies --    907.4278               931.7203               961.9136
 Red. masses --      3.0927                 1.1719                 1.5362
 Frc consts  --      1.5004                 0.5994                 0.8375
 IR Inten    --      4.5162                 1.9296                 5.3579

                     28                     29                     30
                      A                      A                      A
 Frequencies --    968.5906              1013.6938              1031.4436
 Red. masses --      1.4754                 2.1792                 3.0598
 Frc consts  --      0.8155                 1.3193                 1.9180
 IR Inten    --      6.1251                 1.6528                31.5250

                     31                     32                     33
                      A                      A                      A
 Frequencies --   1053.7014              1101.4229              1107.7981
 Red. masses --      2.4091                 2.5337                 1.7253
 Frc consts  --      1.5759                 1.8110                 1.2475
 IR Inten    --     73.5327                26.4729                 0.8499

                     34                     35                     36
                      A                      A                      A
 Frequencies --   1122.7696              1141.5446              1173.4453
 Red. masses --      4.0911                 2.0750                 1.9868
 Frc consts  --      3.0386                 1.5932                 1.6119
 IR Inten    --     26.2536                 6.8401                 9.3896

                     37                     38                     39
                      A                      A                      A
 Frequencies --   1196.9658              1223.2653              1250.5451
 Red. masses --      1.7239                 3.3202                 1.3671
 Frc consts  --      1.4552                 2.9272                 1.2597
 IR Inten    --      6.9426               439.6313                16.1144

                     40                     41                     42
                      A                      A                      A
 Frequencies --   1278.7435              1307.6607              1341.7049
 Red. masses --      1.1824                 1.2169                 1.3262
 Frc consts  --      1.1391                 1.2260                 1.4066
 IR Inten    --      0.0398                 1.2477                 7.3799

                     43                     44                     45
                      A                      A                      A
 Frequencies --   1362.5538              1373.5999              1397.4073
 Red. masses --      1.3076                 1.4972                 1.3309
 Frc consts  --      1.4303                 1.6644                 1.5312
 IR Inten    --     15.2245                35.9461                13.9797

                     46                     47                     48
                      A                      A                      A
 Frequencies --   1401.9262              1405.1912              1416.8315
 Red. masses --      1.3740                 1.5077                 1.2382
 Frc consts  --      1.5911                 1.7540                 1.4645
 IR Inten    --      2.6515                34.7245                 3.5644

                     49                     50                     51
                      A                      A                      A
 Frequencies --   1423.6270              1452.4590              1456.0011
 Red. masses --      1.2345                 1.2463                 1.0812
 Frc consts  --      1.4741                 1.5491                 1.3504
 IR Inten    --      2.7344                48.7032                13.5140

                     52                     53                     54
                      A                      A                      A
 Frequencies --   1488.9818              1493.6150              1493.9001
 Red. masses --      1.0508                 1.0409                 1.0412
 Frc consts  --      1.3726                 1.3682                 1.3691
 IR Inten    --      0.7222                 2.7395                 3.5907

                     55                     56                     57
                      A                      A                      A
 Frequencies --   1500.5617              1502.6885              1510.5196
 Red. masses --      1.0557                 1.0636                 1.0776
 Frc consts  --      1.4006                 1.4150                 1.4486
 IR Inten    --     10.5172                 3.2167                 1.0029

                     58                     59                     60
                      A                      A                      A
 Frequencies --   1515.6313              1786.3384              2987.2739
 Red. masses --      1.0517                11.2730                 1.0656
 Frc consts  --      1.4234                21.1942                 5.6028
 IR Inten    --     12.3755               180.6952                59.7639

                     61                     62                     63
                      A                      A                      A
 Frequencies --   3014.2799              3030.2390              3034.2726
 Red. masses --      1.0817                 1.0383                 1.0418
 Frc consts  --      5.7908                 5.6173                 5.6514
 IR Inten    --      6.7730                20.0225                20.8726

                     64                     65                     66
                      A                      A                      A
 Frequencies --   3039.8495              3042.5789              3052.5275
 Red. masses --      1.0843                 1.0612                 1.0354
 Frc consts  --      5.9037                 5.7881                 5.6841
 IR Inten    --      7.6100                10.4359                21.4164

                     67                     68                     69
                      A                      A                      A
 Frequencies --   3060.1363              3072.4752              3094.3448
 Red. masses --      1.0915                 1.0995                 1.0997
 Frc consts  --      6.0222                 6.1152                 6.2038
 IR Inten    --     44.5710                 3.9337                 1.5323

                     70                     71                     72
                      A                      A                      A
 Frequencies --   3100.6642              3115.5602              3123.9577
 Red. masses --      1.0989                 1.1005                 1.1019
 Frc consts  --      6.2250                 6.2936                 6.3358
 IR Inten    --     57.8946                25.9592                21.4212

                     73                     74                     75
                      A                      A                      A
 Frequencies --   3126.5560              3129.9717              3765.1376
 Red. masses --      1.0995                 1.1021                 1.0663
 Frc consts  --      6.3325                 6.3612                 8.9060
 IR Inten    --     23.7167                18.9663                75.1611

 - Thermochemistry -
 -------------------
 Temperature   298.150 Kelvin.  Pressure   1.00000 Atm.
 Atom     1 has atomic number  6 and mass  12.00000

 Molecular mass:   160.10994 amu.
 Principal axes and moments of inertia in atomic units:
                           1         2         3
     Eigenvalues --  1072.678532751.695103469.25691
           X            0.99996  -0.00364  -0.00753
           Y            0.00365   0.99999   0.00032
           Z            0.00753  -0.00035   0.99997
 This molecule is an asymmetric top.
 Rotational symmetry number  1.
 Warning -- assumption of classical behavior for rotation
           may cause significant error
 Rotational temperatures (Kelvin)      0.08075     0.03148     0.02497
 Rotational constants (GHZ):           1.68246     0.65587     0.52021
 Zero-point vibrational energy     620052.9 (Joules/Mol)
                                  148.19621 (Kcal/Mol)
 Warning -- explicit consideration of  20 degrees of freedom as
           vibrations may cause significant error
 Vibrational temperatures:     41.00    75.68    91.63   144.87   187.83
          (Kelvin)            212.23   275.83   292.63   327.86   342.17
                              396.29   448.79   466.39   509.12   564.85
                              631.71   655.25   716.86   804.60   855.41
                              951.79  1166.12  1220.37  1251.39  1305.59
                             1340.54  1383.98  1393.59  1458.48  1484.02
                             1516.04  1584.70  1593.87  1615.42  1642.43
                             1688.33  1722.17  1760.01  1799.26  1839.83
                             1881.43  1930.41  1960.41  1976.30  2010.56
                             2017.06  2021.76  2038.50  2048.28  2089.76
                             2094.86  2142.31  2148.98  2149.39  2158.97
                             2162.03  2173.30  2180.66  2570.14  4298.02
                             4336.88  4359.84  4365.64  4373.67  4377.59
                             4391.91  4402.85  4420.61  4452.07  4461.16
                             4482.60  4494.68  4498.42  4503.33  5417.19

 Zero-point correction=                           0.236166 (Hartree/Particle)
 Thermal correction to Energy=                    0.249655
 Thermal correction to Enthalpy=                  0.250599
 Thermal correction to Gibbs Free Energy=         0.195560
 Sum of electronic and zero-point Energies=           -539.984820
 Sum of electronic and thermal Energies=              -539.971331
 Sum of electronic and thermal Enthalpies=            -539.970387
 Sum of electronic and thermal Free Energies=         -540.025426

                     E (Thermal)             CV                S
                      KCal/Mol        Cal/Mol-Kelvin    Cal/Mol-Kelvin
 Total                  156.661             48.368            115.839
 Electronic               0.000              0.000              0.000
 Translational            0.889              2.981             41.121
 Rotational               0.889              2.981             30.705
 Vibrational            154.883             42.406             44.013
 Vibration     1          0.593              1.984              5.931
 Vibration     2          0.596              1.977              4.717
 Vibration     3          0.597              1.972              4.340
 Vibration     4          0.604              1.949              3.441
 Vibration     5          0.612              1.923              2.938
 Vibration     6          0.617              1.905              2.704
 Vibration     7          0.634              1.851              2.211
 Vibration     8          0.639              1.835              2.102
 Vibration     9          0.651              1.799              1.896
 Vibration    10          0.656              1.783              1.819
 Vibration    11          0.677              1.719              1.562
 Vibration    12          0.700              1.651              1.352
 Vibration    13          0.709              1.627              1.289
 Vibration    14          0.730              1.567              1.149
 Vibration    15          0.760              1.486              0.990
 Vibration    16          0.799              1.385              0.830
 Vibration    17          0.814              1.349              0.780
 Vibration    18          0.854              1.254              0.663
 Vibration    19          0.915              1.120              0.525
 Vibration    20          0.952              1.043              0.459

 Optimization completed.
    -- Stationary point found.
 Normal termination of Gaussian 16 at Mon May 22 20:57:45 2023.
