 Gaussian 16, Revision A.03,
 Gaussian 16:  ES64L-G16RevA.03 25-Dec-2016

 -----------------------------
 # opt freq b3lyp/6-31g(2df,p)
 -----------------------------

 -------------------
 Title Card Required
 -------------------
 Symbolic Z-matrix:
 Charge =  0 Multiplicity = 1

 SCF Done:  E(RB3LYP) =  -715.659765022     A.U. after   14 cycles
 SCF Done:  E(RB3LYP) =  -715.670540562     A.U. after   12 cycles
 SCF Done:  E(RB3LYP) =  -715.672437315     A.U. after   11 cycles
 SCF Done:  E(RB3LYP) =  -715.673378469     A.U. after   11 cycles
 SCF Done:  E(RB3LYP) =  -715.674960742     A.U. after   14 cycles
 SCF Done:  E(RB3LYP) =  -715.677106483     A.U. after   13 cycles
 SCF Done:  E(RB3LYP) =  -715.677635371     A.U. after   11 cycles
 SCF Done:  E(RB3LYP) =  -715.677736054     A.U. after   10 cycles
 SCF Done:  E(RB3LYP) =  -715.677905378     A.U. after   12 cycles
 SCF Done:  E(RB3LYP) =  -715.677741499     A.U. after   13 cycles
 SCF Done:  E(RB3LYP) =  -715.684083527     A.U. after   11 cycles
 SCF Done:  E(RB3LYP) =  -715.684167866     A.U. after   11 cycles
 SCF Done:  E(RB3LYP) =  -715.684230500     A.U. after   10 cycles
 SCF Done:  E(RB3LYP) =  -715.684273245     A.U. after   10 cycles
 SCF Done:  E(RB3LYP) =  -715.684300584     A.U. after    9 cycles
 SCF Done:  E(RB3LYP) =  -715.684306289     A.U. after    9 cycles
 SCF Done:  E(RB3LYP) =  -715.684306779     A.U. after    8 cycles
 SCF Done:  E(RB3LYP) =  -715.684306968     A.U. after    7 cycles
 SCF Done:  E(RB3LYP) =  -715.684306997     A.U. after    7 cycles
 Optimization completed.
    -- Stationary point found.
 Normal termination of Gaussian 16 at Mon May 29 12:44:37 2023.

 ----------------------------------------------------------------------
 #N Geom=AllCheck Guess=TCheck SCRF=Check GenChk RB3LYP/6-31G(2df,p) Fr
 eq
 ----------------------------------------------------------------------

 Structure from the checkpoint file:  "CCCqdOrCCdCqCrCCqOrCCCCN.chk"
 -------------------
 Title Card Required
 -------------------
 Charge =  0 Multiplicity = 1

                         Standard orientation:
 ---------------------------------------------------------------------
 Center     Atomic      Atomic             Coordinates (Angstroms)
 Number     Number       Type             X           Y           Z
 ---------------------------------------------------------------------
      1          6           0       -4.953057   -2.781847    0.437430
      2          6           0       -4.987429   -1.361053   -0.120048
      3          6           0       -3.626484   -0.683721   -0.165161
      4          8           0       -2.607670   -1.283268    0.101245
      5          6           0       -3.621412    0.802449   -0.559397
      6          6           0       -2.235627    1.296142   -0.837082
      7          6           0       -1.400347    1.898943    0.016498
      8          6           0       -1.765133    2.357701    1.404446
      9          6           0        0.056414    2.038766   -0.352792
     10          6           0        0.860782    0.790784    0.104718
     11          8           0        0.375871   -0.388936   -0.505685
     12          6           0        2.340469    0.915087   -0.260590
     13          6           0        3.193969   -0.247057    0.257352
     14          6           0        4.665359   -0.142397   -0.153446
     15          6           0        5.516563   -1.305441    0.355818
     16          7           0        6.919594   -1.135635   -0.041585
     17          1           0       -5.951880   -3.226525    0.421575
     18          1           0       -4.588575   -2.789431    1.468090
     19          1           0       -4.281203   -3.412814   -0.149010
     20          1           0       -5.670481   -0.718818    0.452326
     21          1           0       -5.384818   -1.349711   -1.145226
     22          1           0       -4.110781    1.344784    0.259240
     23          1           0       -4.283086    0.926685   -1.426643
     24          1           0       -1.836336    1.006007   -1.806505
     25          1           0       -2.809623    2.175649    1.664506
     26          1           0       -1.574175    3.432909    1.512257
     27          1           0       -1.144162    1.857319    2.157796
     28          1           0        0.496354    2.932254    0.107308
     29          1           0        0.171910    2.128775   -1.438202
     30          1           0        0.780703    0.712603    1.204163
     31          1           0       -0.542172   -0.538868   -0.234324
     32          1           0        2.724134    1.865345    0.132683
     33          1           0        2.417118    0.969609   -1.354802
     34          1           0        2.764606   -1.185163   -0.110240
     35          1           0        3.124373   -0.285451    1.353929
     36          1           0        5.101403    0.795592    0.212509
     37          1           0        4.733926   -0.103516   -1.250713
     38          1           0        5.067521   -2.254948    0.013365
     39          1           0        5.482267   -1.325699    1.452729
     40          1           0        6.991233   -1.192619   -1.054292
     41          1           0        7.474569   -1.907028    0.317620
 ---------------------------------------------------------------------

 SCF Done:  E(RB3LYP) =  -715.684306997     A.U. after    1 cycles

 The electronic state is 1-A.
 Alpha  occ. eigenvalues --  -19.14165 -19.10778 -14.29554 -10.27760 -10.21760
 Alpha  occ. eigenvalues --  -10.20115 -10.19976 -10.19071 -10.18827 -10.18234
 Alpha  occ. eigenvalues --  -10.18109 -10.17535 -10.17268 -10.16474 -10.16337
 Alpha  occ. eigenvalues --  -10.16175  -1.05010  -0.99302  -0.86508  -0.82012
 Alpha  occ. eigenvalues --   -0.79039  -0.78065  -0.75607  -0.72665  -0.69025
 Alpha  occ. eigenvalues --   -0.67428  -0.63926  -0.61195  -0.56924  -0.56094
 Alpha  occ. eigenvalues --   -0.53461  -0.51628  -0.50248  -0.48078  -0.47865
 Alpha  occ. eigenvalues --   -0.47107  -0.45968  -0.45363  -0.45063  -0.42832
 Alpha  occ. eigenvalues --   -0.42628  -0.42217  -0.40974  -0.40015  -0.39654
 Alpha  occ. eigenvalues --   -0.38233  -0.38156  -0.37207  -0.36886  -0.36181
 Alpha  occ. eigenvalues --   -0.35660  -0.35164  -0.35080  -0.33668  -0.33443
 Alpha  occ. eigenvalues --   -0.32402  -0.31652  -0.30899  -0.29006  -0.25910
 Alpha  occ. eigenvalues --   -0.24938  -0.23254  -0.22416
 Alpha virt. eigenvalues --   -0.01873   0.01990   0.07347   0.09303   0.09574
 Alpha virt. eigenvalues --    0.11023   0.11536   0.11933   0.12573   0.13577
 Alpha virt. eigenvalues --    0.13972   0.14384   0.14675   0.15330   0.15904

 Mulliken charges:
               1
     1  C   -0.377626
     2  C   -0.276166
     3  C    0.382989
     4  O   -0.286470
     5  C   -0.381844
     6  C   -0.129584
     7  C    0.286254
     8  C   -0.488619
     9  C   -0.297376
    10  C    0.120903
    11  O   -0.447992
    12  C   -0.178387
    13  C   -0.183922
    14  C   -0.155808
    15  C   -0.147780
    16  N   -0.510721
    17  H    0.112262
    18  H    0.129904
    19  H    0.137386
    20  H    0.120452
    21  H    0.128137
    22  H    0.128507
    23  H    0.120105
    24  H    0.092529
    25  H    0.114428
    26  H    0.127688
    27  H    0.134508
    28  H    0.086572
    29  H    0.104026
    30  H    0.055746
    31  H    0.299729
    32  H    0.084731
    33  H    0.095742
    34  H    0.117286
    35  H    0.084017
    36  H    0.099288
    37  H    0.083965
    38  H    0.076910
    39  H    0.097689
    40  H    0.219314
    41  H    0.221229
 Sum of Mulliken charges =  -0.00000

 Dipole moment (field-independent basis, Debye):
    X=             -3.7731    Y=              0.5733    Z=              0.0468  Tot=              3.8167
 Quadrupole moment (field-independent basis, Debye-Ang):
   XX=            -87.5510   YY=            -98.8075   ZZ=            -97.0966
   XY=             -6.5630   XZ=             -1.7563   YZ=              1.8449

  Exact polarizability: 202.743   5.201 146.400   4.704   3.356 130.883
 Approx polarizability: 241.317   5.129 208.302  13.583   9.124 211.514

                      1                      2                      3
                      A                      A                      A
 Frequencies --     28.4883                31.0723                36.0806
 Red. masses --      4.4821                 3.5463                 2.5890
 Frc consts  --      0.0021                 0.0020                 0.0020
 IR Inten    --      0.9958                 0.8011                 0.7203

                      4                      5                      6
                      A                      A                      A
 Frequencies --     49.8536                53.2243                61.6042
 Red. masses --      2.8176                 1.9352                 2.7607
 Frc consts  --      0.0041                 0.0032                 0.0062
 IR Inten    --      1.1607                 4.2188                 0.4885

                      7                      8                      9
                      A                      A                      A
 Frequencies --     74.6441                90.7301                95.9915
 Red. masses --      3.9113                 3.9333                 3.2302
 Frc consts  --      0.0128                 0.0191                 0.0175
 IR Inten    --      1.2034                 2.0707                 0.1802

                     10                     11                     12
                      A                      A                      A
 Frequencies --    143.1010               147.8413               149.0672
 Red. masses --      1.9126                 1.4142                 1.5934
 Frc consts  --      0.0231                 0.0182                 0.0209
 IR Inten    --      1.4543                 0.5174                 0.0042

                     13                     14                     15
                      A                      A                      A
 Frequencies --    155.0200               195.9594               205.4683
 Red. masses --      3.6242                 1.1538                 3.7124
 Frc consts  --      0.0513                 0.0261                 0.0923
 IR Inten    --      0.1179                 0.2475                 1.2045

                     16                     17                     18
                      A                      A                      A
 Frequencies --    233.4008               250.2308               272.9831
 Red. masses --      2.9820                 1.8835                 1.9236
 Frc consts  --      0.0957                 0.0695                 0.0845
 IR Inten    --      7.0635                22.3271                14.6313

                     19                     20                     21
                      A                      A                      A
 Frequencies --    295.1030               337.0283               362.3889
 Red. masses --      2.5098                 3.2946                 4.3118
 Frc consts  --      0.1288                 0.2205                 0.3336
 IR Inten    --      3.4724                 3.3927                 3.8680

                     22                     23                     24
                      A                      A                      A
 Frequencies --    386.6909               413.5909               441.1985
 Red. masses --      2.6690                 3.0635                 3.1697
 Frc consts  --      0.2351                 0.3088                 0.3635
 IR Inten    --      3.6036                 1.7846                11.1768

                     25                     26                     27
                      A                      A                      A
 Frequencies --    460.5446               489.8410               496.6242
 Red. masses --      1.8444                 2.3844                 2.5973
 Frc consts  --      0.2305                 0.3371                 0.3774
 IR Inten    --      0.1088                 0.4565                13.7741

                     28                     29                     30
                      A                      A                      A
 Frequencies --    551.0489               559.1092               602.4643
 Red. masses --      1.1002                 2.6176                 2.2390
 Frc consts  --      0.1968                 0.4821                 0.4788
 IR Inten    --     90.0509                 6.0887                 1.0862

                     31                     32                     33
                      A                      A                      A
 Frequencies --    653.1686               738.7733               742.9222
 Red. masses --      3.1760                 1.5053                 1.1075
 Frc consts  --      0.7983                 0.4841                 0.3602
 IR Inten    --      6.5223                 3.0619                 0.6806

                     34                     35                     36
                      A                      A                      A
 Frequencies --    790.1571               799.1293               809.7407
 Red. masses --      1.2245                 2.3112                 2.7922
 Frc consts  --      0.4504                 0.8696                 1.0787
 IR Inten    --      6.9801                 2.5093                 2.4532

                     37                     38                     39
                      A                      A                      A
 Frequencies --    857.0507               869.1532               902.8358
 Red. masses --      1.5559                 2.0214                 1.6383
 Frc consts  --      0.6734                 0.8997                 0.7868
 IR Inten    --     55.6194                39.7386                10.8003

                     40                     41                     42
                      A                      A                      A
 Frequencies --    914.5394               921.7494               959.7492
 Red. masses --      1.5441                 1.6491                 2.1727
 Frc consts  --      0.7609                 0.8255                 1.1791
 IR Inten    --     48.9119                 2.4309                 0.4866

                     43                     44                     45
                      A                      A                      A
 Frequencies --    978.3719               991.0420              1005.3468
 Red. masses --      2.9363                 1.9712                 2.1089
 Frc consts  --      1.6560                 1.1407                 1.2559
 IR Inten    --     13.9212                 9.1278                 1.3187

                     46                     47                     48
                      A                      A                      A
 Frequencies --   1013.3173              1031.1977              1049.4598
 Red. masses --      1.8506                 1.9880                 2.2818
 Frc consts  --      1.1196                 1.2455                 1.4807
 IR Inten    --      4.8500                15.2647                 9.2337

                     49                     50                     51
                      A                      A                      A
 Frequencies --   1054.6324              1062.0965              1077.2498
 Red. masses --      1.6122                 1.9494                 1.7546
 Frc consts  --      1.0565                 1.2956                 1.1997
 IR Inten    --      9.6802                 1.1336                13.2433

                     52                     53                     54
                      A                      A                      A
 Frequencies --   1086.0072              1098.6708              1110.2588
 Red. masses --      2.6008                 2.4490                 1.9378
 Frc consts  --      1.8073                 1.7417                 1.4073
 IR Inten    --     14.8289                10.1891                16.4845

                     55                     56                     57
                      A                      A                      A
 Frequencies --   1126.6564              1148.3663              1153.1936
 Red. masses --      2.2823                 2.0970                 1.4847
 Frc consts  --      1.7069                 1.6293                 1.1633
 IR Inten    --     56.3303                15.0376                 7.0823

                     58                     59                     60
                      A                      A                      A
 Frequencies --   1181.8867              1220.9406              1233.1453
 Red. masses --      1.6873                 1.2765                 1.3312
 Frc consts  --      1.3886                 1.1212                 1.1927
 IR Inten    --      2.1169                 0.2067                 6.4445

                     61                     62                     63
                      A                      A                      A
 Frequencies --   1245.0366              1261.4317              1287.1684
 Red. masses --      1.5722                 1.3395                 1.2282
 Frc consts  --      1.4359                 1.2558                 1.1989
 IR Inten    --      4.7564                 2.2489                 1.7220

                     64                     65                     66
                      A                      A                      A
 Frequencies --   1293.0007              1308.9958              1315.6378
 Red. masses --      1.3594                 1.3133                 1.5207
 Frc consts  --      1.3391                 1.3258                 1.5508
 IR Inten    --      9.6508                 4.4777                24.3011

                     67                     68                     69
                      A                      A                      A
 Frequencies --   1319.1049              1325.6990              1338.4839
 Red. masses --      1.1860                 1.1078                 1.1238
 Frc consts  --      1.2159                 1.1471                 1.1863
 IR Inten    --      9.7499                 2.9917                 8.7730

                     70                     71                     72
                      A                      A                      A
 Frequencies --   1355.6681              1371.4589              1376.9096
 Red. masses --      1.3270                 1.8353                 1.3135
 Frc consts  --      1.4369                 2.0339                 1.4672
 IR Inten    --     11.0459                19.5813                18.9250

                     73                     74                     75
                      A                      A                      A
 Frequencies --   1390.1160              1399.9816              1414.3314
 Red. masses --      1.2554                 1.5311                 1.2244
 Frc consts  --      1.4293                 1.7680                 1.4431
 IR Inten    --      0.5943                 0.7696                 4.3536

                     76                     77                     78
                      A                      A                      A
 Frequencies --   1419.8846              1430.7550              1442.5104
 Red. masses --      1.4121                 1.4741                 1.5202
 Frc consts  --      1.6773                 1.7779                 1.8637
 IR Inten    --      5.2255                21.9184                11.0685

                     79                     80                     81
                      A                      A                      A
 Frequencies --   1445.5211              1456.5682              1469.6357
 Red. masses --      1.0944                 1.1168                 1.0903
 Frc consts  --      1.3473                 1.3960                 1.3874
 IR Inten    --      2.6788                12.8914                 0.3085

                     82                     83                     84
                      A                      A                      A
 Frequencies --   1477.6346              1483.1412              1488.0040
 Red. masses --      1.0765                 1.0642                 1.0770
 Frc consts  --      1.3848                 1.3793                 1.4050
 IR Inten    --      1.0248                 5.4590                 0.0671

                     85                     86                     87
                      A                      A                      A
 Frequencies --   1492.9128              1493.0819              1498.5329
 Red. masses --      1.0456                 1.0675                 1.0507
 Frc consts  --      1.3731                 1.4022                 1.3902
 IR Inten    --      6.3951                 6.4137                 8.3669

                     88                     89                     90
                      A                      A                      A
 Frequencies --   1503.5900              1520.5099              1658.2396
 Red. masses --      1.0920                 1.0934                 1.0885
 Frc consts  --      1.4546                 1.4894                 1.7635
 IR Inten    --      1.8427                 1.2745                21.5074

                     91                     92                     93
                      A                      A                      A
 Frequencies --   1734.5211              1793.0596              2931.2420
 Red. masses --      6.9072                10.6535                 1.0811
 Frc consts  --     12.2437                20.1804                 5.4728
 IR Inten    --      8.3449               108.7206                43.0857

                     94                     95                     96
                      A                      A                      A
 Frequencies --   2937.0351              2998.0761              3007.6195
 Red. masses --      1.0724                 1.0660                 1.0647
 Frc consts  --      5.4504                 5.6453                 5.6745
 IR Inten    --     69.1468                 4.4827                10.7986

                     97                     98                     99
                      A                      A                      A
 Frequencies --   3013.8307              3016.0592              3021.4319
 Red. masses --      1.0616                 1.0620                 1.0440
 Frc consts  --      5.6811                 5.6920                 5.6155
 IR Inten    --     13.4246                26.1339                25.7612

                    100                    101                    102
                      A                      A                      A
 Frequencies --   3026.5837              3028.4477              3033.4597
 Red. masses --      1.0596                 1.0588                 1.0832
 Frc consts  --      5.7187                 5.7212                 5.8728
 IR Inten    --     64.0874                20.9284                36.5047

                    103                    104                    105
                      A                      A                      A
 Frequencies --   3042.3612              3050.5111              3051.9609
 Red. masses --      1.0967                 1.0930                 1.0357
 Frc consts  --      5.9806                 5.9928                 5.6840
 IR Inten    --      5.3662                37.9369                21.7238

                    106                    107                    108
                      A                      A                      A
 Frequencies --   3053.8481              3060.7121              3067.2367
 Red. masses --      1.1009                 1.0974                 1.0981
 Frc consts  --      6.0492                 6.0568                 6.0869
 IR Inten    --      3.9477                10.2855                16.8371

                    109                    110                    111
                      A                      A                      A
 Frequencies --   3078.8577              3084.5302              3121.7065
 Red. masses --      1.1018                 1.0994                 1.1021
 Frc consts  --      6.1534                 6.1628                 6.3279
 IR Inten    --      6.8246                82.0700                24.1308

                    112                    113                    114
                      A                      A                      A
 Frequencies --   3122.8148              3130.6605              3148.0428
 Red. masses --      1.0961                 1.1016                 1.0878
 Frc consts  --      6.2976                 6.3612                 6.3514
 IR Inten    --     30.2223                17.4423                13.4774

                    115                    116                    117
                      A                      A                      A
 Frequencies --   3479.7951              3556.9595              3708.6377
 Red. masses --      1.0496                 1.0915                 1.0669
 Frc consts  --      7.4879                 8.1368                 8.6456
 IR Inten    --      2.0175                 0.4943               254.5828

 - Thermochemistry -
 -------------------
 Temperature   298.150 Kelvin.  Pressure   1.00000 Atm.
 Atom     1 has atomic number  6 and mass  12.00000

 Molecular mass:   227.18853 amu.
 Principal axes and moments of inertia in atomic units:
                           1         2         3
     Eigenvalues --  2008.54298********************
           X            1.00000   0.00048  -0.00200
           Y           -0.00047   0.99999   0.00543
           Z            0.00200  -0.00543   0.99998
 This molecule is an asymmetric top.
 Rotational symmetry number  1.
 Warning -- assumption of classical behavior for rotation
           may cause significant error
 Rotational temperatures (Kelvin)      0.04312     0.00772     0.00684
 Rotational constants (GHZ):           0.89853     0.16077     0.14247
 Zero-point vibrational energy     962005.4 (Joules/Mol)
                                  229.92482 (Kcal/Mol)
 Warning -- explicit consideration of  30 degrees of freedom as
           vibrations may cause significant error
 Vibrational temperatures:     40.99    44.71    51.91    71.73    76.58
          (Kelvin)             88.63   107.40   130.54   138.11   205.89
                              212.71   214.47   223.04   281.94   295.62
                              335.81   360.03   392.76   424.59   484.91
                              521.40   556.36   595.07   634.79   662.62
                              704.77   714.53   792.84   804.43   866.81
                              939.76  1062.93  1068.90  1136.86  1149.77
                             1165.04  1233.10  1250.52  1298.98  1315.82
                             1326.19  1380.87  1407.66  1425.89  1446.47
                             1457.94  1483.66  1509.94  1517.38  1528.12
                             1549.92  1562.52  1580.74  1597.41  1621.01
                             1652.24  1659.19  1700.47  1756.66  1774.22
                             1791.33  1814.92  1851.95  1860.34  1883.35
                             1892.91  1897.90  1907.39  1925.78  1950.50
                             1973.22  1981.07  2000.07  2014.26  2034.91
                             2042.90  2058.54  2075.45  2079.78  2095.68
                             2114.48  2125.99  2133.91  2140.91  2147.97
                             2148.21  2156.05  2163.33  2187.67  2385.84
                             2495.59  2579.81  4217.40  4225.74  4313.56
                             4327.29  4336.23  4339.44  4347.17  4354.58
                             4357.26  4364.47  4377.28  4389.01  4391.09
                             4393.81  4403.68  4413.07  4429.79  4437.95
                             4491.44  4493.03  4504.32  4529.33  5006.65
                             5117.67  5335.90

 Zero-point correction=                           0.366409 (Hartree/Particle)
 Thermal correction to Energy=                    0.386655
 Thermal correction to Enthalpy=                  0.387599
 Thermal correction to Gibbs Free Energy=         0.314945
 Sum of electronic and zero-point Energies=           -715.317898
 Sum of electronic and thermal Energies=              -715.297652
 Sum of electronic and thermal Enthalpies=            -715.296708
 Sum of electronic and thermal Free Energies=         -715.369362

                     E (Thermal)             CV                S
                      KCal/Mol        Cal/Mol-Kelvin    Cal/Mol-Kelvin
 Total                  242.629             72.519            152.914
 Electronic               0.000              0.000              0.000
 Translational            0.889              2.981             42.164
 Rotational               0.889              2.981             34.012
 Vibrational            240.852             66.557             76.737
 Vibration     1          0.593              1.984              5.932
 Vibration     2          0.594              1.983              5.760
 Vibration     3          0.594              1.982              5.463
 Vibration     4          0.595              1.978              4.823
 Vibration     5          0.596              1.976              4.694
 Vibration     6          0.597              1.973              4.405
 Vibration     7          0.599              1.966              4.027
 Vibration     8          0.602              1.956              3.644
 Vibration     9          0.603              1.952              3.534
 Vibration    10          0.616              1.910              2.762
 Vibration    11          0.617              1.905              2.700
 Vibration    12          0.618              1.904              2.684
 Vibration    13          0.620              1.897              2.610
 Vibration    14          0.636              1.846              2.171
 Vibration    15          0.640              1.832              2.084
 Vibration    16          0.654              1.790              1.853
 Vibration    17          0.663              1.762              1.729
 Vibration    18          0.676              1.723              1.577
 Vibration    19          0.689              1.683              1.445
 Vibration    20          0.718              1.602              1.226
 Vibration    21          0.736              1.550              1.112
 Vibration    22          0.755              1.499              1.013
 Vibration    23          0.777              1.441              0.914
 Vibration    24          0.801              1.380              0.823
 Vibration    25          0.818              1.338              0.765
 Vibration    26          0.846              1.273              0.684
 Vibration    27          0.852              1.258              0.667
 Vibration    28          0.906              1.137              0.542
 Vibration    29          0.915              1.120              0.526
 Vibration    30          0.961              1.027              0.445

                           ! Non-Optimized Parameters !
 Normal termination of Gaussian 16 at Mon May 29 15:45:41 2023.
