 Gaussian 16, Revision A.03,
 Gaussian 16:  ES64L-G16RevA.03 25-Dec-2016

 -----------------------------
 # opt freq b3lyp/6-31g(2df,p)
 -----------------------------

 -------------------
 Title Card Required
 -------------------
 Symbolic Z-matrix:
 Charge =  0 Multiplicity = 1

 SCF Done:  E(RB3LYP) =  -507.637341470     A.U. after   12 cycles
 SCF Done:  E(RB3LYP) =  -507.640480647     A.U. after   10 cycles
 SCF Done:  E(RB3LYP) =  -507.641749566     A.U. after   10 cycles
 SCF Done:  E(RB3LYP) =  -507.644470993     A.U. after   10 cycles
 SCF Done:  E(RB3LYP) =  -507.645851772     A.U. after   10 cycles
 SCF Done:  E(RB3LYP) =  -507.646704970     A.U. after   10 cycles
 SCF Done:  E(RB3LYP) =  -507.646908129     A.U. after   10 cycles
 SCF Done:  E(RB3LYP) =  -507.647115915     A.U. after    9 cycles
 SCF Done:  E(RB3LYP) =  -507.647139984     A.U. after    9 cycles
 SCF Done:  E(RB3LYP) =  -507.647173779     A.U. after    9 cycles
 SCF Done:  E(RB3LYP) =  -507.647182638     A.U. after    7 cycles
 SCF Done:  E(RB3LYP) =  -507.647191954     A.U. after    8 cycles
 SCF Done:  E(RB3LYP) =  -507.647193278     A.U. after    6 cycles
 SCF Done:  E(RB3LYP) =  -507.647193600     A.U. after    6 cycles
 Optimization completed.
    -- Stationary point found.
 Normal termination of Gaussian 16 at Tue May 23 21:25:31 2023.

 ----------------------------------------------------------------------
 #N Geom=AllCheck Guess=TCheck SCRF=Check GenChk RB3LYP/6-31G(2df,p) Fr
 eq
 ----------------------------------------------------------------------

 Structure from the checkpoint file:  "CCCqCqCrCrC1CC1COC.chk"
 -------------------
 Title Card Required
 -------------------
 Charge =  0 Multiplicity = 1

                         Standard orientation:
 ---------------------------------------------------------------------
 Center     Atomic      Atomic             Coordinates (Angstroms)
 Number     Number       Type             X           Y           Z
 ---------------------------------------------------------------------
      1          6           0       -3.682632   -1.158504   -0.258636
      2          6           0       -2.479036   -0.904912    0.657599
      3          6           0       -1.288784   -0.164950   -0.020108
      4          6           0       -1.269423    1.355214    0.300908
      5          6           0       -0.126679    2.097283   -0.409100
      6          6           0       -2.601509    2.052002   -0.018746
      7          6           0        0.022631   -0.838763    0.369413
      8          6           0        0.369936   -2.200580   -0.183208
      9          6           0        1.180865   -0.992479   -0.584350
     10          6           0        2.597554   -0.866766   -0.095296
     11          8           0        2.975495    0.496515   -0.089305
     12          6           0        4.300466    0.697930    0.337390
     13          1           0       -4.481876   -1.681715    0.277073
     14          1           0       -3.395630   -1.781561   -1.113351
     15          1           0       -4.101932   -0.230639   -0.657507
     16          1           0       -2.124882   -1.872977    1.027811
     17          1           0       -2.800520   -0.347591    1.546510
     18          1           0       -1.401191   -0.273789   -1.110109
     19          1           0       -1.104021    1.443535    1.386084
     20          1           0       -0.233468    2.020304   -1.498806
     21          1           0        0.858248    1.711973   -0.141605
     22          1           0       -0.154148    3.163241   -0.156729
     23          1           0       -2.837341    1.978002   -1.087422
     24          1           0       -2.539875    3.117225    0.228065
     25          1           0       -3.442697    1.635166    0.541009
     26          1           0        0.303854   -0.680773    1.410159
     27          1           0       -0.290260   -2.633970   -0.927618
     28          1           0        0.826950   -2.929865    0.478323
     29          1           0        1.027828   -0.623002   -1.594639
     30          1           0        3.283129   -1.441435   -0.742765
     31          1           0        2.685149   -1.292271    0.920117
     32          1           0        4.498829    1.771705    0.298473
     33          1           0        5.022500    0.178863   -0.313262
     34          1           0        4.457060    0.344597    1.369427
 ---------------------------------------------------------------------

 SCF Done:  E(RB3LYP) =  -507.647193600     A.U. after    1 cycles

 The electronic state is 1-A.
 Alpha  occ. eigenvalues --  -19.13835 -10.22640 -10.22275 -10.18426 -10.18207
 Alpha  occ. eigenvalues --  -10.17965 -10.17843 -10.17606 -10.17000 -10.16686
 Alpha  occ. eigenvalues --  -10.16259 -10.15233  -1.03087  -0.86172  -0.79971
 Alpha  occ. eigenvalues --   -0.74971  -0.72503  -0.68153  -0.66485  -0.64205
 Alpha  occ. eigenvalues --   -0.59532  -0.57527  -0.56574  -0.54863  -0.48844
 Alpha  occ. eigenvalues --   -0.47811  -0.47544  -0.45551  -0.44702  -0.43284
 Alpha  occ. eigenvalues --   -0.41854  -0.40641  -0.39472  -0.38913  -0.38384
 Alpha  occ. eigenvalues --   -0.37511  -0.36429  -0.35311  -0.35175  -0.33683
 Alpha  occ. eigenvalues --   -0.33164  -0.32011  -0.30973  -0.30649  -0.30398
 Alpha  occ. eigenvalues --   -0.27612  -0.26590  -0.25243
 Alpha virt. eigenvalues --    0.08683   0.09305   0.09621   0.10382   0.11801
 Alpha virt. eigenvalues --    0.12885   0.13181   0.13944   0.14544   0.15227
 Alpha virt. eigenvalues --    0.15448   0.16304   0.16720   0.17105   0.17966

 Mulliken charges:
               1
     1  C   -0.381903
     2  C   -0.191108
     3  C    0.019893
     4  C    0.039797
     5  C   -0.415660
     6  C   -0.398729
     7  C    0.010701
     8  C   -0.326459
     9  C   -0.037996
    10  C   -0.073973
    11  O   -0.219844
    12  C   -0.225777
    13  H    0.107599
    14  H    0.110222
    15  H    0.118203
    16  H    0.095985
    17  H    0.092201
    18  H    0.057624
    19  H    0.064741
    20  H    0.099497
    21  H    0.152663
    22  H    0.097467
    23  H    0.108646
    24  H    0.105867
    25  H    0.112495
    26  H    0.078229
    27  H    0.109147
    28  H    0.104846
    29  H    0.090005
    30  H    0.085176
    31  H    0.077879
    32  H    0.127631
    33  H    0.102913
    34  H    0.102021
 Sum of Mulliken charges =  -0.00000

 Dipole moment (field-independent basis, Debye):
    X=              0.8955    Y=             -0.8194    Z=              0.4013  Tot=              1.2784
 Quadrupole moment (field-independent basis, Debye-Ang):
   XX=            -73.2047   YY=            -78.2382   ZZ=            -76.9120
   XY=             -0.8375   XZ=              1.5006   YZ=              0.5712

  Exact polarizability: 145.119   2.771 125.403  -0.486   0.412 101.276
 Approx polarizability: 172.297   1.686 172.174  -1.530   0.844 164.271

                      1                      2                      3
                      A                      A                      A
 Frequencies --     38.0899                55.3978                79.2847
 Red. masses --      3.1938                 2.5609                 3.4294
 Frc consts  --      0.0027                 0.0046                 0.0127
 IR Inten    --      0.0078                 0.1749                 0.5298

                      4                      5                      6
                      A                      A                      A
 Frequencies --     87.1495                98.2523               122.4404
 Red. masses --      2.3841                 2.5773                 2.2021
 Frc consts  --      0.0107                 0.0147                 0.0195
 IR Inten    --      3.4406                 0.1245                 0.0880

                      7                      8                      9
                      A                      A                      A
 Frequencies --    164.7797               198.9318               202.4059
 Red. masses --      2.7940                 2.3316                 1.1898
 Frc consts  --      0.0447                 0.0544                 0.0287
 IR Inten    --      0.2847                 0.3643                 0.0620

                     10                     11                     12
                      A                      A                      A
 Frequencies --    232.0907               253.9578               276.9610
 Red. masses --      1.2949                 1.2214                 1.4171
 Frc consts  --      0.0411                 0.0464                 0.0640
 IR Inten    --      2.2326                 0.2907                 0.0199

                     13                     14                     15
                      A                      A                      A
 Frequencies --    289.2136               294.1033               315.2151
 Red. masses --      2.0504                 1.8185                 2.3292
 Frc consts  --      0.1010                 0.0927                 0.1364
 IR Inten    --      0.2144                 0.2306                 0.1321

                     16                     17                     18
                      A                      A                      A
 Frequencies --    357.3537               392.0963               407.6924
 Red. masses --      2.3312                 2.6075                 2.6248
 Frc consts  --      0.1754                 0.2362                 0.2570
 IR Inten    --      0.0772                 0.4049                 1.2331

                     19                     20                     21
                      A                      A                      A
 Frequencies --    433.1278               470.4958               485.5452
 Red. masses --      2.8949                 2.2436                 2.4617
 Frc consts  --      0.3200                 0.2926                 0.3419
 IR Inten    --      1.3712                 0.2451                 1.1783

                     22                     23                     24
                      A                      A                      A
 Frequencies --    527.0783               756.4257               820.4184
 Red. masses --      2.7242                 1.3294                 1.6600
 Frc consts  --      0.4459                 0.4482                 0.6583
 IR Inten    --      0.1910                 3.0412                 1.2839

                     25                     26                     27
                      A                      A                      A
 Frequencies --    826.3829               866.9419               886.3612
 Red. masses --      1.5244                 2.0013                 2.3076
 Frc consts  --      0.6134                 0.8862                 1.0682
 IR Inten    --      2.0620                 1.3872                 3.0619

                     28                     29                     30
                      A                      A                      A
 Frequencies --    907.2517               931.8668               945.3330
 Red. masses --      1.6539                 1.1756                 2.7107
 Frc consts  --      0.8021                 0.6015                 1.4273
 IR Inten    --      3.1150                 1.0033                 7.9869

                     31                     32                     33
                      A                      A                      A
 Frequencies --    964.0706               970.6315               992.4434
 Red. masses --      1.8768                 1.5673                 2.4049
 Frc consts  --      1.0277                 0.8700                 1.3956
 IR Inten    --     13.5267                 3.4452                11.9319

                     34                     35                     36
                      A                      A                      A
 Frequencies --   1025.6924              1038.5451              1051.5461
 Red. masses --      2.4070                 2.1497                 1.3826
 Frc consts  --      1.4920                 1.3661                 0.9007
 IR Inten    --      4.3712                 1.9713                 3.6793

                     37                     38                     39
                      A                      A                      A
 Frequencies --   1063.5015              1077.5200              1090.6745
 Red. masses --      1.5088                 1.7224                 2.1888
 Frc consts  --      1.0054                 1.1782                 1.5341
 IR Inten    --      3.3607                 0.3493                 0.5438

                     40                     41                     42
                      A                      A                      A
 Frequencies --   1123.7055              1138.2429              1155.3504
 Red. masses --      1.1424                 2.1858                 4.3915
 Frc consts  --      0.8499                 1.6685                 3.4538
 IR Inten    --      6.9026                15.2530               148.3301

                     43                     44                     45
                      A                      A                      A
 Frequencies --   1176.1511              1180.1953              1194.6692
 Red. masses --      1.4964                 1.8404                 1.7975
 Frc consts  --      1.2197                 1.5104                 1.5115
 IR Inten    --     13.6906                 3.1183                 1.4447

                     46                     47                     48
                      A                      A                      A
 Frequencies --   1196.9667              1202.4771              1223.4266
 Red. masses --      1.6777                 2.1152                 1.6577
 Frc consts  --      1.4162                 1.8020                 1.4618
 IR Inten    --     14.3851                 8.5223                 7.2555

                     49                     50                     51
                      A                      A                      A
 Frequencies --   1232.7612              1262.1533              1275.3985
 Red. masses --      1.6214                 1.2541                 1.3290
 Frc consts  --      1.4517                 1.1771                 1.2737
 IR Inten    --     20.5357                 1.2024                 3.2811

                     52                     53                     54
                      A                      A                      A
 Frequencies --   1291.0502              1318.4259              1346.8808
 Red. masses --      1.2551                 1.1626                 1.3550
 Frc consts  --      1.2326                 1.1907                 1.4483
 IR Inten    --     10.7293                 2.2737                 1.0304

                     55                     56                     57
                      A                      A                      A
 Frequencies --   1354.6193              1369.5911              1383.6295
 Red. masses --      1.3058                 1.3772                 1.3756
 Frc consts  --      1.4118                 1.5221                 1.5516
 IR Inten    --      3.6131                 3.0863                 7.4430

                     58                     59                     60
                      A                      A                      A
 Frequencies --   1402.4966              1407.4820              1411.5930
 Red. masses --      1.2452                 1.3780                 1.2353
 Frc consts  --      1.4431                 1.6084                 1.4502
 IR Inten    --      0.8631                17.9450                 6.6926

                     61                     62                     63
                      A                      A                      A
 Frequencies --   1426.4867              1449.5296              1480.9039
 Red. masses --      1.2210                 1.4577                 1.1682
 Frc consts  --      1.4639                 1.8046                 1.5095
 IR Inten    --      3.4291                19.8222                 0.4815

                     64                     65                     66
                      A                      A                      A
 Frequencies --   1485.2194              1486.7540              1490.9102
 Red. masses --      1.0505                 1.0540                 1.0468
 Frc consts  --      1.3653                 1.3727                 1.3709
 IR Inten    --      4.5108                 0.7180                 0.9493

                     67                     68                     69
                      A                      A                      A
 Frequencies --   1497.6403              1499.8994              1503.1487
 Red. masses --      1.3929                 1.1063                 1.0843
 Frc consts  --      1.8407                 1.4664                 1.4434
 IR Inten    --      0.1351                 3.9920                 5.0921

                     70                     71                     72
                      A                      A                      A
 Frequencies --   1503.5900              1509.1957              1511.1150
 Red. masses --      1.0546                 1.0546                 1.0696
 Frc consts  --      1.4048                 1.4152                 1.4390
 IR Inten    --      3.8213                 0.6344                 7.0148

                     73                     74                     75
                      A                      A                      A
 Frequencies --   1522.7086              1525.5834              2939.1350
 Red. masses --      1.0594                 1.0912                 1.0533
 Frc consts  --      1.4472                 1.4964                 5.3609
 IR Inten    --      8.0247                 4.2467                39.2108

                     76                     77                     78
                      A                      A                      A
 Frequencies --   2966.0342              2967.3326              2973.7421
 Red. masses --      1.1037                 1.0392                 1.0795
 Frc consts  --      5.7208                 5.3910                 5.6246
 IR Inten    --     61.1044                98.0022                 1.0048

                     79                     80                     81
                      A                      A                      A
 Frequencies --   2987.4019              3008.8240              3020.8478
 Red. masses --      1.0839                 1.1029                 1.0407
 Frc consts  --      5.6994                 5.8828                 5.5954
 IR Inten    --     27.8883                55.3407                16.9526

                     82                     83                     84
                      A                      A                      A
 Frequencies --   3026.1188              3027.4395              3031.5024
 Red. masses --      1.0613                 1.0406                 1.0377
 Frc consts  --      5.7262                 5.6191                 5.6185
 IR Inten    --     32.5538                26.4698                40.4934

                     85                     86                     87
                      A                      A                      A
 Frequencies --   3060.1958              3077.4024              3088.5088
 Red. masses --      1.0980                 1.0993                 1.0994
 Frc consts  --      6.0582                 6.1336                 6.1790
 IR Inten    --     16.3099                13.6968                57.9722

                     88                     89                     90
                      A                      A                      A
 Frequencies --   3092.4277              3108.9250              3109.8280
 Red. masses --      1.1011                 1.0992                 1.0860
 Frc consts  --      6.2039                 6.2594                 6.1878
 IR Inten    --     44.8953                48.6539                21.7453

                     91                     92                     93
                      A                      A                      A
 Frequencies --   3113.9348              3114.8826              3123.3247
 Red. masses --      1.0955                 1.0988                 1.0558
 Frc consts  --      6.2589                 6.2813                 6.0680
 IR Inten    --     27.9718                15.7663                16.2281

                     94                     95                     96
                      A                      A                      A
 Frequencies --   3142.1439              3146.7717              3205.2255
 Red. masses --      1.0966                 1.0881                 1.1157
 Frc consts  --      6.3789                 6.3481                 6.7530
 IR Inten    --      3.3207                10.8034                13.0751

 - Thermochemistry -
 -------------------
 Temperature   298.150 Kelvin.  Pressure   1.00000 Atm.
 Atom     1 has atomic number  6 and mass  12.00000

 Molecular mass:   170.16707 amu.
 Principal axes and moments of inertia in atomic units:
                           1         2         3
     Eigenvalues --  1271.693893699.156344697.84857
           X            0.99999  -0.00103   0.00517
           Y            0.00105   0.99999  -0.00323
           Z           -0.00516   0.00324   0.99998
 This molecule is an asymmetric top.
 Rotational symmetry number  1.
 Warning -- assumption of classical behavior for rotation
           may cause significant error
 Rotational temperatures (Kelvin)      0.06811     0.02341     0.01844
 Rotational constants (GHZ):           1.41916     0.48788     0.38416
 Zero-point vibrational energy     818659.4 (Joules/Mol)
                                  195.66430 (Kcal/Mol)
 Warning -- explicit consideration of  22 degrees of freedom as
           vibrations may cause significant error
 Vibrational temperatures:     54.80    79.71   114.07   125.39   141.36
          (Kelvin)            176.16   237.08   286.22   291.22   333.93
                              365.39   398.49   416.11   423.15   453.52
                              514.15   564.14   586.58   623.17   676.94
                              698.59   758.35  1088.33  1180.40  1188.98
                             1247.34  1275.28  1305.33  1340.75  1360.12
                             1387.08  1396.52  1427.90  1475.74  1494.23
                             1512.94  1530.14  1550.31  1569.24  1616.76
                             1637.68  1662.29  1692.22  1698.04  1718.86
                             1722.17  1730.10  1760.24  1773.67  1815.96
                             1835.01  1857.53  1896.92  1937.86  1949.00
                             1970.54  1990.73  2017.88  2025.05  2030.97
                             2052.40  2085.55  2130.69  2136.90  2139.11
                             2145.09  2154.77  2158.02  2162.70  2163.33
                             2171.40  2174.16  2190.84  2194.97  4228.76
                             4267.46  4269.33  4278.55  4298.20  4329.03
                             4346.33  4353.91  4355.81  4361.66  4402.94
                             4427.70  4443.68  4449.31  4473.05  4474.35
                             4480.26  4481.62  4493.77  4520.84  4527.50
                             4611.60

 Zero-point correction=                           0.311811 (Hartree/Particle)
 Thermal correction to Energy=                    0.326828
 Thermal correction to Enthalpy=                  0.327772
 Thermal correction to Gibbs Free Energy=         0.269843
 Sum of electronic and zero-point Energies=           -507.335383
 Sum of electronic and thermal Energies=              -507.320366
 Sum of electronic and thermal Enthalpies=            -507.319422
 Sum of electronic and thermal Free Energies=         -507.377351

                     E (Thermal)             CV                S
                      KCal/Mol        Cal/Mol-Kelvin    Cal/Mol-Kelvin
 Total                  205.087             55.461            121.922
 Electronic               0.000              0.000              0.000
 Translational            0.889              2.981             41.303
 Rotational               0.889              2.981             31.469
 Vibrational            203.310             49.499             49.150
 Vibration     1          0.594              1.982              5.356
 Vibration     2          0.596              1.975              4.615
 Vibration     3          0.600              1.963              3.909
 Vibration     4          0.601              1.958              3.723
 Vibration     5          0.604              1.950              3.489
 Vibration     6          0.610              1.930              3.061
 Vibration     7          0.623              1.886              2.494
 Vibration     8          0.637              1.841              2.143
 Vibration     9          0.639              1.836              2.111
 Vibration    10          0.653              1.792              1.863
 Vibration    11          0.665              1.756              1.703
 Vibration    12          0.678              1.716              1.552
 Vibration    13          0.686              1.694              1.479
 Vibration    14          0.689              1.685              1.450
 Vibration    15          0.703              1.645              1.335
 Vibration    16          0.733              1.560              1.134
 Vibration    17          0.760              1.487              0.992
 Vibration    18          0.772              1.454              0.935
 Vibration    19          0.794              1.398              0.848
 Vibration    20          0.828              1.316              0.736
 Vibration    21          0.842              1.282              0.695
 Vibration    22          0.882              1.190              0.594

 Optimization completed.
    -- Stationary point found.
 Normal termination of Gaussian 16 at Tue May 23 23:02:22 2023.
