 Gaussian 16, Revision A.03,
 Gaussian 16:  ES64L-G16RevA.03 25-Dec-2016

 -----------------------------
 # opt freq b3lyp/6-31g(2df,p)
 -----------------------------

 -------------------
 Title Card Required
 -------------------
 Symbolic Z-matrix:
 Charge =  0 Multiplicity = 1

 SCF Done:  E(RB3LYP) =  -355.037376838     A.U. after   12 cycles
 SCF Done:  E(RB3LYP) =  -355.039242828     A.U. after   10 cycles
 SCF Done:  E(RB3LYP) =  -355.040592899     A.U. after   10 cycles
 SCF Done:  E(RB3LYP) =  -355.041603796     A.U. after   10 cycles
 SCF Done:  E(RB3LYP) =  -355.042045335     A.U. after    9 cycles
 SCF Done:  E(RB3LYP) =  -355.042327853     A.U. after   10 cycles
 SCF Done:  E(RB3LYP) =  -355.042402552     A.U. after    9 cycles
 SCF Done:  E(RB3LYP) =  -355.042423794     A.U. after    8 cycles
 SCF Done:  E(RB3LYP) =  -355.042425285     A.U. after    6 cycles
 SCF Done:  E(RB3LYP) =  -355.042425486     A.U. after    6 cycles
 SCF Done:  E(RB3LYP) =  -355.044896106     A.U. after   10 cycles
 SCF Done:  E(RB3LYP) =  -355.044972807     A.U. after   10 cycles
 SCF Done:  E(RB3LYP) =  -355.044988525     A.U. after    8 cycles
 SCF Done:  E(RB3LYP) =  -355.044967004     A.U. after    9 cycles
 SCF Done:  E(RB3LYP) =  -355.044983226     A.U. after    9 cycles
 SCF Done:  E(RB3LYP) =  -355.044995485     A.U. after    8 cycles
 SCF Done:  E(RB3LYP) =  -355.044996030     A.U. after    8 cycles
 SCF Done:  E(RB3LYP) =  -355.044996264     A.U. after    8 cycles
 SCF Done:  E(RB3LYP) =  -355.044996291     A.U. after    6 cycles
 Optimization completed.
    -- Stationary point found.
 Normal termination of Gaussian 16 at Mon May 29 03:47:44 2023.

 ----------------------------------------------------------------------
 #N Geom=AllCheck Guess=TCheck SCRF=Check GenChk RB3LYP/6-31G(2df,p) Fr
 eq
 ----------------------------------------------------------------------

 Structure from the checkpoint file:  "CCCqCCrCqCrqCrC.chk"
 -------------------
 Title Card Required
 -------------------
 Charge =  0 Multiplicity = 1

                         Standard orientation:
 ---------------------------------------------------------------------
 Center     Atomic      Atomic             Coordinates (Angstroms)
 Number     Number       Type             X           Y           Z
 ---------------------------------------------------------------------
      1          6           0        2.490382    1.509816   -0.267399
      2          6           0        1.061856    1.378606    0.274270
      3          6           0        0.365986    0.063145   -0.145463
      4          6           0        0.998108   -1.140449    0.612634
      5          6           0        1.426608   -2.307735   -0.284936
      6          6           0       -1.198295    0.129333   -0.041347
      7          6           0       -1.661738    0.503224    1.380309
      8          6           0       -1.749104    1.174563   -1.034763
      9          6           0       -1.818388   -1.229278   -0.427720
     10          1           0        2.956286    2.440537    0.071923
     11          1           0        2.494467    1.515951   -1.363254
     12          1           0        3.132190    0.684657    0.058733
     13          1           0        0.486793    2.243207   -0.071112
     14          1           0        1.081555    1.444706    1.369566
     15          1           0        0.580863   -0.078368   -1.215406
     16          1           0        0.308720   -1.508061    1.380608
     17          1           0        1.879014   -0.794684    1.164997
     18          1           0        0.581432   -2.729459   -0.836883
     19          1           0        1.875406   -3.115288    0.303321
     20          1           0        2.169267   -1.981544   -1.021641
     21          1           0       -1.313414    1.498651    1.671586
     22          1           0       -1.302318   -0.209533    2.129616
     23          1           0       -2.755930    0.509336    1.434929
     24          1           0       -1.438070    2.193777   -0.790230
     25          1           0       -2.844592    1.162495   -1.030544
     26          1           0       -1.420266    0.958734   -2.057632
     27          1           0       -1.528015   -2.031063    0.256686
     28          1           0       -1.523938   -1.526164   -1.440495
     29          1           0       -2.911944   -1.165239   -0.408281
 ---------------------------------------------------------------------

 SCF Done:  E(RB3LYP) =  -355.044996291     A.U. after    1 cycles

 The electronic state is 1-A.
 Alpha  occ. eigenvalues --  -10.18918 -10.17664 -10.17201 -10.17184 -10.16891
 Alpha  occ. eigenvalues --  -10.16780 -10.16552 -10.16533 -10.16529  -0.82630
 Alpha  occ. eigenvalues --   -0.77005  -0.74154  -0.67863  -0.67623  -0.66716
 Alpha  occ. eigenvalues --   -0.60176  -0.57772  -0.51932  -0.46928  -0.44512
 Alpha  occ. eigenvalues --   -0.43610  -0.43198  -0.41923  -0.40843  -0.39003
 Alpha  occ. eigenvalues --   -0.38731  -0.37325  -0.36594  -0.35921  -0.35380
 Alpha  occ. eigenvalues --   -0.34240  -0.33930  -0.32807  -0.32603  -0.30292
 Alpha  occ. eigenvalues --   -0.29158  -0.29078
 Alpha virt. eigenvalues --    0.07724   0.10415   0.11297   0.11483   0.12810
 Alpha virt. eigenvalues --    0.13381   0.13928   0.14642   0.15550   0.16734
 Alpha virt. eigenvalues --    0.17240   0.17539   0.18283   0.19049   0.19655

 Mulliken charges:
               1
     1  C   -0.388227
     2  C   -0.202264
     3  C    0.070451
     4  C   -0.198370
     5  C   -0.382876
     6  C    0.246561
     7  C   -0.406700
     8  C   -0.410691
     9  C   -0.409634
    10  H    0.109525
    11  H    0.112210
    12  H    0.116678
    13  H    0.091942
    14  H    0.095143
    15  H    0.058001
    16  H    0.094657
    17  H    0.090632
    18  H    0.117301
    19  H    0.107046
    20  H    0.113637
    21  H    0.111324
    22  H    0.110190
    23  H    0.105895
    24  H    0.111844
    25  H    0.105695
    26  H    0.106526
    27  H    0.111578
    28  H    0.107570
    29  H    0.104356
 Sum of Mulliken charges =  -0.00000

 Dipole moment (field-independent basis, Debye):
    X=             -0.0301    Y=              0.0639    Z=              0.0528  Tot=              0.0882
 Quadrupole moment (field-independent basis, Debye-Ang):
   XX=            -61.7940   YY=            -61.9039   ZZ=            -61.5132
   XY=              0.0968   XZ=              0.1774   YZ=             -0.2154

  Exact polarizability: 106.608  -0.084 100.679   0.160   0.017  89.069
 Approx polarizability: 139.450  -0.307 136.987   0.342  -0.424 136.083

                      1                      2                      3
                      A                      A                      A
 Frequencies --     48.9453                87.0570               122.5089
 Red. masses --      2.3121                 2.4398                 1.9193
 Frc consts  --      0.0033                 0.0109                 0.0170
 IR Inten    --      0.0044                 0.0044                 0.0266

                      4                      5                      6
                      A                      A                      A
 Frequencies --    197.8466               199.3579               215.2695
 Red. masses --      1.5439                 1.7173                 1.1494
 Frc consts  --      0.0356                 0.0402                 0.0314
 IR Inten    --      0.0231                 0.0088                 0.0125

                      7                      8                      9
                      A                      A                      A
 Frequencies --    224.0219               252.6098               284.7275
 Red. masses --      1.1104                 1.0542                 1.2234
 Frc consts  --      0.0328                 0.0396                 0.0584
 IR Inten    --      0.0004                 0.0578                 0.0769

                     10                     11                     12
                      A                      A                      A
 Frequencies --    293.9835               305.6506               325.6450
 Red. masses --      2.0385                 1.9380                 2.1134
 Frc consts  --      0.1038                 0.1067                 0.1320
 IR Inten    --      0.0269                 0.0196                 0.0141

                     13                     14                     15
                      A                      A                      A
 Frequencies --    350.3357               377.3174               399.3014
 Red. masses --      2.1835                 2.2465                 2.2840
 Frc consts  --      0.1579                 0.1884                 0.2146
 IR Inten    --      0.0448                 0.0781                 0.0252

                     16                     17                     18
                      A                      A                      A
 Frequencies --    451.8412               471.3495               530.8424
 Red. masses --      2.4598                 2.2938                 2.5185
 Frc consts  --      0.2959                 0.3002                 0.4181
 IR Inten    --      0.2009                 0.1902                 0.2807

                     19                     20                     21
                      A                      A                      A
 Frequencies --    722.8970               773.1426               789.9762
 Red. masses --      1.9362                 1.3702                 1.4667
 Frc consts  --      0.5962                 0.4826                 0.5393
 IR Inten    --      2.0640                 1.5499                 1.1945

                     22                     23                     24
                      A                      A                      A
 Frequencies --    854.1442               921.4738               927.5879
 Red. masses --      1.7609                 1.9330                 1.9215
 Frc consts  --      0.7569                 0.9671                 0.9741
 IR Inten    --      0.5194                 2.4434                 2.8113

                     25                     26                     27
                      A                      A                      A
 Frequencies --    932.1930               935.7766               957.1733
 Red. masses --      1.7470                 1.7961                 1.2001
 Frc consts  --      0.8944                 0.9267                 0.6478
 IR Inten    --      0.4487                 0.1991                 0.0078

                     28                     29                     30
                      A                      A                      A
 Frequencies --   1024.5588              1025.1798              1038.6529
 Red. masses --      1.7163                 1.3695                 1.5323
 Frc consts  --      1.0615                 0.8480                 0.9740
 IR Inten    --      1.1370                 0.0814                 0.4404

                     31                     32                     33
                      A                      A                      A
 Frequencies --   1046.2271              1054.3990              1110.5592
 Red. masses --      1.9706                 1.9354                 1.5867
 Frc consts  --      1.2709                 1.2678                 1.1530
 IR Inten    --      0.6733                 0.5890                 1.7223

                     34                     35                     36
                      A                      A                      A
 Frequencies --   1137.0651              1169.4232              1218.8829
 Red. masses --      1.9180                 2.0302                 2.1135
 Frc consts  --      1.4611                 1.6358                 1.8500
 IR Inten    --      0.3371                 1.9952                 4.9326

                     37                     38                     39
                      A                      A                      A
 Frequencies --   1241.7228              1258.4730              1286.4344
 Red. masses --      2.5834                 2.4603                 1.3027
 Frc consts  --      2.3469                 2.2958                 1.2702
 IR Inten    --      3.1310                 9.9054                 0.3754

                     40                     41                     42
                      A                      A                      A
 Frequencies --   1301.1266              1331.8482              1344.3806
 Red. masses --      1.2560                 1.2732                 1.2727
 Frc consts  --      1.2528                 1.3306                 1.3553
 IR Inten    --      0.4891                 1.9519                 2.1633

                     43                     44                     45
                      A                      A                      A
 Frequencies --   1382.4234              1385.2329              1399.9908
 Red. masses --      1.4108                 1.4049                 1.2320
 Frc consts  --      1.5885                 1.5883                 1.4226
 IR Inten    --      1.2869                 0.0939                 4.1659

                     46                     47                     48
                      A                      A                      A
 Frequencies --   1400.5366              1410.9283              1411.5688
 Red. masses --      1.2283                 1.2269                 1.2327
 Frc consts  --      1.4195                 1.4390                 1.4471
 IR Inten    --      4.7915                 2.1998                 3.5609

                     49                     50                     51
                      A                      A                      A
 Frequencies --   1432.6128              1479.1706              1483.1470
 Red. masses --      1.2216                 1.0524                 1.0514
 Frc consts  --      1.4772                 1.3566                 1.3627
 IR Inten    --      7.3203                 0.0953                 0.3337

                     52                     53                     54
                      A                      A                      A
 Frequencies --   1486.7096              1487.8852              1493.0458
 Red. masses --      1.0458                 1.0546                 1.0495
 Frc consts  --      1.3619                 1.3756                 1.3783
 IR Inten    --      0.4779                 0.4170                 0.1447

                     55                     56                     57
                      A                      A                      A
 Frequencies --   1500.1506              1504.2008              1506.5402
 Red. masses --      1.0420                 1.0417                 1.0576
 Frc consts  --      1.3817                 1.3887                 1.4143
 IR Inten    --      0.8232                 2.3753                 0.6191

                     58                     59                     60
                      A                      A                      A
 Frequencies --   1507.0090              1511.7420              1518.0805
 Red. masses --      1.0577                 1.0681                 1.0669
 Frc consts  --      1.4153                 1.4381                 1.4486
 IR Inten    --      1.0594                 5.1879                11.5406

                     61                     62                     63
                      A                      A                      A
 Frequencies --   1521.1126              2981.4330              3024.4875
 Red. masses --      1.0596                 1.0819                 1.0427
 Frc consts  --      1.4445                 5.6660                 5.6196
 IR Inten    --     11.6700                14.7959                12.4275

                     64                     65                     66
                      A                      A                      A
 Frequencies --   3025.8844              3027.5822              3029.4647
 Red. masses --      1.0555                 1.0363                 1.0374
 Frc consts  --      5.6939                 5.5966                 5.6095
 IR Inten    --     11.5115                25.0466                25.2993

                     67                     68                     69
                      A                      A                      A
 Frequencies --   3031.2158              3033.7290              3038.8463
 Red. masses --      1.0371                 1.0443                 1.0551
 Frc consts  --      5.6142                 5.6628                 5.7409
 IR Inten    --     52.5524                19.0741                20.9680

                     70                     71                     72
                      A                      A                      A
 Frequencies --   3061.4261              3070.4222              3085.6917
 Red. masses --      1.0991                 1.0952                 1.1014
 Frc consts  --      6.0692                 6.0835                 6.1788
 IR Inten    --     18.4741                 8.0181                 1.4172

                     73                     74                     75
                      A                      A                      A
 Frequencies --   3090.0518              3094.3207              3094.9935
 Red. masses --      1.1008                 1.1011                 1.0999
 Frc consts  --      6.1930                 6.2114                 6.2076
 IR Inten    --     16.1534                40.8328                69.5845

                     76                     77                     78
                      A                      A                      A
 Frequencies --   3096.6920              3100.0502              3104.8648
 Red. masses --      1.1014                 1.1008                 1.1007
 Frc consts  --      6.2231                 6.2333                 6.2517
 IR Inten    --     57.7447                25.4862                 5.8991

                     79                     80                     81
                      A                      A                      A
 Frequencies --   3107.9028              3110.2952              3110.3640
 Red. masses --      1.0997                 1.0985                 1.0989
 Frc consts  --      6.2582                 6.2609                 6.2635
 IR Inten    --     68.1438                79.5285                 6.8915

 - Thermochemistry -
 -------------------
 Temperature   298.150 Kelvin.  Pressure   1.00000 Atm.
 Atom     1 has atomic number  6 and mass  12.00000

 Molecular mass:   128.15650 amu.
 Principal axes and moments of inertia in atomic units:
                           1         2         3
     Eigenvalues --  1067.590811435.186991977.29267
           X            1.00000  -0.00035  -0.00282
           Y            0.00036   1.00000   0.00300
           Z            0.00282  -0.00300   0.99999
 This molecule is an asymmetric top.
 Rotational symmetry number  1.
 Warning -- assumption of classical behavior for rotation
           may cause significant error
 Rotational temperatures (Kelvin)      0.08113     0.06035     0.04380
 Rotational constants (GHZ):           1.69048     1.25750     0.91273
 Zero-point vibrational energy     715867.6 (Joules/Mol)
                                  171.09646 (Kcal/Mol)
 Warning -- explicit consideration of  18 degrees of freedom as
           vibrations may cause significant error
 Vibrational temperatures:     70.42   125.26   176.26   284.66   286.83
          (Kelvin)            309.72   322.32   363.45   409.66   422.98
                              439.76   468.53   504.05   542.88   574.51
                              650.10   678.17   763.76  1040.09  1112.38
                             1136.60  1228.92  1325.80  1334.59  1341.22
                             1346.37  1377.16  1474.11  1475.01  1494.39
                             1505.29  1517.05  1597.85  1635.98  1682.54
                             1753.70  1786.56  1810.66  1850.89  1872.03
                             1916.23  1934.26  1989.00  1993.04  2014.27
                             2015.06  2030.01  2030.93  2061.21  2128.20
                             2133.92  2139.04  2140.73  2148.16  2158.38
                             2164.21  2167.58  2168.25  2175.06  2184.18
                             2188.54  4289.62  4351.56  4353.57  4356.02
                             4358.72  4361.24  4364.86  4372.22  4404.71
                             4417.65  4439.62  4445.90  4452.04  4453.01
                             4455.45  4460.28  4467.21  4471.58  4475.02
                             4475.12

 Zero-point correction=                           0.272660 (Hartree/Particle)
 Thermal correction to Energy=                    0.284826
 Thermal correction to Enthalpy=                  0.285771
 Thermal correction to Gibbs Free Energy=         0.235892
 Sum of electronic and zero-point Energies=           -354.772337
 Sum of electronic and thermal Energies=              -354.760170
 Sum of electronic and thermal Enthalpies=            -354.759226
 Sum of electronic and thermal Free Energies=         -354.809104

                     E (Thermal)             CV                S
                      KCal/Mol        Cal/Mol-Kelvin    Cal/Mol-Kelvin
 Total                  178.731             46.147            104.977
 Electronic               0.000              0.000              0.000
 Translational            0.889              2.981             40.457
 Rotational               0.889              2.981             29.495
 Vibrational            176.954             40.186             35.025
 Vibration     1          0.595              1.978              4.860
 Vibration     2          0.601              1.958              3.725
 Vibration     3          0.610              1.930              3.060
 Vibration     4          0.637              1.843              2.153
 Vibration     5          0.637              1.841              2.139
 Vibration     6          0.645              1.818              1.999
 Vibration     7          0.649              1.804              1.926
 Vibration     8          0.664              1.758              1.712
 Vibration     9          0.683              1.702              1.505
 Vibration    10          0.689              1.685              1.451
 Vibration    11          0.696              1.663              1.386
 Vibration    12          0.710              1.624              1.282
 Vibration    13          0.727              1.575              1.165
 Vibration    14          0.748              1.518              1.050
 Vibration    15          0.765              1.472              0.965
 Vibration    16          0.811              1.357              0.790
 Vibration    17          0.828              1.314              0.734
 Vibration    18          0.886              1.182              0.585

 Optimization completed.
    -- Stationary point found.
 Normal termination of Gaussian 16 at Mon May 29 04:44:23 2023.
