 Gaussian 16, Revision A.03,
 Gaussian 16:  ES64L-G16RevA.03 25-Dec-2016

 -----------------------------
 # opt freq b3lyp/6-31g(2df,p)
 -----------------------------

 -------------------
 Title Card Required
 -------------------
 Symbolic Z-matrix:
 Charge =  0 Multiplicity = 1

 SCF Done:  E(RB3LYP) =  -534.838430077     A.U. after   12 cycles
 SCF Done:  E(RB3LYP) =  -534.839429147     A.U. after   10 cycles
 SCF Done:  E(RB3LYP) =  -534.840679155     A.U. after   10 cycles
 SCF Done:  E(RB3LYP) =  -534.841421686     A.U. after   10 cycles
 SCF Done:  E(RB3LYP) =  -534.841709300     A.U. after   10 cycles
 SCF Done:  E(RB3LYP) =  -534.841736684     A.U. after    9 cycles
 SCF Done:  E(RB3LYP) =  -534.841758269     A.U. after    8 cycles
 SCF Done:  E(RB3LYP) =  -534.841759093     A.U. after    7 cycles
 Optimization completed.
    -- Stationary point found.
 Normal termination of Gaussian 16 at Sat May 27 20:12:40 2023.

 ----------------------------------------------------------------------
 #N Geom=AllCheck Guess=TCheck SCRF=Check GenChk RB3LYP/6-31G(2df,p) Fr
 eq
 ----------------------------------------------------------------------

 Structure from the checkpoint file:  "CCCqCCrCqFrqFrF.chk"
 -------------------
 Title Card Required
 -------------------
 Charge =  0 Multiplicity = 1

                         Standard orientation:
 ---------------------------------------------------------------------
 Center     Atomic      Atomic             Coordinates (Angstroms)
 Number     Number       Type             X           Y           Z
 ---------------------------------------------------------------------
      1          6           0        2.193846    1.729478   -0.179218
      2          6           0        0.822105    1.308051    0.358792
      3          6           0        0.248925   -0.000000   -0.233228
      4          6           0        0.822089   -1.308068    0.358767
      5          6           0        2.193853   -1.729470   -0.179206
      6          6           0       -1.268100    0.000002   -0.065519
      7          9           0       -1.625620    0.000011    1.231304
      8          9           0       -1.837700    1.078044   -0.633425
      9          9           0       -1.837698   -1.078049   -0.633408
     10          1           0        2.457826    2.721422    0.200388
     11          1           0        2.189801    1.785164   -1.273309
     12          1           0        2.992224    1.045251    0.116342
     13          1           0        0.113357    2.113776    0.144689
     14          1           0        0.859029    1.215667    1.450493
     15          1           0        0.408400    0.000009   -1.319741
     16          1           0        0.113352   -2.113788    0.144610
     17          1           0        0.858973   -1.215722    1.450472
     18          1           0        2.189855   -1.785106   -1.273299
     19          1           0        2.457818   -2.721431    0.200366
     20          1           0        2.992218   -1.045257    0.116420
 ---------------------------------------------------------------------

 SCF Done:  E(RB3LYP) =  -534.841759093     A.U. after    1 cycles

 The electronic state is 1-A.
 Alpha  occ. eigenvalues --  -24.71133 -24.71132 -24.71107 -10.40737 -10.20725
 Alpha  occ. eigenvalues --  -10.19122 -10.19122 -10.18177 -10.18177  -1.29774
 Alpha  occ. eigenvalues --   -1.20861  -1.20846  -0.82975  -0.75692  -0.72915
 Alpha  occ. eigenvalues --   -0.66217  -0.62493  -0.59567  -0.57182  -0.56991
 Alpha  occ. eigenvalues --   -0.53186  -0.48050  -0.45665  -0.44845  -0.44296
 Alpha  occ. eigenvalues --   -0.41967  -0.41701  -0.41303  -0.41096  -0.39332
 Alpha  occ. eigenvalues --   -0.39259  -0.37453  -0.37025  -0.35133  -0.34183
 Alpha  occ. eigenvalues --   -0.33043  -0.31991
 Alpha virt. eigenvalues --    0.08060   0.10577   0.12255   0.12400   0.12629
 Alpha virt. eigenvalues --    0.14288   0.15167   0.16654   0.16821   0.17712
 Alpha virt. eigenvalues --    0.17838   0.19775   0.23458   0.23995   0.24020

 Mulliken charges:
               1
     1  C   -0.400481
     2  C   -0.188680
     3  C   -0.118224
     4  C   -0.188679
     5  C   -0.400482
     6  C    0.281911
     7  F   -0.091340
     8  F   -0.084790
     9  F   -0.084790
    10  H    0.119113
    11  H    0.118247
    12  H    0.125434
    13  H    0.118099
    14  H    0.108626
    15  H    0.096517
    16  H    0.118099
    17  H    0.108626
    18  H    0.118246
    19  H    0.119113
    20  H    0.125434
 Sum of Mulliken charges =  -0.00000

 Dipole moment (field-independent basis, Debye):
    X=              2.0972    Y=             -0.0000    Z=             -0.1009  Tot=              2.0996
 Quadrupole moment (field-independent basis, Debye-Ang):
   XX=            -56.3091   YY=            -52.8724   ZZ=            -53.5384
   XY=              0.0000   XZ=              0.1980   YZ=              0.0000

  Exact polarizability:  70.991   0.000  71.798  -0.302  -0.000  60.479
 Approx polarizability:  90.522   0.000  95.256   1.008  -0.000  93.387

 ******    1 imaginary frequencies (negative Signs) ******

                      1                      2                      3
                      A                      A                      A
 Frequencies --    -75.3506                66.2329                83.5499
 Red. masses --      1.7514                 6.0076                 2.0492
 Frc consts  --      0.0059                 0.0155                 0.0084
 IR Inten    --      0.1535                 0.0818                 0.1999

                      4                      5                      6
                      A                      A                      A
 Frequencies --    173.9216               186.8855               239.2842
 Red. masses --      2.8319                 1.6501                 2.1119
 Frc consts  --      0.0505                 0.0340                 0.0712
 IR Inten    --      0.4702                 0.0963                 0.7678

                      7                      8                      9
                      A                      A                      A
 Frequencies --    250.5046               303.9550               326.7418
 Red. masses --      1.4545                 3.6535                 2.7938
 Frc consts  --      0.0538                 0.1989                 0.1757
 IR Inten    --      0.5679                 0.1302                 0.9373

                     10                     11                     12
                      A                      A                      A
 Frequencies --    358.8738               387.6534               453.1372
 Red. masses --      3.0580                 6.2880                 3.0002
 Frc consts  --      0.2320                 0.5567                 0.3630
 IR Inten    --      3.4423                 1.9747                 1.4475

                     13                     14                     15
                      A                      A                      A
 Frequencies --    552.6090               566.8342               692.3169
 Red. masses --      7.1389                13.0551                 8.1406
 Frc consts  --      1.2844                 2.4714                 2.2989
 IR Inten    --      1.5733                 0.0691                11.7417

                     16                     17                     18
                      A                      A                      A
 Frequencies --    763.6052               764.1829               843.7305
 Red. masses --      1.1414                 1.4755                 2.4954
 Frc consts  --      0.3921                 0.5077                 1.0466
 IR Inten    --      3.1913                 2.3539                 5.4608

                     19                     20                     21
                      A                      A                      A
 Frequencies --    892.3089               938.6674              1025.8768
 Red. masses --      2.3781                 1.8040                 1.2567
 Frc consts  --      1.1156                 0.9365                 0.7792
 IR Inten    --      5.9318                13.8468                 1.2208

                     22                     23                     24
                      A                      A                      A
 Frequencies --   1040.1275              1054.8611              1075.0544
 Red. masses --      2.4569                 2.4382                 1.8746
 Frc consts  --      1.5660                 1.5985                 1.2765
 IR Inten    --      6.5882                 1.1284                36.1994

                     25                     26                     27
                      A                      A                      A
 Frequencies --   1132.6848              1155.8699              1192.7816
 Red. masses --      2.3611                 3.3521                 2.1121
 Frc consts  --      1.7848                 2.6387                 1.7705
 IR Inten    --     20.1140               127.3895                19.6437

                     28                     29                     30
                      A                      A                      A
 Frequencies --   1202.2134              1271.2448              1275.2839
 Red. masses --      5.4467                 1.4029                 3.7402
 Frc consts  --      4.6381                 1.3358                 3.5839
 IR Inten    --    169.6364                 4.1924               164.2076

                     31                     32                     33
                      A                      A                      A
 Frequencies --   1334.4353              1344.8892              1354.4931
 Red. masses --      1.2347                 1.6801                 1.2046
 Frc consts  --      1.2954                 1.7904                 1.3021
 IR Inten    --      6.1756                72.2863                 1.7014

                     34                     35                     36
                      A                      A                      A
 Frequencies --   1372.4820              1409.8832              1419.4577
 Red. masses --      1.4558                 1.2286                 1.4135
 Frc consts  --      1.6157                 1.4389                 1.6780
 IR Inten    --      4.2044                 0.5590                 4.3981

                     37                     38                     39
                      A                      A                      A
 Frequencies --   1421.6540              1482.7222              1493.6337
 Red. masses --      1.2914                 1.0596                 1.0426
 Frc consts  --      1.5378                 1.3725                 1.3704
 IR Inten    --      4.6163                 0.1288                 0.8353

                     40                     41                     42
                      A                      A                      A
 Frequencies --   1497.3283              1499.5902              1506.9176
 Red. masses --      1.0534                 1.0706                 1.0571
 Frc consts  --      1.3915                 1.4185                 1.4143
 IR Inten    --      3.6834                 5.7699                 3.8976

                     43                     44                     45
                      A                      A                      A
 Frequencies --   1517.4691              3026.5338              3037.1960
 Red. masses --      1.0594                 1.0795                 1.0463
 Frc consts  --      1.4373                 5.8259                 5.6868
 IR Inten    --      9.1202                 2.9303                10.8617

                     46                     47                     48
                      A                      A                      A
 Frequencies --   3040.0208              3040.9119              3046.0046
 Red. masses --      1.0536                 1.0418                 1.0621
 Frc consts  --      5.7367                 5.6761                 5.8061
 IR Inten    --      0.0039                20.9074                51.5759

                     49                     50                     51
                      A                      A                      A
 Frequencies --   3080.8240              3084.4955              3101.4183
 Red. masses --      1.0980                 1.0987                 1.1010
 Frc consts  --      6.1404                 6.1587                 6.2398
 IR Inten    --      7.5460                 4.7406                17.3254

                     52                     53                     54
                      A                      A                      A
 Frequencies --   3102.9775              3119.1870              3133.2521
 Red. masses --      1.1010                 1.1010                 1.0975
 Frc consts  --      6.2457                 6.3115                 6.3478
 IR Inten    --     49.2261                46.0108                30.7126

 - Thermochemistry -
 -------------------
 Temperature   298.150 Kelvin.  Pressure   1.00000 Atm.
 Atom     1 has atomic number  6 and mass  12.00000

 Molecular mass:   140.08129 amu.
 Principal axes and moments of inertia in atomic units:
                           1         2         3
     Eigenvalues --   894.765971521.950032002.38987
           X            0.99997   0.00000  -0.00716
           Y           -0.00000   1.00000  -0.00000
           Z            0.00716   0.00000   0.99997
 This molecule is an asymmetric top.
 Rotational symmetry number  1.
 Warning -- assumption of classical behavior for rotation
           may cause significant error
 Rotational temperatures (Kelvin)      0.09680     0.05691     0.04326
 Rotational constants (GHZ):           2.01700     1.18581     0.90129
    1 imaginary frequencies ignored.
 Zero-point vibrational energy     435074.5 (Joules/Mol)
                                  103.98529 (Kcal/Mol)
 Warning -- explicit consideration of  13 degrees of freedom as
           vibrations may cause significant error
 Vibrational temperatures:     95.29   120.21   250.23   268.89   344.28
          (Kelvin)            360.42   437.32   470.11   516.34   557.75
                              651.96   795.08   815.55   996.09  1098.66
                             1099.49  1213.94  1283.83  1350.53  1476.01
                             1496.51  1517.71  1546.76  1629.68  1663.04
                             1716.15  1729.72  1829.04  1834.85  1919.95
                             1935.00  1948.81  1974.70  2028.51  2042.28
                             2045.44  2133.31  2149.01  2154.32  2157.58
                             2168.12  2183.30  4354.51  4369.85  4373.91
                             4375.19  4382.52  4432.62  4437.90  4462.25
                             4464.49  4487.81  4508.05

 Zero-point correction=                           0.165711 (Hartree/Particle)
 Thermal correction to Energy=                    0.175161
 Thermal correction to Enthalpy=                  0.176105
 Thermal correction to Gibbs Free Energy=         0.130964
 Sum of electronic and zero-point Energies=           -534.676048
 Sum of electronic and thermal Energies=              -534.666598
 Sum of electronic and thermal Enthalpies=            -534.665654
 Sum of electronic and thermal Free Energies=         -534.710795

                     E (Thermal)             CV                S
                      KCal/Mol        Cal/Mol-Kelvin    Cal/Mol-Kelvin
 Total                  109.915             34.693             95.007
 Electronic               0.000              0.000              0.000
 Translational            0.889              2.981             40.723
 Rotational               0.889              2.981             29.390
 Vibrational            108.138             28.732             24.894
 Vibration     1          0.598              1.970              4.262
 Vibration     2          0.600              1.961              3.806
 Vibration     3          0.627              1.875              2.393
 Vibration     4          0.632              1.858              2.258
 Vibration     5          0.657              1.780              1.808
 Vibration     6          0.663              1.762              1.727
 Vibration     7          0.695              1.666              1.395
 Vibration     8          0.710              1.622              1.276
 Vibration     9          0.734              1.557              1.127
 Vibration    10          0.756              1.497              1.009
 Vibration    11          0.812              1.354              0.786
 Vibration    12          0.908              1.134              0.539
 Vibration    13          0.923              1.103              0.510

 Optimization completed.
    -- Stationary point found.
 Normal termination of Gaussian 16 at Sat May 27 20:42:59 2023.
