 Gaussian 16, Revision A.03,
 Gaussian 16:  ES64L-G16RevA.03 25-Dec-2016

 -----------------------------
 # opt freq b3lyp/6-31g(2df,p)
 -----------------------------

 -------------------
 Title Card Required
 -------------------
 Symbolic Z-matrix:
 Charge =  0 Multiplicity = 1

 SCF Done:  E(RB3LYP) =  -694.539845206     A.U. after   14 cycles
 SCF Done:  E(RB3LYP) =  -694.556097003     A.U. after   11 cycles
 SCF Done:  E(RB3LYP) =  -694.560103827     A.U. after   12 cycles
 SCF Done:  E(RB3LYP) =  -694.563283151     A.U. after   11 cycles
 SCF Done:  E(RB3LYP) =  -694.565723538     A.U. after   12 cycles
 SCF Done:  E(RB3LYP) =  -694.567941199     A.U. after   11 cycles
 SCF Done:  E(RB3LYP) =  -694.569419893     A.U. after   12 cycles
 SCF Done:  E(RB3LYP) =  -694.572177075     A.U. after   13 cycles
 SCF Done:  E(RB3LYP) =  -694.572808440     A.U. after   13 cycles
 SCF Done:  E(RB3LYP) =  -694.573546414     A.U. after   12 cycles
 SCF Done:  E(RB3LYP) =  -694.573588240     A.U. after    9 cycles
 SCF Done:  E(RB3LYP) =  -694.574112601     A.U. after   12 cycles
 SCF Done:  E(RB3LYP) =  -694.574121712     A.U. after    9 cycles
 SCF Done:  E(RB3LYP) =  -694.574124020     A.U. after    8 cycles
 SCF Done:  E(RB3LYP) =  -694.574125160     A.U. after    7 cycles
 SCF Done:  E(RB3LYP) =  -694.574125755     A.U. after    8 cycles
 SCF Done:  E(RB3LYP) =  -694.574125959     A.U. after    7 cycles
 SCF Done:  E(RB3LYP) =  -694.574125987     A.U. after    6 cycles
 Optimization completed.
    -- Stationary point found.
 Normal termination of Gaussian 16 at Mon May 29 11:50:30 2023.

 ----------------------------------------------------------------------
 #N Geom=AllCheck Guess=TCheck SCRF=Check GenChk RB3LYP/6-31G(2df,p) Fr
 eq
 ----------------------------------------------------------------------

 Structure from the checkpoint file:  "CCCqdOrCNCC1CdCCCCCCN1.chk"
 -------------------
 Title Card Required
 -------------------
 Charge =  0 Multiplicity = 1

                         Standard orientation:
 ---------------------------------------------------------------------
 Center     Atomic      Atomic             Coordinates (Angstroms)
 Number     Number       Type             X           Y           Z
 ---------------------------------------------------------------------
      1          6           0       -6.343747    0.568813   -0.289684
      2          6           0       -5.203230   -0.382288   -0.644718
      3          6           0       -3.849277    0.064782   -0.119223
      4          8           0       -3.659983    1.170051    0.337815
      5          6           0       -2.727433   -0.966176   -0.168320
      6          7           0       -1.432471   -0.336711   -0.045743
      7          6           0       -0.377729   -1.219021    0.436768
      8          6           0        1.010647   -0.573928    0.279061
      9          6           0        2.058121   -1.442250    0.921172
     10          6           0        3.258397   -1.733461    0.419177
     11          6           0        3.833613   -1.285351   -0.902886
     12          6           0        4.428043    0.149377   -0.932343
     13          6           0        3.418570    1.298546   -1.179781
     14          6           0        2.970815    2.135078    0.032244
     15          6           0        2.243994    1.437258    1.197980
     16          7           0        0.979747    0.756797    0.918502
     17          1           0       -7.283644    0.229067   -0.733125
     18          1           0       -6.131057    1.577611   -0.650565
     19          1           0       -6.478015    0.632544    0.793723
     20          1           0       -5.101295   -0.480368   -1.735432
     21          1           0       -5.397384   -1.401736   -0.285549
     22          1           0       -2.800380   -1.548951   -1.097328
     23          1           0       -2.954939   -1.684912    0.648614
     24          1           0       -1.540150    0.455187    0.581294
     25          1           0       -0.395683   -2.141903   -0.156085
     26          1           0       -0.522790   -1.508187    1.494043
     27          1           0        1.210365   -0.507497   -0.800801
     28          1           0        1.803103   -1.817509    1.911528
     29          1           0        3.922264   -2.343222    1.030496
     30          1           0        3.080209   -1.360087   -1.696088
     31          1           0        4.629416   -1.986687   -1.176948
     32          1           0        5.164349    0.168501   -1.743776
     33          1           0        4.995370    0.332804   -0.011247
     34          1           0        2.540355    0.905318   -1.704358
     35          1           0        3.877759    2.002090   -1.884786
     36          1           0        2.323193    2.940694   -0.342268
     37          1           0        3.852150    2.638605    0.456000
     38          1           0        2.034730    2.208098    1.951839
     39          1           0        2.913138    0.719424    1.678931
     40          1           0        0.383159    1.361841    0.363375
 ---------------------------------------------------------------------

 SCF Done:  E(RB3LYP) =  -694.574125987     A.U. after    1 cycles

 The electronic state is 1-A.
 Alpha  occ. eigenvalues --  -19.13307 -14.30676 -14.30093 -10.26944 -10.21341
 Alpha  occ. eigenvalues --  -10.20235 -10.19695 -10.19666 -10.19016 -10.18087
 Alpha  occ. eigenvalues --  -10.17902 -10.17844 -10.17798 -10.17424 -10.17271
 Alpha  occ. eigenvalues --  -10.17090  -1.04379  -0.90948  -0.88120  -0.80056
 Alpha  occ. eigenvalues --   -0.78633  -0.78072  -0.73419  -0.71722  -0.69717
 Alpha  occ. eigenvalues --   -0.65338  -0.62797  -0.61369  -0.58823  -0.55622
 Alpha  occ. eigenvalues --   -0.52988  -0.51928  -0.49708  -0.48797  -0.47719
 Alpha  occ. eigenvalues --   -0.46589  -0.45747  -0.44304  -0.43956  -0.43761
 Alpha  occ. eigenvalues --   -0.43047  -0.41874  -0.41557  -0.39491  -0.38548
 Alpha  occ. eigenvalues --   -0.38309  -0.37132  -0.36854  -0.36365  -0.36007
 Alpha  occ. eigenvalues --   -0.35279  -0.34888  -0.34428  -0.33939  -0.32906
 Alpha  occ. eigenvalues --   -0.31834  -0.30695  -0.30506  -0.25136  -0.24369
 Alpha  occ. eigenvalues --   -0.22315  -0.20422
 Alpha virt. eigenvalues --   -0.01087   0.01690   0.08283   0.08436   0.09514
 Alpha virt. eigenvalues --    0.11023   0.11328   0.11911   0.13204   0.13496
 Alpha virt. eigenvalues --    0.14515   0.14699   0.15216   0.16038   0.16075

 Mulliken charges:
               1
     1  C   -0.376921
     2  C   -0.278465
     3  C    0.376171
     4  O   -0.307501
     5  C   -0.228571
     6  N   -0.323022
     7  C   -0.140001
     8  C   -0.016996
     9  C   -0.031351
    10  C   -0.063880
    11  C   -0.253659
    12  C   -0.181199
    13  C   -0.178976
    14  C   -0.197027
    15  C   -0.146855
    16  N   -0.315664
    17  H    0.111262
    18  H    0.137819
    19  H    0.127668
    20  H    0.130155
    21  H    0.118366
    22  H    0.112740
    23  H    0.102271
    24  H    0.235432
    25  H    0.095748
    26  H    0.079329
    27  H    0.061100
    28  H    0.083390
    29  H    0.085845
    30  H    0.107213
    31  H    0.095503
    32  H    0.094374
    33  H    0.095085
    34  H    0.099753
    35  H    0.091124
    36  H    0.087687
    37  H    0.088887
    38  H    0.092522
    39  H    0.109899
    40  H    0.220747
 Sum of Mulliken charges =  -0.00000

 Dipole moment (field-independent basis, Debye):
    X=             -0.2429    Y=             -1.9330    Z=             -1.1452  Tot=              2.2599
 Quadrupole moment (field-independent basis, Debye-Ang):
   XX=            -88.0004   YY=            -99.9957   ZZ=            -99.7334
   XY=              7.6510   XZ=              2.4386   YZ=             -1.3013

  Exact polarizability: 198.245  -2.891 147.750  -4.539   1.445 129.205
 Approx polarizability: 238.433  -3.810 221.433  -5.723   6.505 204.735

                      1                      2                      3
                      A                      A                      A
 Frequencies --     25.6174                35.7322                41.6254
 Red. masses --      3.7198                 2.9885                 3.9227
 Frc consts  --      0.0014                 0.0022                 0.0040
 IR Inten    --      0.1342                 3.5347                 0.4377

                      4                      5                      6
                      A                      A                      A
 Frequencies --     61.2706                84.3577                99.5838
 Red. masses --      3.5899                 2.6376                 2.6800
 Frc consts  --      0.0079                 0.0111                 0.0157
 IR Inten    --      0.6564                 1.9633                 0.2869

                      7                      8                      9
                      A                      A                      A
 Frequencies --    136.5754               143.5854               161.4336
 Red. masses --      2.4392                 2.8987                 2.9079
 Frc consts  --      0.0268                 0.0352                 0.0446
 IR Inten    --      2.2953                 1.7473                 0.3993

                     10                     11                     12
                      A                      A                      A
 Frequencies --    168.3731               189.5186               198.2089
 Red. masses --      2.8545                 2.4401                 1.2428
 Frc consts  --      0.0477                 0.0516                 0.0288
 IR Inten    --      0.3550                 0.0377                 0.6670

                     13                     14                     15
                      A                      A                      A
 Frequencies --    223.6885               261.3988               272.9651
 Red. masses --      3.1201                 3.4016                 3.4039
 Frc consts  --      0.0920                 0.1369                 0.1494
 IR Inten    --      1.4749                 0.3287                11.2159

                     16                     17                     18
                      A                      A                      A
 Frequencies --    306.3067               351.5520               364.6626
 Red. masses --      2.2028                 2.0773                 3.0837
 Frc consts  --      0.1218                 0.1513                 0.2416
 IR Inten    --      1.0979                 0.3300                19.5036

                     19                     20                     21
                      A                      A                      A
 Frequencies --    393.9767               406.7832               446.7975
 Red. masses --      3.0528                 1.8463                 2.8330
 Frc consts  --      0.2792                 0.1800                 0.3332
 IR Inten    --      0.9517                 6.9439                 1.0789

                     22                     23                     24
                      A                      A                      A
 Frequencies --    471.3194               497.0853               525.8167
 Red. masses --      2.1470                 2.8953                 1.9394
 Frc consts  --      0.2810                 0.4215                 0.3159
 IR Inten    --      0.9866                 0.8441                 6.2682

                     25                     26                     27
                      A                      A                      A
 Frequencies --    556.7115               623.7199               660.9685
 Red. masses --      2.8909                 2.6563                 3.2868
 Frc consts  --      0.5279                 0.6089                 0.8460
 IR Inten    --     19.8308                 5.3268                 0.9588

                     28                     29                     30
                      A                      A                      A
 Frequencies --    708.9431               743.6784               746.8642
 Red. masses --      2.2003                 1.4724                 1.4639
 Frc consts  --      0.6516                 0.4798                 0.4811
 IR Inten    --      7.0925                34.4009                43.4752

                     31                     32                     33
                      A                      A                      A
 Frequencies --    764.7940               793.4379               819.1694
 Red. masses --      1.6804                 1.7599                 1.4101
 Frc consts  --      0.5791                 0.6528                 0.5575
 IR Inten    --      8.3796                14.3729                42.7776

                     34                     35                     36
                      A                      A                      A
 Frequencies --    836.7091               849.7205               864.3471
 Red. masses --      2.3830                 2.1507                 2.2425
 Frc consts  --      0.9829                 0.9149                 0.9871
 IR Inten    --      8.9625                 4.4182                11.2278

                     37                     38                     39
                      A                      A                      A
 Frequencies --    919.6016               931.6431               940.5324
 Red. masses --      1.6823                 1.5143                 1.7689
 Frc consts  --      0.8382                 0.7744                 0.9219
 IR Inten    --      2.5392                 0.8440                 1.6186

                     40                     41                     42
                      A                      A                      A
 Frequencies --    978.9875               989.8311              1004.5137
 Red. masses --      2.1964                 2.6566                 2.2203
 Frc consts  --      1.2402                 1.5335                 1.3200
 IR Inten    --      0.9288                34.6839                 1.9328

                     43                     44                     45
                      A                      A                      A
 Frequencies --   1016.4497              1018.2547              1035.7229
 Red. masses --      1.3851                 2.0220                 1.9605
 Frc consts  --      0.8432                 1.2352                 1.2391
 IR Inten    --      1.7310                 4.5066                23.9125

                     46                     47                     48
                      A                      A                      A
 Frequencies --   1056.8126              1068.5127              1096.0690
 Red. masses --      2.1000                 2.5849                 2.0065
 Frc consts  --      1.3819                 1.7388                 1.4202
 IR Inten    --     17.5300                 2.2873                 1.3015

                     49                     50                     51
                      A                      A                      A
 Frequencies --   1104.3318              1109.2976              1116.2383
 Red. masses --      1.8753                 1.8211                 2.4719
 Frc consts  --      1.3475                 1.3203                 1.8147
 IR Inten    --      1.9706                 2.7575                 2.0967

                     52                     53                     54
                      A                      A                      A
 Frequencies --   1133.2095              1156.4940              1158.4718
 Red. masses --      2.2292                 3.4444                 2.9714
 Frc consts  --      1.6866                 2.7142                 2.3495
 IR Inten    --     78.0085                37.0885                51.9954

                     55                     56                     57
                      A                      A                      A
 Frequencies --   1186.9844              1199.5549              1217.2046
 Red. masses --      2.3845                 1.5319                 1.1661
 Frc consts  --      1.9794                 1.2987                 1.0179
 IR Inten    --      6.3958                 5.8597                34.2741

                     58                     59                     60
                      A                      A                      A
 Frequencies --   1238.9216              1248.4329              1277.5057
 Red. masses --      1.1684                 1.1802                 1.2243
 Frc consts  --      1.0566                 1.0838                 1.1772
 IR Inten    --     11.7274                 2.4427                12.7019

                     61                     62                     63
                      A                      A                      A
 Frequencies --   1283.9663              1286.7443              1301.5326
 Red. masses --      1.2031                 1.1364                 1.3187
 Frc consts  --      1.1686                 1.1085                 1.3161
 IR Inten    --      4.1814                 1.6129                 4.9440

                     64                     65                     66
                      A                      A                      A
 Frequencies --   1310.7742              1333.0465              1344.0600
 Red. masses --      1.2298                 1.1333                 1.3797
 Frc consts  --      1.2449                 1.1866                 1.4685
 IR Inten    --      4.0583                 3.1281                 8.3645

                     67                     68                     69
                      A                      A                      A
 Frequencies --   1351.6415              1362.8142              1368.9832
 Red. masses --      1.3153                 1.2309                 1.3059
 Frc consts  --      1.4158                 1.3470                 1.4420
 IR Inten    --      1.2769                 3.5612                 7.9611

                     70                     71                     72
                      A                      A                      A
 Frequencies --   1376.9375              1381.3945              1400.1687
 Red. masses --      1.4009                 1.6313                 1.3370
 Frc consts  --      1.5649                 1.8341                 1.5443
 IR Inten    --     10.9107                13.9698                 4.5458

                     73                     74                     75
                      A                      A                      A
 Frequencies --   1406.6777              1413.2272              1413.8142
 Red. masses --      1.3058                 1.2674                 1.4265
 Frc consts  --      1.5224                 1.4914                 1.6800
 IR Inten    --     13.4549                 4.5535                21.8986

                     76                     77                     78
                      A                      A                      A
 Frequencies --   1432.2826              1451.2143              1471.1459
 Red. masses --      1.4230                 1.0850                 1.1725
 Frc consts  --      1.7200                 1.3464                 1.4951
 IR Inten    --     16.3953                 9.9405                28.6493

                     79                     80                     81
                      A                      A                      A
 Frequencies --   1475.6501              1482.5540              1487.3633
 Red. masses --      1.1162                 1.0825                 1.1860
 Frc consts  --      1.4320                 1.4019                 1.5459
 IR Inten    --      2.1180                10.5497                91.3408

                     82                     83                     84
                      A                      A                      A
 Frequencies --   1490.0858              1491.6127              1493.1778
 Red. masses --      1.1018                 1.0941                 1.0392
 Frc consts  --      1.4414                 1.4343                 1.3652
 IR Inten    --      5.9954                 3.7388                 5.5054

                     85                     86                     87
                      A                      A                      A
 Frequencies --   1497.9125              1499.6047              1501.0607
 Red. masses --      1.0967                 1.0531                 1.0971
 Frc consts  --      1.4498                 1.3953                 1.4565
 IR Inten    --      3.5707                 4.1280                 8.3809

                     88                     89                     90
                      A                      A                      A
 Frequencies --   1513.0333              1728.3495              1805.4403
 Red. masses --      1.2104                 6.9757                10.6705
 Frc consts  --      1.6326                12.2773                20.4928
 IR Inten    --      8.4625                 2.2917               103.0485

                     91                     92                     93
                      A                      A                      A
 Frequencies --   2874.6659              2930.7060              2978.9447
 Red. masses --      1.0732                 1.0703                 1.0802
 Frc consts  --      5.2252                 5.4162                 5.6480
 IR Inten    --     67.3531                54.9619                40.4936

                     94                     95                     96
                      A                      A                      A
 Frequencies --   2992.2040              3011.3851              3015.8814
 Red. masses --      1.0616                 1.0690                 1.0705
 Frc consts  --      5.5998                 5.7117                 5.7369
 IR Inten    --     16.4326                14.0238                58.8646

                     97                     98                     99
                      A                      A                      A
 Frequencies --   3018.9117              3020.2825              3023.7759
 Red. masses --      1.0666                 1.0760                 1.0820
 Frc consts  --      5.7275                 5.7833                 5.8288
 IR Inten    --     21.7947                29.4539                35.4204

                    100                    101                    102
                      A                      A                      A
 Frequencies --   3027.5851              3031.7634              3045.3594
 Red. masses --      1.0644                 1.0774                 1.0941
 Frc consts  --      5.7487                 5.8347                 5.9783
 IR Inten    --     20.1120                30.2140                12.1050

                    103                    104                    105
                      A                      A                      A
 Frequencies --   3046.3111              3051.5247              3060.7737
 Red. masses --      1.0896                 1.0372                 1.1009
 Frc consts  --      5.9574                 5.6906                 6.0764
 IR Inten    --     32.2654                23.1865                20.8755

                    106                    107                    108
                      A                      A                      A
 Frequencies --   3063.5398              3068.5890              3097.3425
 Red. masses --      1.0979                 1.0978                 1.0901
 Frc consts  --      6.0709                 6.0904                 6.1617
 IR Inten    --     60.9420                68.4718                22.2291

                    109                    110                    111
                      A                      A                      A
 Frequencies --   3119.7321              3120.6000              3131.6074
 Red. masses --      1.1022                 1.0825                 1.1014
 Frc consts  --      6.3203                 6.2110                 6.3640
 IR Inten    --     22.9682                 8.8694                16.9045

                    112                    113                    114
                      A                      A                      A
 Frequencies --   3144.7481              3514.4586              3521.6097
 Red. masses --      1.0947                 1.0729                 1.0726
 Frc consts  --      6.3784                 7.8074                 7.8371
 IR Inten    --     37.3962                 8.6506                 6.9101

 - Thermochemistry -
 -------------------
 Temperature   298.150 Kelvin.  Pressure   1.00000 Atm.
 Atom     1 has atomic number  6 and mass  12.00000

 Molecular mass:   224.18886 amu.
 Principal axes and moments of inertia in atomic units:
                           1         2         3
     Eigenvalues --  1559.429619763.51773**********
           X            0.99998   0.00649  -0.00036
           Y           -0.00649   0.99997  -0.00397
           Z            0.00033   0.00397   0.99999
 This molecule is an asymmetric top.
 Rotational symmetry number  1.
 Warning -- assumption of classical behavior for rotation
           may cause significant error
 Rotational temperatures (Kelvin)      0.05554     0.00887     0.00831
 Rotational constants (GHZ):           1.15731     0.18485     0.17305
 Zero-point vibrational energy     945704.5 (Joules/Mol)
                                  226.02880 (Kcal/Mol)
 Warning -- explicit consideration of  25 degrees of freedom as
           vibrations may cause significant error
 Vibrational temperatures:     36.86    51.41    59.89    88.15   121.37
          (Kelvin)            143.28   196.50   206.59   232.27   242.25
                              272.67   285.18   321.84   376.09   392.74
                              440.71   505.80   524.67   566.84   585.27
                              642.84   678.12   715.19   756.53   800.98
                              897.39   950.99  1020.01  1069.99  1074.57
                             1100.37  1141.58  1178.60  1203.84  1222.56
                             1243.60  1323.10  1340.43  1353.22  1408.54
                             1424.15  1445.27  1462.44  1465.04  1490.17
                             1520.52  1537.35  1577.00  1588.89  1596.03
                             1606.02  1630.44  1663.94  1666.78  1707.81
                             1725.89  1751.29  1782.53  1796.22  1838.05
                             1847.34  1851.34  1872.62  1885.91  1917.96
                             1933.80  1944.71  1960.79  1969.66  1981.11
                             1987.52  2014.53  2023.90  2033.32  2034.16
                             2060.74  2087.97  2116.65  2123.13  2133.06
                             2139.98  2143.90  2146.10  2148.35  2155.16
                             2157.60  2159.69  2176.92  2486.71  2597.63
                             4136.00  4216.63  4286.04  4305.11  4332.71
                             4339.18  4343.54  4345.51  4350.54  4356.02
                             4362.03  4381.59  4382.96  4390.46  4403.77
                             4407.75  4415.02  4456.38  4488.60  4489.85
                             4505.68  4524.59  5056.52  5066.81

 Zero-point correction=                           0.360200 (Hartree/Particle)
 Thermal correction to Energy=                    0.377853
 Thermal correction to Enthalpy=                  0.378797
 Thermal correction to Gibbs Free Energy=         0.313243
 Sum of electronic and zero-point Energies=           -694.213926
 Sum of electronic and thermal Energies=              -694.196273
 Sum of electronic and thermal Enthalpies=            -694.195329
 Sum of electronic and thermal Free Energies=         -694.260883

                     E (Thermal)             CV                S
                      KCal/Mol        Cal/Mol-Kelvin    Cal/Mol-Kelvin
 Total                  237.106             66.357            137.970
 Electronic               0.000              0.000              0.000
 Translational            0.889              2.981             42.124
 Rotational               0.889              2.981             33.429
 Vibrational            235.329             60.396             62.417
 Vibration     1          0.593              1.985              6.143
 Vibration     2          0.594              1.982              5.483
 Vibration     3          0.594              1.981              5.180
 Vibration     4          0.597              1.973              4.416
 Vibration     5          0.601              1.960              3.787
 Vibration     6          0.604              1.949              3.462
 Vibration     7          0.614              1.917              2.851
 Vibration     8          0.616              1.910              2.756
 Vibration     9          0.622              1.890              2.533
 Vibration    10          0.625              1.881              2.454
 Vibration    11          0.633              1.854              2.233
 Vibration    12          0.637              1.842              2.150
 Vibration    13          0.649              1.805              1.929
 Vibration    14          0.669              1.743              1.652
 Vibration    15          0.676              1.723              1.577
 Vibration    16          0.697              1.662              1.382
 Vibration    17          0.728              1.572              1.159
 Vibration    18          0.738              1.545              1.102
 Vibration    19          0.761              1.483              0.985
 Vibration    20          0.772              1.455              0.938
 Vibration    21          0.806              1.368              0.806
 Vibration    22          0.828              1.314              0.734
 Vibration    23          0.853              1.256              0.665
 Vibration    24          0.881              1.193              0.597
 Vibration    25          0.912              1.125              0.530

                           ! Non-Optimized Parameters !
 Normal termination of Gaussian 16 at Mon May 29 15:08:14 2023.
