 Gaussian 16, Revision A.03,
 Gaussian 16:  ES64L-G16RevA.03 25-Dec-2016

 -----------------------------
 # opt freq b3lyp/6-31g(2df,p)
 -----------------------------

 -------------------
 Title Card Required
 -------------------
 Symbolic Z-matrix:
 Charge =  0 Multiplicity = 1

 SCF Done:  E(RB3LYP) =  -237.102958607     A.U. after   11 cycles
 SCF Done:  E(RB3LYP) =  -237.104123600     A.U. after   10 cycles
 SCF Done:  E(RB3LYP) =  -237.104315824     A.U. after    9 cycles
 SCF Done:  E(RB3LYP) =  -237.104324330     A.U. after    8 cycles
 SCF Done:  E(RB3LYP) =  -237.104325463     A.U. after    6 cycles
 Optimization completed.
    -- Stationary point found.
 Normal termination of Gaussian 16 at Sun May 28 00:36:39 2023.

 ----------------------------------------------------------------------
 #N Geom=AllCheck Guess=TCheck SCRF=Check GenChk RB3LYP/6-31G(2df,p) Fr
 eq
 ----------------------------------------------------------------------

 Structure from the checkpoint file:  "CCCqCrCC.chk"
 -------------------
 Title Card Required
 -------------------
 Charge =  0 Multiplicity = 1

                         Standard orientation:
 ---------------------------------------------------------------------
 Center     Atomic      Atomic             Coordinates (Angstroms)
 Number     Number       Type             X           Y           Z
 ---------------------------------------------------------------------
      1          6           0       -2.581831   -0.174508   -0.293931
      2          6           0       -1.262457   -0.679611    0.299074
      3          6           0        0.000000    0.051580   -0.197468
      4          6           0       -0.000000    1.532837    0.207379
      5          6           0        1.262458   -0.679611    0.299075
      6          6           0        2.581831   -0.174508   -0.293931
      7          1           0       -3.422465   -0.787505    0.046549
      8          1           0       -2.564281   -0.216230   -1.389130
      9          1           0       -2.794898    0.859223   -0.005437
     10          1           0       -1.158226   -1.747261    0.066417
     11          1           0       -1.304524   -0.613185    1.395514
     12          1           0        0.000000    0.001392   -1.297754
     13          1           0       -0.000001    1.636360    1.299805
     14          1           0       -0.879834    2.057549   -0.175535
     15          1           0        0.879833    2.057549   -0.175534
     16          1           0        1.158227   -1.747261    0.066419
     17          1           0        1.304525   -0.613184    1.395514
     18          1           0        2.564281   -0.216232   -1.389130
     19          1           0        3.422466   -0.787504    0.046550
     20          1           0        2.794897    0.859223   -0.005439
 ---------------------------------------------------------------------

 SCF Done:  E(RB3LYP) =  -237.104325463     A.U. after    1 cycles

 The electronic state is 1-A.
 Alpha  occ. eigenvalues --  -10.17903 -10.17279 -10.17279 -10.16850 -10.16850
 Alpha  occ. eigenvalues --  -10.16618  -0.80773  -0.74420  -0.70367  -0.64779
 Alpha  occ. eigenvalues --   -0.59283  -0.54882  -0.46123  -0.44882  -0.42538
 Alpha  occ. eigenvalues --   -0.41118  -0.39091  -0.38381  -0.36842  -0.35737
 Alpha  occ. eigenvalues --   -0.34538  -0.32957  -0.31281  -0.30783  -0.30299
 Alpha virt. eigenvalues --    0.08440   0.11759   0.12093   0.12656   0.15209
 Alpha virt. eigenvalues --    0.15297   0.16255   0.17339   0.17479   0.18138
 Alpha virt. eigenvalues --    0.18396   0.20122   0.22271   0.23011   0.24304

 Mulliken charges:
               1
     1  C   -0.391068
     2  C   -0.163109
     3  C    0.065529
     4  C   -0.389137
     5  C   -0.163109
     6  C   -0.391068
     7  H    0.110232
     8  H    0.111510
     9  H    0.117104
    10  H    0.088748
    11  H    0.089643
    12  H    0.063922
    13  H    0.108317
    14  H    0.112625
    15  H    0.112625
    16  H    0.088748
    17  H    0.089643
    18  H    0.111510
    19  H    0.110232
    20  H    0.117104
 Sum of Mulliken charges =  -0.00000

 Dipole moment (field-independent basis, Debye):
    X=             -0.0000    Y=             -0.0658    Z=             -0.0091  Tot=              0.0664
 Quadrupole moment (field-independent basis, Debye-Ang):
   XX=            -42.0575   YY=            -41.4849   ZZ=            -41.1109
   XY=              0.0000   XZ=             -0.0000   YZ=              0.1520

  Exact polarizability:  77.265  -0.000  64.414   0.000  -0.180  59.861
 Approx polarizability:  91.619  -0.000  90.353   0.000   0.232  90.687

                      1                      2                      3
                      A                      A                      A
 Frequencies --     84.0111                84.1930               200.3107
 Red. masses --      2.2553                 1.4968                 1.8432
 Frc consts  --      0.0094                 0.0063                 0.0436
 IR Inten    --      0.0031                 0.0000                 0.0046

                      4                      5                      6
                      A                      A                      A
 Frequencies --    208.6006               228.6092               269.7216
 Red. masses --      1.0254                 1.3419                 1.2636
 Frc consts  --      0.0263                 0.0413                 0.0542
 IR Inten    --      0.0600                 0.0182                 0.0211

                      7                      8                      9
                      A                      A                      A
 Frequencies --    317.0754               385.2791               436.2192
 Red. masses --      2.1478                 2.5694                 2.1459
 Frc consts  --      0.1272                 0.2247                 0.2406
 IR Inten    --      0.0258                 0.0919                 0.1944

                     10                     11                     12
                      A                      A                      A
 Frequencies --    451.5012               767.5525               770.5308
 Red. masses --      2.1512                 1.6777                 1.1387
 Frc consts  --      0.2584                 0.5823                 0.3983
 IR Inten    --      0.1397                 3.0489                 0.2172

                     13                     14                     15
                      A                      A                      A
 Frequencies --    820.7373               883.8004               960.2053
 Red. masses --      1.4005                 2.1237                 1.2135
 Frc consts  --      0.5558                 0.9774                 0.6592
 IR Inten    --      1.1127                 0.0172                 1.8317

                     16                     17                     18
                      A                      A                      A
 Frequencies --    971.6838               991.8262              1031.2756
 Red. masses --      1.6355                 1.2976                 2.0766
 Frc consts  --      0.9098                 0.7521                 1.3012
 IR Inten    --      1.7606                 5.3779                 0.0909

                     19                     20                     21
                      A                      A                      A
 Frequencies --   1056.4785              1063.3872              1174.6662
 Red. masses --      1.4444                 3.0479                 2.1494
 Frc consts  --      0.9499                 2.0307                 1.7474
 IR Inten    --      1.5602                 0.0410                 0.6001

                     22                     23                     24
                      A                      A                      A
 Frequencies --   1175.7674              1201.9779              1280.4577
 Red. masses --      1.8293                 1.9895                 1.2860
 Frc consts  --      1.4900                 1.6935                 1.2423
 IR Inten    --      5.8914                 0.0664                 3.7394

                     25                     26                     27
                      A                      A                      A
 Frequencies --   1306.5450              1314.0928              1370.8179
 Red. masses --      1.2484                 1.1384                 1.3569
 Frc consts  --      1.2556                 1.1582                 1.5023
 IR Inten    --      1.1802                 2.4626                 0.4418

                     28                     29                     30
                      A                      A                      A
 Frequencies --   1380.1604              1385.4460              1410.6266
 Red. masses --      1.3104                 1.5488                 1.2245
 Frc consts  --      1.4707                 1.7515                 1.4356
 IR Inten    --      1.7022                 0.8392                 1.1410

                     31                     32                     33
                      A                      A                      A
 Frequencies --   1411.8933              1415.5485              1477.7313
 Red. masses --      1.3229                 1.2140                 1.0721
 Frc consts  --      1.5538                 1.4332                 1.3794
 IR Inten    --      3.6450                 2.0632                 0.0055

                     34                     35                     36
                      A                      A                      A
 Frequencies --   1487.4224              1495.5714              1498.7459
 Red. masses --      1.0595                 1.0419                 1.0519
 Frc consts  --      1.3811                 1.3731                 1.3921
 IR Inten    --      1.0310                 8.4142                 0.8712

                     37                     38                     39
                      A                      A                      A
 Frequencies --   1500.7751              1507.6150              1508.9387
 Red. masses --      1.0544                 1.0560                 1.0712
 Frc consts  --      1.3992                 1.4141                 1.4371
 IR Inten    --      0.3280                 3.2876                 6.6376

                     40                     41                     42
                      A                      A                      A
 Frequencies --   1517.2062              2978.6899              3003.3623
 Red. masses --      1.0444                 1.0807                 1.0600
 Frc consts  --      1.4165                 5.6493                 5.6333
 IR Inten    --      3.9703                10.7693                 0.5217

                     43                     44                     45
                      A                      A                      A
 Frequencies --   3010.6752              3027.9056              3030.3502
 Red. masses --      1.0605                 1.0401                 1.0421
 Frc consts  --      5.6635                 5.6182                 5.6380
 IR Inten    --     62.2772                22.2997                37.7026

                     46                     47                     48
                      A                      A                      A
 Frequencies --   3032.0244              3037.2392              3046.3176
 Red. masses --      1.0384                 1.0949                 1.0994
 Frc consts  --      5.6247                 5.9507                 6.0109
 IR Inten    --     11.8023                 1.6812                49.8643

                     49                     50                     51
                      A                      A                      A
 Frequencies --   3094.7931              3094.9998              3095.5287
 Red. masses --      1.1007                 1.0974                 1.0993
 Frc consts  --      6.2113                 6.1935                 6.2064
 IR Inten    --     16.9633                 0.6831                93.0839

                     52                     53                     54
                      A                      A                      A
 Frequencies --   3101.7318              3106.8235              3112.9141
 Red. masses --      1.1015                 1.0994                 1.0999
 Frc consts  --      6.2436                 6.2523                 6.2797
 IR Inten    --     23.6390                80.1644                18.5628

 - Thermochemistry -
 -------------------
 Temperature   298.150 Kelvin.  Pressure   1.00000 Atm.
 Atom     1 has atomic number  6 and mass  12.00000

 Molecular mass:    86.10955 amu.
 Principal axes and moments of inertia in atomic units:
                           1         2         3
     Eigenvalues --   276.78136 982.148501141.12437
           X            1.00000  -0.00000  -0.00000
           Y            0.00000   1.00000  -0.00053
           Z            0.00000   0.00053   1.00000
 This molecule is an asymmetric top.
 Rotational symmetry number  1.
 Rotational temperatures (Kelvin)      0.31293     0.08819     0.07590
 Rotational constants (GHZ):           6.52046     1.83754     1.58155
 Zero-point vibrational energy     493928.3 (Joules/Mol)
                                  118.05169 (Kcal/Mol)
 Warning -- explicit consideration of  10 degrees of freedom as
           vibrations may cause significant error
 Vibrational temperatures:    120.87   121.13   288.20   300.13   328.92
          (Kelvin)            388.07   456.20   554.33   627.62   649.61
                             1104.34  1108.62  1180.86  1271.59  1381.52
                             1398.04  1427.02  1483.78  1520.04  1529.98
                             1690.08  1691.67  1729.38  1842.29  1879.83
                             1890.69  1972.30  1985.74  1993.35  2029.58
                             2031.40  2036.66  2126.13  2140.07  2151.79
                             2156.36  2159.28  2169.12  2171.03  2182.92
                             4285.67  4321.17  4331.69  4356.48  4360.00
                             4362.41  4369.91  4382.97  4452.72  4453.01
                             4453.78  4462.70  4470.03  4478.79

 Zero-point correction=                           0.188127 (Hartree/Particle)
 Thermal correction to Energy=                    0.196528
 Thermal correction to Enthalpy=                  0.197472
 Thermal correction to Gibbs Free Energy=         0.155896
 Sum of electronic and zero-point Energies=           -236.916198
 Sum of electronic and thermal Energies=              -236.907798
 Sum of electronic and thermal Enthalpies=            -236.906854
 Sum of electronic and thermal Free Energies=         -236.948429

                     E (Thermal)             CV                S
                      KCal/Mol        Cal/Mol-Kelvin    Cal/Mol-Kelvin
 Total                  123.323             30.047             87.504
 Electronic               0.000              0.000              0.000
 Translational            0.889              2.981             39.272
 Rotational               0.889              2.981             27.231
 Vibrational            121.546             24.086             21.001
 Vibration     1          0.601              1.960              3.795
 Vibration     2          0.601              1.960              3.791
 Vibration     3          0.638              1.839              2.130
 Vibration     4          0.642              1.828              2.056
 Vibration     5          0.651              1.797              1.890
 Vibration     6          0.674              1.729              1.598
 Vibration     7          0.704              1.641              1.325
 Vibration     8          0.754              1.502              1.018
 Vibration     9          0.797              1.391              0.839
 Vibration    10          0.810              1.358              0.791

                           ! Non-Optimized Parameters !
 Normal termination of Gaussian 16 at Sun May 28 00:55:24 2023.
