 Gaussian 16, Revision A.03,
 Gaussian 16:  ES64L-G16RevA.03 25-Dec-2016

 -----------------------------
 # opt freq b3lyp/6-31g(2df,p)
 -----------------------------

 -------------------
 Title Card Required
 -------------------
 Symbolic Z-matrix:
 Charge =  0 Multiplicity = 1

 SCF Done:  E(RB3LYP) =  -623.390100282     A.U. after   12 cycles
 SCF Done:  E(RB3LYP) =  -623.408427976     A.U. after   11 cycles
 SCF Done:  E(RB3LYP) =  -623.413324301     A.U. after   10 cycles
 SCF Done:  E(RB3LYP) =  -623.415343023     A.U. after   11 cycles
 SCF Done:  E(RB3LYP) =  -623.416425545     A.U. after   10 cycles
 SCF Done:  E(RB3LYP) =  -623.417581603     A.U. after   10 cycles
 SCF Done:  E(RB3LYP) =  -623.418876379     A.U. after   10 cycles
 SCF Done:  E(RB3LYP) =  -623.418603359     A.U. after   11 cycles
 SCF Done:  E(RB3LYP) =  -623.420010086     A.U. after   10 cycles
 SCF Done:  E(RB3LYP) =  -623.420133293     A.U. after   10 cycles
 SCF Done:  E(RB3LYP) =  -623.421327142     A.U. after   10 cycles
 SCF Done:  E(RB3LYP) =  -623.421306833     A.U. after   10 cycles
 SCF Done:  E(RB3LYP) =  -623.422376019     A.U. after   10 cycles
 SCF Done:  E(RB3LYP) =  -623.422389438     A.U. after    9 cycles
 SCF Done:  E(RB3LYP) =  -623.422482298     A.U. after    9 cycles
 SCF Done:  E(RB3LYP) =  -623.422493810     A.U. after    8 cycles
 SCF Done:  E(RB3LYP) =  -623.422497532     A.U. after    8 cycles
 SCF Done:  E(RB3LYP) =  -623.422498178     A.U. after    7 cycles
 SCF Done:  E(RB3LYP) =  -623.422498271     A.U. after    6 cycles
 Optimization completed.
    -- Stationary point found.
 Normal termination of Gaussian 16 at Mon May 22 14:37:05 2023.

 ----------------------------------------------------------------------
 #N Geom=AllCheck Guess=TCheck SCRF=Check GenChk RB3LYP/6-31G(2df,p) Fr
 eq
 ----------------------------------------------------------------------

 Structure from the checkpoint file:  "CCCqCOrCCqCrCCCCOC.chk"
 -------------------
 Title Card Required
 -------------------
 Charge =  0 Multiplicity = 1

                         Standard orientation:
 ---------------------------------------------------------------------
 Center     Atomic      Atomic             Coordinates (Angstroms)
 Number     Number       Type             X           Y           Z
 ---------------------------------------------------------------------
      1          6           0        4.373022   -2.120078    0.410780
      2          6           0        3.270961   -1.385632   -0.361861
      3          6           0        3.124750    0.119281   -0.049295
      4          6           0        4.216601    0.975689   -0.713684
      5          8           0        5.549736    0.651209   -0.343592
      6          6           0        1.743155    0.650069   -0.493034
      7          6           0        0.545639    0.267762    0.402717
      8          6           0        0.584660    1.021065    1.741297
      9          6           0       -0.774067    0.513105   -0.354982
     10          6           0       -2.043595    0.043630    0.366446
     11          6           0       -3.303809    0.206210   -0.490270
     12          6           0       -4.567710   -0.252156    0.224149
     13          8           0       -5.669759   -0.066858   -0.637910
     14          6           0       -6.888737   -0.464937   -0.062256
     15          1           0        4.375449   -3.186721    0.163049
     16          1           0        4.214835   -2.036250    1.492860
     17          1           0        5.356937   -1.709509    0.178963
     18          1           0        2.314332   -1.881384   -0.157443
     19          1           0        3.440444   -1.499442   -1.441631
     20          1           0        3.221776    0.258026    1.038914
     21          1           0        4.010370    2.039704   -0.514910
     22          1           0        4.176911    0.840170   -1.801405
     23          1           0        5.634973    0.802450    0.603299
     24          1           0        1.554498    0.291959   -1.514324
     25          1           0        1.776905    1.746684   -0.562840
     26          1           0        0.602825   -0.808952    0.618130
     27          1           0        0.456881    2.099079    1.582418
     28          1           0        1.535453    0.873840    2.262244
     29          1           0       -0.206866    0.688146    2.418350
     30          1           0       -0.716990    0.002535   -1.325641
     31          1           0       -0.862702    1.585219   -0.583790
     32          1           0       -2.172458    0.599833    1.303215
     33          1           0       -1.928236   -1.011858    0.651373
     34          1           0       -3.203796   -0.364004   -1.421891
     35          1           0       -3.429416    1.256572   -0.780475
     36          1           0       -4.711486    0.320692    1.157829
     37          1           0       -4.482355   -1.314984    0.513443
     38          1           0       -7.675463   -0.284847   -0.799269
     39          1           0       -7.119375    0.109291    0.849880
     40          1           0       -6.888485   -1.535104    0.201633
 ---------------------------------------------------------------------

 SCF Done:  E(RB3LYP) =  -623.422498271     A.U. after    1 cycles

 The electronic state is 1-A.
 Alpha  occ. eigenvalues --  -19.13448 -19.13332 -10.22223 -10.22112 -10.22057
 Alpha  occ. eigenvalues --  -10.18549 -10.18274 -10.17944 -10.17660 -10.17642
 Alpha  occ. eigenvalues --  -10.17596 -10.17451 -10.17227 -10.16304  -1.02814
 Alpha  occ. eigenvalues --   -1.01315  -0.82349  -0.79644  -0.76993  -0.72651
 Alpha  occ. eigenvalues --   -0.71234  -0.67422  -0.66242  -0.62708  -0.61041
 Alpha  occ. eigenvalues --   -0.58439  -0.56925  -0.55381  -0.49142  -0.48633
 Alpha  occ. eigenvalues --   -0.47856  -0.46971  -0.46616  -0.44946  -0.44412
 Alpha  occ. eigenvalues --   -0.42662  -0.42263  -0.41477  -0.39963  -0.39753
 Alpha  occ. eigenvalues --   -0.38904  -0.38462  -0.36803  -0.36252  -0.35491
 Alpha  occ. eigenvalues --   -0.34427  -0.34157  -0.33351  -0.33046  -0.32681
 Alpha  occ. eigenvalues --   -0.31871  -0.31451  -0.31142  -0.30958  -0.29680
 Alpha  occ. eigenvalues --   -0.25720  -0.25072
 Alpha virt. eigenvalues --    0.07298   0.08397   0.09230   0.10233   0.10419
 Alpha virt. eigenvalues --    0.10701   0.12219   0.12858   0.13031   0.14016
 Alpha virt. eigenvalues --    0.14366   0.14480   0.16199   0.16326   0.16551

 Mulliken charges:
               1
     1  C   -0.395089
     2  C   -0.158756
     3  C   -0.013231
     4  C   -0.064418
     5  O   -0.416697
     6  C   -0.204999
     7  C    0.015896
     8  C   -0.390833
     9  C   -0.180761
    10  C   -0.199947
    11  C   -0.195090
    12  C   -0.050730
    13  O   -0.230208
    14  C   -0.226310
    15  H    0.105070
    16  H    0.101230
    17  H    0.137113
    18  H    0.092768
    19  H    0.093700
    20  H    0.056917
    21  H    0.082998
    22  H    0.108312
    23  H    0.279398
    24  H    0.090269
    25  H    0.084349
    26  H    0.072766
    27  H    0.110376
    28  H    0.111550
    29  H    0.115737
    30  H    0.091138
    31  H    0.091252
    32  H    0.097832
    33  H    0.092634
    34  H    0.104280
    35  H    0.104335
    36  H    0.080484
    37  H    0.080668
    38  H    0.124853
    39  H    0.100505
    40  H    0.100642
 Sum of Mulliken charges =  -0.00000

 Dipole moment (field-independent basis, Debye):
    X=             -1.0446    Y=              0.0716    Z=              1.8415  Tot=              2.1184
 Quadrupole moment (field-independent basis, Debye-Ang):
   XX=            -99.3609   YY=            -90.4220   ZZ=            -90.8758
   XY=              4.1834   XZ=              1.0783   YZ=              1.3621

  Exact polarizability: 179.063  -1.124 127.130   0.711  -0.113 123.435
 Approx polarizability: 196.935  -1.334 188.641   1.582   0.439 191.280

                      1                      2                      3
                      A                      A                      A
 Frequencies --     19.3841                30.3491                44.0516
 Red. masses --      3.5642                 2.8792                 2.4089
 Frc consts  --      0.0008                 0.0016                 0.0028
 IR Inten    --      0.0567                 0.1908                 1.1813

                      4                      5                      6
                      A                      A                      A
 Frequencies --     61.0922                62.2475                80.9758
 Red. masses --      2.8372                 2.7117                 2.2656
 Frc consts  --      0.0062                 0.0062                 0.0088
 IR Inten    --      0.8342                 0.4721                 0.4393

                      7                      8                      9
                      A                      A                      A
 Frequencies --     96.4597               117.3515               128.9943
 Red. masses --      2.7935                 2.3034                 1.8810
 Frc consts  --      0.0153                 0.0187                 0.0184
 IR Inten    --      2.5186                 1.0940                 0.1524

                     10                     11                     12
                      A                      A                      A
 Frequencies --    147.7556               155.3774               193.2455
 Red. masses --      1.9595                 2.7748                 3.0151
 Frc consts  --      0.0252                 0.0395                 0.0663
 IR Inten    --      1.0296                 0.2379                 1.8753

                     13                     14                     15
                      A                      A                      A
 Frequencies --    209.7179               224.1333               237.0194
 Red. masses --      2.5966                 1.3549                 1.2583
 Frc consts  --      0.0673                 0.0401                 0.0416
 IR Inten    --      0.4959                 0.0626                 2.3983

                     16                     17                     18
                      A                      A                      A
 Frequencies --    246.9328               265.5046               306.4052
 Red. masses --      1.9044                 1.6479                 2.4496
 Frc consts  --      0.0684                 0.0684                 0.1355
 IR Inten    --      3.9527                 4.1691                 0.1316

                     19                     20                     21
                      A                      A                      A
 Frequencies --    318.5664               332.6913               355.9229
 Red. masses --      1.9249                 1.4457                 2.6654
 Frc consts  --      0.1151                 0.0943                 0.1989
 IR Inten    --     27.6218                81.1887                 3.9242

                     22                     23                     24
                      A                      A                      A
 Frequencies --    407.9519               422.9230               440.3942
 Red. masses --      2.2202                 3.3684                 2.2109
 Frc consts  --      0.2177                 0.3550                 0.2526
 IR Inten    --      4.7739                 2.5398                10.0099

                     25                     26                     27
                      A                      A                      A
 Frequencies --    475.9248               535.7571               578.1554
 Red. masses --      2.4148                 2.7997                 2.7753
 Frc consts  --      0.3223                 0.4735                 0.5466
 IR Inten    --      6.8355                 0.7976                 4.3945

                     28                     29                     30
                      A                      A                      A
 Frequencies --    742.3813               766.6511               793.8357
 Red. masses --      1.0949                 1.4095                 1.2110
 Frc consts  --      0.3555                 0.4881                 0.4496
 IR Inten    --      2.1505                 7.8255                 0.4656

                     31                     32                     33
                      A                      A                      A
 Frequencies --    799.5483               851.3201               886.5019
 Red. masses --      1.7489                 2.2229                 1.4974
 Frc consts  --      0.6587                 0.9492                 0.6933
 IR Inten    --      0.8019                 1.8014                 1.8765

                     34                     35                     36
                      A                      A                      A
 Frequencies --    910.4745               937.9517               959.2793
 Red. masses --      1.2468                 2.2113                 1.3885
 Frc consts  --      0.6090                 1.1462                 0.7528
 IR Inten    --      1.5168                11.9678                 8.8390

                     37                     38                     39
                      A                      A                      A
 Frequencies --    976.8446               984.0304              1019.0655
 Red. masses --      3.9927                 1.9492                 1.3447
 Frc consts  --      2.2447                 1.1120                 0.8228
 IR Inten    --     18.5738                 2.1795                 0.9782

                     40                     41                     42
                      A                      A                      A
 Frequencies --   1019.8061              1043.5725              1048.0855
 Red. masses --      2.9208                 2.8225                 3.0374
 Frc consts  --      1.7897                 1.8110                 1.9658
 IR Inten    --      4.8461                 2.6959                 2.3342

                     43                     44                     45
                      A                      A                      A
 Frequencies --   1063.7066              1074.9139              1077.2853
 Red. masses --      2.4768                 1.7084                 2.3527
 Frc consts  --      1.6512                 1.1630                 1.6087
 IR Inten    --     79.8185                 4.6862                 5.1935

                     46                     47                     48
                      A                      A                      A
 Frequencies --   1093.7448              1123.1555              1144.5712
 Red. masses --      2.6243                 2.1198                 1.9651
 Frc consts  --      1.8497                 1.5756                 1.5168
 IR Inten    --     23.2271                 0.9089                 1.2257

                     49                     50                     51
                      A                      A                      A
 Frequencies --   1165.0074              1168.3241              1175.9129
 Red. masses --      3.5765                 2.3167                 1.3767
 Frc consts  --      2.8600                 1.8632                 1.1216
 IR Inten    --    134.8634                56.9354                 0.3905

                     52                     53                     54
                      A                      A                      A
 Frequencies --   1192.6731              1212.5562              1220.7543
 Red. masses --      1.7917                 1.4629                 1.4514
 Frc consts  --      1.5016                 1.2673                 1.2744
 IR Inten    --      4.3819                 2.6757                23.0252

                     55                     56                     57
                      A                      A                      A
 Frequencies --   1224.3087              1253.0735              1262.2130
 Red. masses --      1.5299                 1.3334                 1.3662
 Frc consts  --      1.3511                 1.2335                 1.2824
 IR Inten    --     31.5032                 2.1797                 1.2784

                     58                     59                     60
                      A                      A                      A
 Frequencies --   1282.8980              1296.4734              1313.9518
 Red. masses --      1.2706                 1.2329                 1.1051
 Frc consts  --      1.2321                 1.2210                 1.1241
 IR Inten    --      4.2251                 0.2200                 0.2592

                     61                     62                     63
                      A                      A                      A
 Frequencies --   1316.7807              1324.9314              1331.9354
 Red. masses --      1.1874                 1.1903                 1.1362
 Frc consts  --      1.2130                 1.2311                 1.1876
 IR Inten    --      0.9411                 0.1527                 0.5498

                     64                     65                     66
                      A                      A                      A
 Frequencies --   1347.9889              1362.4363              1376.6790
 Red. masses --      1.2897                 1.3643                 1.3748
 Frc consts  --      1.3807                 1.4921                 1.5352
 IR Inten    --      2.6303                 2.1485                 2.3612

                     67                     68                     69
                      A                      A                      A
 Frequencies --   1382.1842              1394.5256              1398.5891
 Red. masses --      1.3602                 1.3832                 1.4580
 Frc consts  --      1.5310                 1.5848                 1.6804
 IR Inten    --      1.5239                 0.8183                 0.4017

                     70                     71                     72
                      A                      A                      A
 Frequencies --   1402.4748              1410.0842              1413.2096
 Red. masses --      1.3671                 1.2181                 1.2894
 Frc consts  --      1.5843                 1.4270                 1.5172
 IR Inten    --      6.1798                12.3785                 8.8773

                     73                     74                     75
                      A                      A                      A
 Frequencies --   1424.4157              1428.1603              1475.8405
 Red. masses --      1.2689                 1.4003                 1.0788
 Frc consts  --      1.5169                 1.6827                 1.3845
 IR Inten    --     34.8297                34.6056                 0.2815

                     76                     77                     78
                      A                      A                      A
 Frequencies --   1481.7746              1482.9405              1485.2869
 Red. masses --      1.1642                 1.0829                 1.0468
 Frc consts  --      1.5060                 1.4031                 1.3607
 IR Inten    --      0.3022                 1.2644                 4.6847

                     79                     80                     81
                      A                      A                      A
 Frequencies --   1488.5811              1490.9436              1496.2318
 Red. masses --      1.0799                 1.0844                 1.0451
 Frc consts  --      1.4099                 1.4202                 1.3785
 IR Inten    --      0.8860                 0.4446                 3.6290

                     82                     83                     84
                      A                      A                      A
 Frequencies --   1498.0115              1502.4270              1505.5192
 Red. masses --      1.0580                 1.0745                 1.0813
 Frc consts  --      1.3988                 1.4290                 1.4440
 IR Inten    --      0.5492                 5.1294                 0.4192

                     85                     86                     87
                      A                      A                      A
 Frequencies --   1507.5154              1510.5777              1520.2814
 Red. masses --      1.0548                 1.0800                 1.0566
 Frc consts  --      1.4124                 1.4520                 1.4388
 IR Inten    --      9.3066                 4.3584                 4.0793

                     88                     89                     90
                      A                      A                      A
 Frequencies --   1532.8625              2935.9693              2960.7531
 Red. masses --      1.0956                 1.0526                 1.1045
 Frc consts  --      1.5168                 5.3457                 5.7047
 IR Inten    --      0.8617                35.0075                55.5213

                     91                     92                     93
                      A                      A                      A
 Frequencies --   2964.8161              2969.2991              2981.7442
 Red. masses --      1.0385                 1.0703                 1.0781
 Frc consts  --      5.3783                 5.5599                 5.6475
 IR Inten    --     78.2733                49.7802                14.1867

                     94                     95                     96
                      A                      A                      A
 Frequencies --   2994.5866              2996.6899              3003.9014
 Red. masses --      1.0731                 1.0605                 1.0647
 Frc consts  --      5.6700                 5.6109                 5.6607
 IR Inten    --      3.4695                 4.1363                 9.7662

                     97                     98                     99
                      A                      A                      A
 Frequencies --   3004.8048              3010.3842              3012.7020
 Red. masses --      1.1028                 1.0644                 1.0631
 Frc consts  --      5.8667                 5.6830                 5.6851
 IR Inten    --     60.8658                58.1313                29.0969

                    100                    101                    102
                      A                      A                      A
 Frequencies --   3027.8631              3028.6864              3029.9105
 Red. masses --      1.0496                 1.0478                 1.0661
 Frc consts  --      5.6697                 5.6627                 5.7662
 IR Inten    --     13.6700                33.2619                 9.8050

                    103                    104                    105
                      A                      A                      A
 Frequencies --   3031.0083              3038.3355              3049.1375
 Red. masses --      1.0762                 1.0979                 1.0954
 Frc consts  --      5.8253                 5.9716                 6.0005
 IR Inten    --     33.6199                22.6294                27.7457

                    106                    107                    108
                      A                      A                      A
 Frequencies --   3052.8384              3058.1425              3077.1028
 Red. masses --      1.1000                 1.0947                 1.1047
 Frc consts  --      6.0402                 6.0320                 6.1628
 IR Inten    --     27.6577                60.9611                80.9458

                    109                    110                    111
                      A                      A                      A
 Frequencies --   3087.9829              3095.1585              3108.9242
 Red. masses --      1.0993                 1.0968                 1.0998
 Frc consts  --      6.1761                 6.1905                 6.2628
 IR Inten    --     49.2039                35.6001                42.8253

                    112                    113                    114
                      A                      A                      A
 Frequencies --   3109.8316              3140.1941              3813.0479
 Red. masses --      1.0953                 1.0979                 1.0661
 Frc consts  --      6.2411                 6.3783                 9.1322
 IR Inten    --     30.9554                14.1091                16.1262

 - Thermochemistry -
 -------------------
 Temperature   298.150 Kelvin.  Pressure   1.00000 Atm.
 Atom     1 has atomic number  6 and mass  12.00000

 Molecular mass:   202.19328 amu.
 Principal axes and moments of inertia in atomic units:
                           1         2         3
     Eigenvalues --   967.98773********************
           X            1.00000  -0.00213  -0.00130
           Y            0.00213   0.99999   0.00325
           Z            0.00129  -0.00326   0.99999
 This molecule is an asymmetric top.
 Rotational symmetry number  1.
 Warning -- assumption of classical behavior for rotation
           may cause significant error
 Rotational temperatures (Kelvin)      0.08948     0.00746     0.00731
 Rotational constants (GHZ):           1.86443     0.15547     0.15232
 Zero-point vibrational energy     965728.3 (Joules/Mol)
                                  230.81460 (Kcal/Mol)
 Warning -- explicit consideration of  27 degrees of freedom as
           vibrations may cause significant error
 Vibrational temperatures:     27.89    43.67    63.38    87.90    89.56
          (Kelvin)            116.51   138.78   168.84   185.59   212.59
                              223.55   278.04   301.74   322.48   341.02
                              355.28   382.00   440.85   458.35   478.67
                              512.09   586.95   608.49   633.63   684.75
                              770.83   831.84  1068.12  1103.04  1142.15
                             1150.37  1224.86  1275.48  1309.97  1349.50
                             1380.19  1405.46  1415.80  1466.21  1467.27
                             1501.47  1507.96  1530.44  1546.56  1549.97
                             1573.65  1615.97  1646.78  1676.19  1680.96
                             1691.88  1715.99  1744.60  1756.39  1761.51
                             1802.89  1816.04  1845.80  1865.34  1890.48
                             1894.55  1906.28  1916.36  1939.46  1960.24
                             1980.73  1988.65  2006.41  2012.26  2017.85
                             2028.80  2033.29  2049.42  2054.80  2123.41
                             2131.94  2133.62  2137.00  2141.74  2145.14
                             2152.74  2155.30  2161.66  2166.11  2168.98
                             2173.38  2187.35  2205.45  4224.20  4259.86
                             4265.71  4272.16  4290.06  4308.54  4311.57
                             4321.94  4323.24  4331.27  4334.61  4356.42
                             4357.60  4359.37  4360.94  4371.49  4387.03
                             4392.35  4399.98  4427.26  4442.92  4453.24
                             4473.05  4474.35  4518.04  5486.13

 Zero-point correction=                           0.367826 (Hartree/Particle)
 Thermal correction to Energy=                    0.386539
 Thermal correction to Enthalpy=                  0.387483
 Thermal correction to Gibbs Free Energy=         0.318812
 Sum of electronic and zero-point Energies=           -623.054672
 Sum of electronic and thermal Energies=              -623.035959
 Sum of electronic and thermal Enthalpies=            -623.035015
 Sum of electronic and thermal Free Energies=         -623.103687

                     E (Thermal)             CV                S
                      KCal/Mol        Cal/Mol-Kelvin    Cal/Mol-Kelvin
 Total                  242.557             66.485            144.532
 Electronic               0.000              0.000              0.000
 Translational            0.889              2.981             41.817
 Rotational               0.889              2.981             33.254
 Vibrational            240.780             60.523             69.461
 Vibration     1          0.593              1.986              6.696
 Vibration     2          0.594              1.984              5.806
 Vibration     3          0.595              1.980              5.068
 Vibration     4          0.597              1.973              4.422
 Vibration     5          0.597              1.972              4.385
 Vibration     6          0.600              1.962              3.867
 Vibration     7          0.603              1.952              3.525
 Vibration     8          0.608              1.935              3.144
 Vibration     9          0.611              1.924              2.961
 Vibration    10          0.617              1.905              2.701
 Vibration    11          0.620              1.897              2.605
 Vibration    12          0.635              1.849              2.196
 Vibration    13          0.642              1.826              2.046
 Vibration    14          0.649              1.804              1.925
 Vibration    15          0.656              1.784              1.825
 Vibration    16          0.661              1.768              1.752
 Vibration    17          0.671              1.736              1.625
 Vibration    18          0.697              1.662              1.382
 Vibration    19          0.705              1.638              1.317
 Vibration    20          0.715              1.610              1.247
 Vibration    21          0.731              1.563              1.140
 Vibration    22          0.773              1.453              0.934
 Vibration    23          0.785              1.420              0.882
 Vibration    24          0.800              1.382              0.825
 Vibration    25          0.833              1.303              0.721
 Vibration    26          0.891              1.171              0.574
 Vibration    27          0.935              1.079              0.489

 Optimization completed.
    -- Stationary point found.
 Normal termination of Gaussian 16 at Mon May 22 17:11:01 2023.
