 Gaussian 16, Revision A.03,
 Gaussian 16:  ES64L-G16RevA.03 25-Dec-2016

 -----------------------------
 # opt freq b3lyp/6-31g(2df,p)
 -----------------------------

 -------------------
 Title Card Required
 -------------------
 Symbolic Z-matrix:
 Charge =  0 Multiplicity = 1

 SCF Done:  E(RB3LYP) =  -661.519697129     A.U. after   12 cycles
 SCF Done:  E(RB3LYP) =  -661.528450136     A.U. after   11 cycles
 SCF Done:  E(RB3LYP) =  -661.530363706     A.U. after   10 cycles
 SCF Done:  E(RB3LYP) =  -661.531138962     A.U. after   11 cycles
 SCF Done:  E(RB3LYP) =  -661.531377160     A.U. after   10 cycles
 SCF Done:  E(RB3LYP) =  -661.531439481     A.U. after   10 cycles
 SCF Done:  E(RB3LYP) =  -661.531460834     A.U. after    9 cycles
 SCF Done:  E(RB3LYP) =  -661.531469249     A.U. after    9 cycles
 SCF Done:  E(RB3LYP) =  -661.531475723     A.U. after    9 cycles
 SCF Done:  E(RB3LYP) =  -661.531477157     A.U. after    8 cycles
 SCF Done:  E(RB3LYP) =  -661.531477945     A.U. after    7 cycles
 SCF Done:  E(RB3LYP) =  -661.531478058     A.U. after    6 cycles
 Optimization completed.
    -- Stationary point found.
 Normal termination of Gaussian 16 at Thu May 25 00:40:13 2023.

 ----------------------------------------------------------------------
 #N Geom=AllCheck Guess=TCheck SCRF=Check GenChk RB3LYP/6-31G(2df,p) Fr
 eq
 ----------------------------------------------------------------------

 Structure from the checkpoint file:  "CCCqOrCCCC1CCCCOCC1.chk"
 -------------------
 Title Card Required
 -------------------
 Charge =  0 Multiplicity = 1

                         Standard orientation:
 ---------------------------------------------------------------------
 Center     Atomic      Atomic             Coordinates (Angstroms)
 Number     Number       Type             X           Y           Z
 ---------------------------------------------------------------------
      1          6           0        6.307980    0.550276   -0.034182
      2          6           0        5.141082   -0.424456    0.139932
      3          6           0        3.767040    0.244190    0.000051
      4          8           0        3.635505    0.900302   -1.262773
      5          6           0        2.612482   -0.735298    0.245239
      6          6           0        1.227738   -0.079993    0.190988
      7          6           0        0.085581   -1.087915    0.369186
      8          6           0       -1.341828   -0.513704    0.223576
      9          6           0       -2.329902   -1.684886    0.047744
     10          6           0       -3.813238   -1.379258   -0.249477
     11          6           0       -4.076040   -0.291022   -1.312059
     12          6           0       -4.279244    1.131589   -0.772478
     13          8           0       -3.176701    1.708439   -0.098680
     14          6           0       -2.964567    1.262848    1.233776
     15          6           0       -1.668348    0.446520    1.381052
     16          1           0        7.270361    0.031738    0.012405
     17          1           0        6.301555    1.314486    0.751006
     18          1           0        6.237602    1.065446   -0.995632
     19          1           0        5.198376   -0.911828    1.121402
     20          1           0        5.213072   -1.231977   -0.604128
     21          1           0        3.698131    1.062028    0.730685
     22          1           0        3.682438    0.220942   -1.945510
     23          1           0        2.759195   -1.218641    1.220455
     24          1           0        2.671693   -1.541554   -0.502773
     25          1           0        1.119788    0.439133   -0.768288
     26          1           0        1.180173    0.697648    0.963316
     27          1           0        0.179624   -1.582580    1.347382
     28          1           0        0.213632   -1.883432   -0.377709
     29          1           0       -1.361491    0.085882   -0.694687
     30          1           0       -2.279334   -2.332211    0.934810
     31          1           0       -1.949986   -2.295055   -0.782764
     32          1           0       -4.349783   -1.125027    0.671638
     33          1           0       -4.265352   -2.318301   -0.589637
     34          1           0       -4.995731   -0.536728   -1.859044
     35          1           0       -3.271940   -0.287905   -2.058154
     36          1           0       -5.165122    1.141638   -0.115247
     37          1           0       -4.491614    1.803927   -1.611447
     38          1           0       -3.832904    0.693722    1.584868
     39          1           0       -2.895957    2.154620    1.871465
     40          1           0       -1.710190   -0.104194    2.331717
     41          1           0       -0.839083    1.154955    1.475417
 ---------------------------------------------------------------------

 SCF Done:  E(RB3LYP) =  -661.531478058     A.U. after    1 cycles

 The electronic state is 1-A.
 Alpha  occ. eigenvalues --  -19.12960 -19.12825 -10.22368 -10.22111 -10.21859
 Alpha  occ. eigenvalues --  -10.17737 -10.17731 -10.17625 -10.17581 -10.17511
 Alpha  occ. eigenvalues --  -10.17348 -10.17131 -10.17124 -10.16991 -10.16722
 Alpha  occ. eigenvalues --   -1.01945  -1.01055  -0.81480  -0.78874  -0.77999
 Alpha  occ. eigenvalues --   -0.75836  -0.71702  -0.70213  -0.67407  -0.62767
 Alpha  occ. eigenvalues --   -0.59750  -0.59276  -0.58752  -0.56999  -0.53852
 Alpha  occ. eigenvalues --   -0.48501  -0.48135  -0.47348  -0.46112  -0.45505
 Alpha  occ. eigenvalues --   -0.44753  -0.44153  -0.43346  -0.41714  -0.41553
 Alpha  occ. eigenvalues --   -0.41017  -0.39418  -0.38306  -0.37710  -0.36749
 Alpha  occ. eigenvalues --   -0.36324  -0.35166  -0.35028  -0.34214  -0.33397
 Alpha  occ. eigenvalues --   -0.33236  -0.32854  -0.32004  -0.31154  -0.30482
 Alpha  occ. eigenvalues --   -0.30314  -0.30077  -0.28497  -0.25914  -0.24032
 Alpha virt. eigenvalues --    0.07287   0.08111   0.09740   0.10217   0.10851
 Alpha virt. eigenvalues --    0.12056   0.12235   0.12825   0.13541   0.13647
 Alpha virt. eigenvalues --    0.14373   0.14907   0.15056   0.16021   0.16246

 Mulliken charges:
               1
     1  C   -0.380456
     2  C   -0.184930
     3  C    0.134159
     4  O   -0.427942
     5  C   -0.204039
     6  C   -0.195738
     7  C   -0.192718
     8  C    0.030127
     9  C   -0.192371
    10  C   -0.218105
    11  C   -0.195199
    12  C   -0.067863
    13  O   -0.242483
    14  C   -0.085587
    15  C   -0.205846
    16  H    0.106697
    17  H    0.113022
    18  H    0.126714
    19  H    0.094140
    20  H    0.082274
    21  H    0.082713
    22  H    0.274134
    23  H    0.092006
    24  H    0.079286
    25  H    0.108260
    26  H    0.095778
    27  H    0.084898
    28  H    0.082237
    29  H    0.085615
    30  H    0.086477
    31  H    0.091271
    32  H    0.094849
    33  H    0.091792
    34  H    0.091201
    35  H    0.102339
    36  H    0.084673
    37  H    0.101881
    38  H    0.091933
    39  H    0.093822
    40  H    0.085839
    41  H    0.105142
 Sum of Mulliken charges =  -0.00000

 Dipole moment (field-independent basis, Debye):
    X=             -0.4525    Y=             -2.2335    Z=              0.4070  Tot=              2.3149
 Quadrupole moment (field-independent basis, Debye-Ang):
   XX=            -91.2548   YY=           -100.8929   ZZ=            -91.5317
   XY=             -2.7452   XZ=              0.1079   YZ=              3.5954

  Exact polarizability: 181.034  -0.201 134.342   5.525   2.516 132.680
 Approx polarizability: 204.709   0.722 200.335   2.215   1.461 208.082

                      1                      2                      3
                      A                      A                      A
 Frequencies --     20.0603                31.5605                45.8682
 Red. masses --      3.0639                 3.7183                 3.7075
 Frc consts  --      0.0007                 0.0022                 0.0046
 IR Inten    --      0.5046                 0.1360                 0.0855

                      4                      5                      6
                      A                      A                      A
 Frequencies --     84.6518                90.3239               110.6431
 Red. masses --      2.9197                 2.4061                 2.2788
 Frc consts  --      0.0123                 0.0116                 0.0164
 IR Inten    --      0.2808                 1.3088                 0.2536

                      7                      8                      9
                      A                      A                      A
 Frequencies --    121.5869               146.2828               189.2607
 Red. masses --      1.8213                 2.3865                 2.9237
 Frc consts  --      0.0159                 0.0301                 0.0617
 IR Inten    --      0.5620                 0.1132                 1.0264

                     10                     11                     12
                      A                      A                      A
 Frequencies --    195.0171               202.4905               222.4732
 Red. masses --      2.9054                 3.5598                 1.4073
 Frc consts  --      0.0651                 0.0860                 0.0410
 IR Inten    --      0.3548                 1.6566                 0.8997

                     13                     14                     15
                      A                      A                      A
 Frequencies --    231.5707               271.7493               300.5275
 Red. masses --      1.7912                 3.0614                 1.0760
 Frc consts  --      0.0566                 0.1332                 0.0573
 IR Inten    --      0.4867                 3.8007               113.6380

                     16                     17                     18
                      A                      A                      A
 Frequencies --    302.8332               332.3257               351.3992
 Red. masses --      2.5814                 2.6993                 2.9868
 Frc consts  --      0.1395                 0.1756                 0.2173
 IR Inten    --      0.5216                 6.2825                11.2764

                     19                     20                     21
                      A                      A                      A
 Frequencies --    387.5721               412.7624               444.9441
 Red. masses --      2.1254                 2.6410                 2.4677
 Frc consts  --      0.1881                 0.2651                 0.2878
 IR Inten    --      0.8212                 5.0824                 3.8914

                     22                     23                     24
                      A                      A                      A
 Frequencies --    474.0523               485.4818               516.8836
 Red. masses --      2.4760                 2.6249                 1.7538
 Frc consts  --      0.3278                 0.3645                 0.2761
 IR Inten    --      5.1241                 5.1179                 2.6034

                     25                     26                     27
                      A                      A                      A
 Frequencies --    537.1718               616.3736               722.4236
 Red. masses --      2.8941                 2.9713                 1.8604
 Frc consts  --      0.4920                 0.6651                 0.5721
 IR Inten    --     10.7734                 1.0420                 2.1462

                     28                     29                     30
                      A                      A                      A
 Frequencies --    736.8968               777.5761               784.9940
 Red. masses --      1.1454                 1.3331                 1.7536
 Frc consts  --      0.3664                 0.4749                 0.6367
 IR Inten    --      0.7456                 0.4231                 0.7840

                     31                     32                     33
                      A                      A                      A
 Frequencies --    807.7533               817.5891               857.0803
 Red. masses --      1.8088                 1.7265                 2.2124
 Frc consts  --      0.6953                 0.6800                 0.9575
 IR Inten    --      1.6265                 2.9043                 1.7292

                     34                     35                     36
                      A                      A                      A
 Frequencies --    875.8605               884.1763               947.5955
 Red. masses --      2.0017                 1.8247                 1.8959
 Frc consts  --      0.9047                 0.8404                 1.0030
 IR Inten    --      5.1566                14.2029                 8.4599

                     37                     38                     39
                      A                      A                      A
 Frequencies --    954.3057               964.2568               989.6175
 Red. masses --      2.4315                 2.0390                 1.9741
 Frc consts  --      1.3047                 1.1170                 1.1391
 IR Inten    --      8.0816                10.4599                 6.3848

                     40                     41                     42
                      A                      A                      A
 Frequencies --   1004.1932              1013.6342              1026.0112
 Red. masses --      2.1948                 2.2904                 1.6461
 Frc consts  --      1.3040                 1.3865                 1.0210
 IR Inten    --     10.2457                 2.6663                 1.6542

                     43                     44                     45
                      A                      A                      A
 Frequencies --   1033.0320              1047.0755              1054.1839
 Red. masses --      2.2882                 2.4023                 2.1319
 Frc consts  --      1.4387                 1.5518                 1.3959
 IR Inten    --      2.7734                10.7261                 2.0504

                     46                     47                     48
                      A                      A                      A
 Frequencies --   1071.9108              1097.4210              1098.5591
 Red. masses --      2.4450                 2.1013                 1.8671
 Frc consts  --      1.6552                 1.4910                 1.3276
 IR Inten    --     10.8372                 8.5730                10.5754

                     49                     50                     51
                      A                      A                      A
 Frequencies --   1115.4640              1122.9425              1140.2014
 Red. masses --      1.8272                 2.3629                 2.3951
 Frc consts  --      1.3395                 1.7555                 1.8346
 IR Inten    --     18.1161                 6.1471               137.9610

                     52                     53                     54
                      A                      A                      A
 Frequencies --   1149.0700              1170.5594              1177.2817
 Red. masses --      2.1917                 2.5634                 1.9836
 Frc consts  --      1.7050                 2.0694                 1.6198
 IR Inten    --     12.2150                28.3580                 6.0036

                     55                     56                     57
                      A                      A                      A
 Frequencies --   1197.6082              1236.7269              1254.8592
 Red. masses --      1.3228                 1.3033                 1.3891
 Frc consts  --      1.1178                 1.1745                 1.2887
 IR Inten    --      2.1322                 5.7824                 6.2204

                     58                     59                     60
                      A                      A                      A
 Frequencies --   1258.4184              1264.3448              1286.5580
 Red. masses --      1.2487                 1.3197                 1.2444
 Frc consts  --      1.1651                 1.2429                 1.2135
 IR Inten    --      3.8232                 3.5586                 2.0062

                     61                     62                     63
                      A                      A                      A
 Frequencies --   1296.2268              1309.3931              1311.7438
 Red. masses --      1.2098                 1.2548                 1.1832
 Frc consts  --      1.1976                 1.2675                 1.1995
 IR Inten    --     13.0612                 2.4290                 1.4641

                     64                     65                     66
                      A                      A                      A
 Frequencies --   1322.9148              1329.4802              1340.3901
 Red. masses --      1.1830                 1.1888                 1.1660
 Frc consts  --      1.2198                 1.2380                 1.2343
 IR Inten    --      0.1699                 8.0097                 0.3642

                     67                     68                     69
                      A                      A                      A
 Frequencies --   1359.6903              1364.4425              1371.7676
 Red. masses --      1.2885                 1.2721                 1.3124
 Frc consts  --      1.4035                 1.3954                 1.4550
 IR Inten    --      7.1523                 4.4863                 1.6844

                     70                     71                     72
                      A                      A                      A
 Frequencies --   1374.1809              1383.8067              1389.9761
 Red. masses --      1.3801                 1.4257                 1.5052
 Frc consts  --      1.5355                 1.6085                 1.7134
 IR Inten    --      1.3937                 2.0785                 1.8841

                     73                     74                     75
                      A                      A                      A
 Frequencies --   1396.1137              1401.4145              1405.9330
 Red. masses --      1.5347                 1.3004                 1.2350
 Frc consts  --      1.7624                 1.5048                 1.4382
 IR Inten    --      1.2751                15.9061                 9.2642

                     76                     77                     78
                      A                      A                      A
 Frequencies --   1409.8166              1414.3123              1421.3117
 Red. masses --      1.3616                 1.3368                 1.2103
 Frc consts  --      1.5945                 1.5754                 1.4405
 IR Inten    --      4.7925                10.4959                30.5775

                     79                     80                     81
                      A                      A                      A
 Frequencies --   1428.6832              1472.2280              1473.2578
 Red. masses --      1.2873                 1.0824                 1.0854
 Frc consts  --      1.5482                 1.3823                 1.3880
 IR Inten    --      2.9383                 0.0895                 0.1675

                     82                     83                     84
                      A                      A                      A
 Frequencies --   1478.4670              1484.1148              1484.8509
 Red. masses --      1.0858                 1.0866                 1.0774
 Frc consts  --      1.3983                 1.4101                 1.3996
 IR Inten    --      4.2922                 0.5832                 2.5090

                     85                     86                     87
                      A                      A                      A
 Frequencies --   1488.7209              1492.7732              1495.5084
 Red. masses --      1.0849                 1.0896                 1.0409
 Frc consts  --      1.4167                 1.4306                 1.3717
 IR Inten    --      2.6413                 1.2752                 4.5143

                     88                     89                     90
                      A                      A                      A
 Frequencies --   1497.8349              1507.6254              1509.5700
 Red. masses --      1.0985                 1.0956                 1.0623
 Frc consts  --      1.4520                 1.4672                 1.4263
 IR Inten    --      2.3735                 1.2799                 4.9816

                     91                     92                     93
                      A                      A                      A
 Frequencies --   1524.0601              2961.5256              2985.5565
 Red. masses --      1.0838                 1.0696                 1.0647
 Frc consts  --      1.4832                 5.5273                 5.5914
 IR Inten    --      5.4204                51.1623                 5.5918

                     94                     95                     96
                      A                      A                      A
 Frequencies --   2993.2584              2997.1334              3000.5736
 Red. masses --      1.0598                 1.0677                 1.0608
 Frc consts  --      5.5946                 5.6508                 5.6271
 IR Inten    --      4.3631                16.7358                21.4011

                     97                     98                     99
                      A                      A                      A
 Frequencies --   3002.5562              3014.5717              3016.5274
 Red. masses --      1.0622                 1.0684                 1.0633
 Frc consts  --      5.6419                 5.7204                 5.7005
 IR Inten    --     60.1410                67.3661                 6.6576

                    100                    101                    102
                      A                      A                      A
 Frequencies --   3018.8107              3022.8296              3024.1842
 Red. masses --      1.0784                 1.0905                 1.0865
 Frc consts  --      5.7905                 5.8707                 5.8546
 IR Inten    --     20.4952                 3.2578                 2.9709

                    103                    104                    105
                      A                      A                      A
 Frequencies --   3030.7602              3032.0834              3034.7933
 Red. masses --      1.0738                 1.0726                 1.0815
 Frc consts  --      5.8115                 5.8101                 5.8687
 IR Inten    --     37.9229                24.4279                22.4613

                    106                    107                    108
                      A                      A                      A
 Frequencies --   3036.6759              3042.0764              3048.1455
 Red. masses --      1.0457                 1.0904                 1.0946
 Frc consts  --      5.6815                 5.9454                 5.9918
 IR Inten    --     27.2551                29.4529                47.5525

                    109                    110                    111
                      A                      A                      A
 Frequencies --   3052.0641              3058.1198              3060.8144
 Red. masses --      1.0942                 1.0943                 1.0980
 Frc consts  --      6.0055                 6.0295                 6.0608
 IR Inten    --     23.4216                51.6184                33.0017

                    112                    113                    114
                      A                      A                      A
 Frequencies --   3066.9931              3076.5536              3080.2973
 Red. masses --      1.0969                 1.1002                 1.0988
 Frc consts  --      6.0791                 6.1353                 6.1428
 IR Inten    --     34.9905               117.2450                50.5917

                    115                    116                    117
                      A                      A                      A
 Frequencies --   3100.1581              3121.6620              3788.2769
 Red. masses --      1.1007                 1.1008                 1.0657
 Frc consts  --      6.2329                 6.3202                 9.0109
 IR Inten    --     40.2211                24.6236                 9.9952

 - Thermochemistry -
 -------------------
 Temperature   298.150 Kelvin.  Pressure   1.00000 Atm.
 Atom     1 has atomic number  6 and mass  12.00000

 Molecular mass:   214.19328 amu.
 Principal axes and moments of inertia in atomic units:
                           1         2         3
     Eigenvalues --  1319.783749949.73948**********
           X            0.99999   0.00243   0.00261
           Y           -0.00252   0.99930   0.03724
           Z           -0.00252  -0.03725   0.99930
 This molecule is an asymmetric top.
 Rotational symmetry number  1.
 Warning -- assumption of classical behavior for rotation
           may cause significant error
 Rotational temperatures (Kelvin)      0.06563     0.00871     0.00843
 Rotational constants (GHZ):           1.36745     0.18139     0.17557
 Zero-point vibrational energy     990948.5 (Joules/Mol)
                                  236.84238 (Kcal/Mol)
 Warning -- explicit consideration of  26 degrees of freedom as
           vibrations may cause significant error
 Vibrational temperatures:     28.86    45.41    65.99   121.80   129.96
          (Kelvin)            159.19   174.94   210.47   272.30   280.59
                              291.34   320.09   333.18   390.99   432.39
                              435.71   478.14   505.59   557.63   593.87
                              640.18   682.06   698.50   743.68   772.87
                              886.82  1039.41  1060.23  1118.76  1129.43
                             1162.18  1176.33  1233.15  1260.17  1272.13
                             1363.38  1373.03  1387.35  1423.84  1444.81
                             1458.39  1476.20  1486.30  1506.51  1516.74
                             1542.24  1578.94  1580.58  1604.90  1615.66
                             1640.50  1653.26  1684.17  1693.85  1723.09
                             1779.37  1805.46  1810.58  1819.11  1851.07
                             1864.98  1883.92  1887.31  1903.38  1912.83
                             1928.52  1956.29  1963.13  1973.67  1977.14
                             1990.99  1999.87  2008.70  2016.32  2022.82
                             2028.41  2034.88  2044.95  2055.56  2118.21
                             2119.69  2127.18  2135.31  2136.37  2141.94
                             2147.77  2151.70  2155.05  2169.14  2171.93
                             2192.78  4260.97  4295.55  4306.63  4312.21
                             4317.16  4320.01  4337.30  4340.11  4343.40
                             4349.18  4351.13  4360.59  4362.49  4366.39
                             4369.10  4376.87  4385.60  4391.24  4399.95
                             4403.83  4412.72  4426.47  4431.86  4460.44
                             4491.38  5450.49

 Zero-point correction=                           0.377432 (Hartree/Particle)
 Thermal correction to Energy=                    0.394738
 Thermal correction to Enthalpy=                  0.395682
 Thermal correction to Gibbs Free Energy=         0.331048
 Sum of electronic and zero-point Energies=           -661.154046
 Sum of electronic and thermal Energies=              -661.136740
 Sum of electronic and thermal Enthalpies=            -661.135796
 Sum of electronic and thermal Free Energies=         -661.200430

                     E (Thermal)             CV                S
                      KCal/Mol        Cal/Mol-Kelvin    Cal/Mol-Kelvin
 Total                  247.702             65.364            136.032
 Electronic               0.000              0.000              0.000
 Translational            0.889              2.981             41.989
 Rotational               0.889              2.981             33.267
 Vibrational            245.924             59.403             60.777
 Vibration     1          0.593              1.986              6.628
 Vibration     2          0.594              1.983              5.729
 Vibration     3          0.595              1.979              4.988
 Vibration     4          0.601              1.960              3.780
 Vibration     5          0.602              1.956              3.653
 Vibration     6          0.606              1.941              3.258
 Vibration     7          0.609              1.931              3.075
 Vibration     8          0.617              1.907              2.720
 Vibration     9          0.633              1.855              2.235
 Vibration    10          0.636              1.847              2.180
 Vibration    11          0.639              1.836              2.110
 Vibration    12          0.648              1.807              1.939
 Vibration    13          0.653              1.793              1.867
 Vibration    14          0.675              1.725              1.585
 Vibration    15          0.693              1.673              1.414
 Vibration    16          0.694              1.668              1.401
 Vibration    17          0.714              1.611              1.249
 Vibration    18          0.728              1.572              1.160
 Vibration    19          0.756              1.497              1.009
 Vibration    20          0.777              1.443              0.917
 Vibration    21          0.804              1.372              0.811
 Vibration    22          0.831              1.308              0.726
 Vibration    23          0.842              1.282              0.695
 Vibration    24          0.872              1.213              0.617
 Vibration    25          0.892              1.168              0.571
 Vibration    26          0.976              0.997              0.422

                           ! Non-Optimized Parameters !
 Normal termination of Gaussian 16 at Thu May 25 04:06:19 2023.
