 Gaussian 16, Revision A.03,
 Gaussian 16:  ES64L-G16RevA.03 25-Dec-2016

 -----------------------------
 # opt freq b3lyp/6-31g(2df,p)
 -----------------------------

 -------------------
 Title Card Required
 -------------------
 Symbolic Z-matrix:
 Charge =  0 Multiplicity = 1

 SCF Done:  E(RB3LYP) =  -737.857315754     A.U. after   13 cycles
 SCF Done:  E(RB3LYP) =  -737.872416001     A.U. after   12 cycles
 SCF Done:  E(RB3LYP) =  -737.877407646     A.U. after   11 cycles
 SCF Done:  E(RB3LYP) =  -737.879191078     A.U. after   11 cycles
 SCF Done:  E(RB3LYP) =  -737.879915320     A.U. after   10 cycles
 SCF Done:  E(RB3LYP) =  -737.880570564     A.U. after   11 cycles
 SCF Done:  E(RB3LYP) =  -737.881074239     A.U. after   12 cycles
 SCF Done:  E(RB3LYP) =  -737.881754178     A.U. after   13 cycles
 SCF Done:  E(RB3LYP) =  -737.881525294     A.U. after   12 cycles
 SCF Done:  E(RB3LYP) =  -737.882956330     A.U. after   13 cycles
 SCF Done:  E(RB3LYP) =  -737.885297148     A.U. after    9 cycles
 SCF Done:  E(RB3LYP) =  -737.885302403     A.U. after    9 cycles
 SCF Done:  E(RB3LYP) =  -737.885303820     A.U. after    7 cycles
 SCF Done:  E(RB3LYP) =  -737.885304318     A.U. after    6 cycles
 SCF Done:  E(RB3LYP) =  -737.885304404     A.U. after    6 cycles
 SCF Done:  E(RB3LYP) =  -737.885306747     A.U. after    8 cycles
 SCF Done:  E(RB3LYP) =  -737.885306828     A.U. after    6 cycles
 SCF Done:  E(RB3LYP) =  -737.885306821     A.U. after    6 cycles
 SCF Done:  E(RB3LYP) =  -737.885306810     A.U. after    5 cycles
 Optimization completed.
    -- Stationary point found.
 Normal termination of Gaussian 16 at Tue May 23 08:05:19 2023.

 ----------------------------------------------------------------------
 #N Geom=AllCheck Guess=TCheck SCRF=Check GenChk RB3LYP/6-31G(2df,p) Fr
 eq
 ----------------------------------------------------------------------

 Structure from the checkpoint file:  "CCCqCrCCCCCOCqCCrCOO.chk"
 -------------------
 Title Card Required
 -------------------
 Charge =  0 Multiplicity = 1

                         Standard orientation:
 ---------------------------------------------------------------------
 Center     Atomic      Atomic             Coordinates (Angstroms)
 Number     Number       Type             X           Y           Z
 ---------------------------------------------------------------------
      1          6           0        7.625990    0.198485    0.430881
      2          6           0        6.236811   -0.305832    0.835344
      3          6           0        5.101398    0.048675   -0.145102
      4          6           0        5.305829   -0.609518   -1.517779
      5          6           0        3.738531   -0.319453    0.472839
      6          6           0        2.509747    0.174018   -0.300579
      7          6           0        1.189866   -0.126533    0.419767
      8          6           0       -0.041827    0.361291   -0.349523
      9          6           0       -1.346782    0.061923    0.375772
     10          8           0       -2.418624    0.562155   -0.404829
     11          6           0       -3.713314    0.379995    0.149145
     12          6           0       -4.604825    1.520188   -0.340721
     13          6           0       -4.162055    2.891430    0.172933
     14          6           0       -4.246788   -0.998534   -0.272009
     15          8           0       -5.456125   -1.210750    0.439423
     16          8           0       -5.906919   -2.547902    0.128812
     17          1           0        8.363057   -0.024149    1.208999
     18          1           0        7.623267    1.283983    0.278725
     19          1           0        7.980314   -0.264834   -0.494839
     20          1           0        5.985532    0.108521    1.820223
     21          1           0        6.266774   -1.396751    0.966539
     22          1           0        5.117151    1.140591   -0.287053
     23          1           0        5.292494   -1.703102   -1.429112
     24          1           0        6.262451   -0.324385   -1.964468
     25          1           0        4.522546   -0.324123   -2.225561
     26          1           0        3.696251    0.091818    1.490781
     27          1           0        3.680843   -1.411897    0.587973
     28          1           0        2.480136   -0.281673   -1.297929
     29          1           0        2.593693    1.257754   -0.463314
     30          1           0        1.207533    0.336615    1.416180
     31          1           0        1.110202   -1.209074    0.591603
     32          1           0       -0.077623   -0.107207   -1.340710
     33          1           0        0.022639    1.443162   -0.518951
     34          1           0       -1.352531    0.537423    1.370787
     35          1           0       -1.447547   -1.023405    0.537661
     36          1           0       -3.659876    0.406496    1.249384
     37          1           0       -5.632627    1.304543   -0.029658
     38          1           0       -4.593114    1.509000   -1.438109
     39          1           0       -4.216630    2.941416    1.266318
     40          1           0       -4.797830    3.686667   -0.227547
     41          1           0       -3.130200    3.097072   -0.123543
     42          1           0       -3.525858   -1.785396   -0.020859
     43          1           0       -4.421688   -1.018831   -1.357318
     44          1           0       -6.651503   -2.355089   -0.459261
 ---------------------------------------------------------------------

 SCF Done:  E(RB3LYP) =  -737.885306810     A.U. after    1 cycles

 The electronic state is 1-A.
 Alpha  occ. eigenvalues --  -19.19095 -19.18831 -19.13896 -10.23292 -10.22543
 Alpha  occ. eigenvalues --  -10.22506 -10.18107 -10.17957 -10.17748 -10.17698
 Alpha  occ. eigenvalues --  -10.17594 -10.17427 -10.17313 -10.16964 -10.16870
 Alpha  occ. eigenvalues --  -10.16777  -1.11355  -1.03174  -0.90956  -0.81588
 Alpha  occ. eigenvalues --   -0.79798  -0.77765  -0.74278  -0.71641  -0.70144
 Alpha  occ. eigenvalues --   -0.66779  -0.63584  -0.62243  -0.59135  -0.58041
 Alpha  occ. eigenvalues --   -0.56996  -0.55094  -0.53086  -0.49865  -0.48737
 Alpha  occ. eigenvalues --   -0.46991  -0.46066  -0.45504  -0.44597  -0.44370
 Alpha  occ. eigenvalues --   -0.43343  -0.42295  -0.41800  -0.41286  -0.40091
 Alpha  occ. eigenvalues --   -0.39453  -0.38367  -0.37720  -0.36855  -0.36223
 Alpha  occ. eigenvalues --   -0.35918  -0.35437  -0.34430  -0.33931  -0.33378
 Alpha  occ. eigenvalues --   -0.33087  -0.32972  -0.32135  -0.31461  -0.30968
 Alpha  occ. eigenvalues --   -0.30893  -0.29632  -0.29250  -0.26492  -0.25140
 Alpha virt. eigenvalues --    0.03195   0.08123   0.08265   0.08746   0.09591
 Alpha virt. eigenvalues --    0.10721   0.11554   0.11694   0.12420   0.12659
 Alpha virt. eigenvalues --    0.13849   0.13892   0.14522   0.15536   0.15786

 Mulliken charges:
               1
     1  C   -0.391732
     2  C   -0.165063
     3  C    0.044435
     4  C   -0.389911
     5  C   -0.180179
     6  C   -0.194763
     7  C   -0.181755
     8  C   -0.200121
     9  C   -0.068948
    10  O   -0.263729
    11  C    0.098541
    12  C   -0.178937
    13  C   -0.390245
    14  C   -0.029880
    15  O   -0.195428
    16  O   -0.316779
    17  H    0.110715
    18  H    0.111775
    19  H    0.117486
    20  H    0.089214
    21  H    0.090215
    22  H    0.065016
    23  H    0.108596
    24  H    0.113060
    25  H    0.114101
    26  H    0.086522
    27  H    0.088233
    28  H    0.097728
    29  H    0.092101
    30  H    0.093811
    31  H    0.094617
    32  H    0.103573
    33  H    0.103606
    34  H    0.088903
    35  H    0.089371
    36  H    0.077633
    37  H    0.109964
    38  H    0.100490
    39  H    0.111139
    40  H    0.110389
    41  H    0.128583
    42  H    0.105568
    43  H    0.091708
    44  H    0.310375
 Sum of Mulliken charges =  -0.00000

 Dipole moment (field-independent basis, Debye):
    X=              0.3233    Y=              0.2962    Z=             -0.6933  Tot=              0.8203
 Quadrupole moment (field-independent basis, Debye-Ang):
   XX=            -98.1947   YY=           -104.5743   ZZ=           -102.9164
   XY=             -1.3759   XZ=              8.2444   YZ=              3.7349

  Exact polarizability: 202.262   3.948 147.972   3.336   1.443 134.294
 Approx polarizability: 220.040   5.384 216.972   1.985   1.071 207.155

                      1                      2                      3
                      A                      A                      A
 Frequencies --     16.3773                18.2924                34.2591
 Red. masses --      2.9086                 3.6140                 4.0984
 Frc consts  --      0.0005                 0.0007                 0.0028
 IR Inten    --      0.0398                 0.0460                 0.2538

                      4                      5                      6
                      A                      A                      A
 Frequencies --     48.1976                60.9436                73.3231
 Red. masses --      3.2648                 1.7484                 3.3168
 Frc consts  --      0.0045                 0.0038                 0.0105
 IR Inten    --      0.1235                 0.7174                 1.4291

                      7                      8                      9
                      A                      A                      A
 Frequencies --     82.5057                84.2547                91.2784
 Red. masses --      2.9822                 2.4017                 2.9589
 Frc consts  --      0.0120                 0.0100                 0.0145
 IR Inten    --      4.8530                 1.5676                 4.1187

                     10                     11                     12
                      A                      A                      A
 Frequencies --    112.9567               126.4441               132.3201
 Red. masses --      2.3117                 2.4475                 2.0594
 Frc consts  --      0.0174                 0.0231                 0.0212
 IR Inten    --      0.5658                 0.9991                 0.3638

                     13                     14                     15
                      A                      A                      A
 Frequencies --    156.6231               162.4520               185.6451
 Red. masses --      2.2564                 2.5969                 2.6892
 Frc consts  --      0.0326                 0.0404                 0.0546
 IR Inten    --      0.1134                 1.8338                 1.6970

                     16                     17                     18
                      A                      A                      A
 Frequencies --    210.4262               219.3858               232.0078
 Red. masses --      1.0746                 1.3164                 2.2382
 Frc consts  --      0.0280                 0.0373                 0.0710
 IR Inten    --      1.3181                61.3692                36.6179

                     19                     20                     21
                      A                      A                      A
 Frequencies --    243.2690               257.5575               262.6475
 Red. masses --      1.5300                 1.2756                 2.8950
 Frc consts  --      0.0533                 0.0499                 0.1177
 IR Inten    --      0.7034                 0.1600                 1.0103

                     22                     23                     24
                      A                      A                      A
 Frequencies --    298.2886               340.4684               362.4191
 Red. masses --      2.7146                 3.5427                 3.4740
 Frc consts  --      0.1423                 0.2420                 0.2688
 IR Inten    --      1.1616                 1.7703                 1.9188

                     25                     26                     27
                      A                      A                      A
 Frequencies --    372.6821               409.6870               446.2527
 Red. masses --      3.2767                 2.1905                 2.7720
 Frc consts  --      0.2681                 0.2166                 0.3252
 IR Inten    --      1.4170                 0.8483                 0.4222

                     28                     29                     30
                      A                      A                      A
 Frequencies --    487.5479               516.6380               536.4765
 Red. masses --      2.7806                 3.0180                 2.8643
 Frc consts  --      0.3894                 0.4746                 0.4857
 IR Inten    --      0.4053                 1.7425                 5.7808

                     31                     32                     33
                      A                      A                      A
 Frequencies --    561.4642               735.1246               762.3722
 Red. masses --      3.1660                 1.0774                 1.1306
 Frc consts  --      0.5880                 0.3431                 0.3872
 IR Inten    --      5.9027                 2.3885                 0.2389

                     34                     35                     36
                      A                      A                      A
 Frequencies --    773.5091               777.3193               818.6540
 Red. masses --      1.3704                 1.3319                 1.6406
 Frc consts  --      0.4831                 0.4742                 0.6478
 IR Inten    --      3.1877                 0.5730                 0.2561

                     37                     38                     39
                      A                      A                      A
 Frequencies --    846.3647               852.4199               911.5346
 Red. masses --      1.3657                 1.7488                 2.1628
 Frc consts  --      0.5764                 0.7487                 1.0588
 IR Inten    --      1.0351                 3.3954                 1.4234

                     40                     41                     42
                      A                      A                      A
 Frequencies --    939.1958               941.7196               962.9561
 Red. masses --      7.2122                 1.2682                 2.1606
 Frc consts  --      3.7482                 0.6626                 1.1804
 IR Inten    --     26.3669                 1.4370                 3.3656

                     43                     44                     45
                      A                      A                      A
 Frequencies --    973.8301               984.7858              1004.4657
 Red. masses --      1.2281                 1.3999                 1.7486
 Frc consts  --      0.6862                 0.7999                 1.0395
 IR Inten    --      3.0597                 1.9327                 1.4613

                     46                     47                     48
                      A                      A                      A
 Frequencies --   1012.9824              1027.7642              1034.6256
 Red. masses --      2.8783                 2.8732                 2.9778
 Frc consts  --      1.7401                 1.7881                 1.8781
 IR Inten    --      1.5029                 4.9766                 1.4386

                     49                     50                     51
                      A                      A                      A
 Frequencies --   1051.1832              1054.6272              1061.7335
 Red. masses --      1.9771                 2.3505                 2.3853
 Frc consts  --      1.2872                 1.5403                 1.5842
 IR Inten    --      0.5337                 8.4522                 3.8839

                     52                     53                     54
                      A                      A                      A
 Frequencies --   1072.2645              1089.4954              1114.7227
 Red. masses --      2.3221                 2.8310                 4.0180
 Frc consts  --      1.5730                 1.9799                 2.9417
 IR Inten    --      1.3834                 1.5085                89.2572

                     55                     56                     57
                      A                      A                      A
 Frequencies --   1125.0853              1149.3889              1158.8396
 Red. masses --      3.2444                 2.6119                 2.6897
 Frc consts  --      2.4197                 2.0330                 2.1281
 IR Inten    --     78.8647                90.6176                28.8308

                     58                     59                     60
                      A                      A                      A
 Frequencies --   1176.4053              1183.1236              1195.3257
 Red. masses --      1.8443                 1.8541                 1.8213
 Frc consts  --      1.5038                 1.5291                 1.5332
 IR Inten    --      5.8692                 1.7119                 3.3364

                     61                     62                     63
                      A                      A                      A
 Frequencies --   1215.1800              1232.9480              1247.4709
 Red. masses --      1.5154                 1.2573                 1.3149
 Frc consts  --      1.3185                 1.1261                 1.2056
 IR Inten    --      2.7731                13.4879                 0.8382

                     64                     65                     66
                      A                      A                      A
 Frequencies --   1268.7916              1290.7499              1300.4343
 Red. masses --      1.3115                 1.2614                 1.2060
 Frc consts  --      1.2440                 1.2382                 1.2016
 IR Inten    --      0.5480                 0.8227                 1.9588

                     67                     68                     69
                      A                      A                      A
 Frequencies --   1307.9776              1311.3244              1324.1926
 Red. masses --      1.1911                 1.1223                 1.1454
 Frc consts  --      1.2006                 1.1371                 1.1834
 IR Inten    --      1.3469                 0.1975                 1.1423

                     70                     71                     72
                      A                      A                      A
 Frequencies --   1326.0009              1333.5660              1337.7407
 Red. masses --      1.2378                 1.1239                 1.2314
 Frc consts  --      1.2822                 1.1776                 1.2984
 IR Inten    --     11.6304                 1.8264                 8.7554

                     73                     74                     75
                      A                      A                      A
 Frequencies --   1349.0932              1377.6327              1380.9462
 Red. masses --      1.2731                 1.4149                 1.2983
 Frc consts  --      1.3652                 1.5822                 1.4587
 IR Inten    --     20.2987                 2.2250                 2.0738

                     76                     77                     78
                      A                      A                      A
 Frequencies --   1385.3299              1388.8471              1397.5445
 Red. masses --      1.1698                 1.4521                 1.5661
 Frc consts  --      1.3227                 1.6502                 1.8022
 IR Inten    --     33.3957                 5.9068                 5.5300

                     79                     80                     81
                      A                      A                      A
 Frequencies --   1399.8596              1401.9354              1406.3826
 Red. masses --      1.3916                 1.5048                 1.2688
 Frc consts  --      1.6067                 1.7425                 1.4786
 IR Inten    --     11.0624                 7.5237                 8.4013

                     82                     83                     84
                      A                      A                      A
 Frequencies --   1411.9326              1414.4052              1441.8536
 Red. masses --      1.2974                 1.2389                 1.4508
 Frc consts  --      1.5239                 1.4603                 1.7770
 IR Inten    --      2.7609                 4.4232                 7.8751

                     85                     86                     87
                      A                      A                      A
 Frequencies --   1475.9772              1479.3933              1485.3773
 Red. masses --      1.0764                 1.0788                 1.0728
 Frc consts  --      1.3816                 1.3912                 1.3946
 IR Inten    --      0.2513                 0.7879                 0.0195

                     88                     89                     90
                      A                      A                      A
 Frequencies --   1486.7132              1494.5202              1496.9954
 Red. masses --      1.0732                 1.0775                 1.0444
 Frc consts  --      1.3976                 1.4180                 1.3789
 IR Inten    --      0.2758                 1.4924                 3.5257

                     91                     92                     93
                      A                      A                      A
 Frequencies --   1497.1862              1498.7558              1507.0245
 Red. masses --      1.0485                 1.0623                 1.0718
 Frc consts  --      1.3847                 1.4059                 1.4342
 IR Inten    --      3.9623                 1.0454                 2.9646

                     94                     95                     96
                      A                      A                      A
 Frequencies --   1510.1276              1510.9433              1514.2021
 Red. masses --      1.0792                 1.0665                 1.0469
 Frc consts  --      1.4501                 1.4345                 1.4143
 IR Inten    --      0.2821                 7.6868                 5.5205

                     97                     98                     99
                      A                      A                      A
 Frequencies --   1518.4540              1527.6079              2958.2988
 Red. masses --      1.0853                 1.0900                 1.0559
 Frc consts  --      1.4743                 1.4987                 5.4443
 IR Inten    --     13.0584                 6.7460                24.7794

                    100                    101                    102
                      A                      A                      A
 Frequencies --   2978.5801              2980.3234              2988.0534
 Red. masses --      1.0805                 1.0804                 1.1030
 Frc consts  --      5.6479                 5.6542                 5.8022
 IR Inten    --     22.6290                 8.2425                29.0081

                    103                    104                    105
                      A                      A                      A
 Frequencies --   2995.6753              3002.4165              3002.5881
 Red. masses --      1.0593                 1.0606                 1.0588
 Frc consts  --      5.6008                 5.6332                 5.6244
 IR Inten    --      2.8143                43.9663                 2.6077

                    106                    107                    108
                      A                      A                      A
 Frequencies --   3007.9290              3013.0467              3026.5055
 Red. masses --      1.0607                 1.0640                 1.0865
 Frc consts  --      5.6545                 5.6913                 5.8635
 IR Inten    --     12.2347                71.1532                12.4431

                    109                    110                    111
                      A                      A                      A
 Frequencies --   3028.5340              3030.0371              3030.3662
 Red. masses --      1.0455                 1.0707                 1.0631
 Frc consts  --      5.6500                 5.7920                 5.7521
 IR Inten    --     12.9139                32.8907                18.4207

                    112                    113                    114
                      A                      A                      A
 Frequencies --   3030.7267              3032.0647              3035.9085
 Red. masses --      1.0697                 1.0577                 1.0378
 Frc consts  --      5.7890                 5.7292                 5.6356
 IR Inten    --     16.1560                24.0448                34.8326

                    115                    116                    117
                      A                      A                      A
 Frequencies --   3043.2458              3058.3743              3060.6535
 Red. masses --      1.0992                 1.1029                 1.1029
 Frc consts  --      5.9980                 6.0783                 6.0869
 IR Inten    --     23.4646                50.1273                30.4764

                    118                    119                    120
                      A                      A                      A
 Frequencies --   3076.2778              3077.6163              3095.4498
 Red. masses --      1.1049                 1.0974                 1.1005
 Frc consts  --      6.1605                 6.1243                 6.2126
 IR Inten    --     94.9909                 9.5230                35.7636

                    121                    122                    123
                      A                      A                      A
 Frequencies --   3096.3908              3101.0049              3104.4659
 Red. masses --      1.0962                 1.1007                 1.1002
 Frc consts  --      6.1924                 6.2360                 6.2473
 IR Inten    --     34.4502                39.0938                53.3612

                    124                    125                    126
                      A                      A                      A
 Frequencies --   3112.5688              3121.6309              3746.3549
 Red. masses --      1.1000                 1.1011                 1.0687
 Frc consts  --      6.2787                 6.3217                 8.8373
 IR Inten    --     33.4089                30.2700                30.3738

 - Thermochemistry -
 -------------------
 Temperature   298.150 Kelvin.  Pressure   1.00000 Atm.
 Atom     1 has atomic number  6 and mass  12.00000

 Molecular mass:   232.20384 amu.
 Principal axes and moments of inertia in atomic units:
                           1         2         3
     Eigenvalues --  1564.72107********************
           X            0.99996  -0.00869   0.00078
           Y            0.00868   0.99981   0.01735
           Z           -0.00093  -0.01735   0.99985
 This molecule is an asymmetric top.
 Rotational symmetry number  1.
 Warning -- assumption of classical behavior for rotation
           may cause significant error
 Rotational temperatures (Kelvin)      0.05535     0.00507     0.00482
 Rotational constants (GHZ):           1.15339     0.10566     0.10033
 Zero-point vibrational energy    1046884.5 (Joules/Mol)
                                  250.21139 (Kcal/Mol)
 Warning -- explicit consideration of  31 degrees of freedom as
           vibrations may cause significant error
 Vibrational temperatures:     23.56    26.32    49.29    69.35    87.68
          (Kelvin)            105.50   118.71   121.22   131.33   162.52
                              181.92   190.38   225.35   233.73   267.10
                              302.76   315.65   333.81   350.01   370.57
                              377.89   429.17   489.86   521.44   536.21
                              589.45   642.06   701.47   743.33   771.87
                              807.82  1057.68  1096.88  1112.91  1118.39
                             1177.86  1217.73  1226.44  1311.49  1351.29
                             1354.92  1385.48  1401.12  1416.89  1445.20
                             1457.46  1478.72  1488.60  1512.42  1517.37
                             1527.60  1542.75  1567.54  1603.84  1618.75
                             1653.71  1667.31  1692.58  1702.25  1719.81
                             1748.37  1773.94  1794.83  1825.51  1857.10
                             1871.03  1881.89  1886.70  1905.22  1907.82
                             1918.70  1924.71  1941.04  1982.11  1986.87
                             1993.18  1998.24  2010.75  2014.09  2017.07
                             2023.47  2031.46  2035.01  2074.51  2123.60
                             2128.52  2137.13  2139.05  2150.28  2153.84
                             2154.12  2156.38  2168.27  2172.74  2173.91
                             2178.60  2184.72  2197.89  4256.33  4285.51
                             4288.02  4299.14  4310.11  4319.81  4320.05
                             4327.74  4335.10  4354.47  4357.38  4359.55
                             4360.02  4360.54  4362.46  4368.00  4378.55
                             4400.32  4403.60  4426.08  4428.00  4453.66
                             4455.02  4461.65  4466.63  4478.29  4491.33
                             5390.17

 Zero-point correction=                           0.398737 (Hartree/Particle)
 Thermal correction to Energy=                    0.420331
 Thermal correction to Enthalpy=                  0.421276
 Thermal correction to Gibbs Free Energy=         0.344688
 Sum of electronic and zero-point Energies=           -737.486570
 Sum of electronic and thermal Energies=              -737.464975
 Sum of electronic and thermal Enthalpies=            -737.464031
 Sum of electronic and thermal Free Energies=         -737.540619

                     E (Thermal)             CV                S
                      KCal/Mol        Cal/Mol-Kelvin    Cal/Mol-Kelvin
 Total                  263.762             75.813            161.192
 Electronic               0.000              0.000              0.000
 Translational            0.889              2.981             42.229
 Rotational               0.889              2.981             34.529
 Vibrational            261.985             69.851             84.434
 Vibration     1          0.593              1.986              7.031
 Vibration     2          0.593              1.986              6.811
 Vibration     3          0.594              1.983              5.566
 Vibration     4          0.595              1.978              4.890
 Vibration     5          0.597              1.973              4.426
 Vibration     6          0.599              1.967              4.062
 Vibration     7          0.600              1.961              3.830
 Vibration     8          0.601              1.960              3.789
 Vibration     9          0.602              1.955              3.632
 Vibration    10          0.607              1.939              3.217
 Vibration    11          0.611              1.927              2.999
 Vibration    12          0.612              1.921              2.912
 Vibration    13          0.620              1.895              2.590
 Vibration    14          0.623              1.888              2.521
 Vibration    15          0.632              1.859              2.271
 Vibration    16          0.643              1.825              2.040
 Vibration    17          0.647              1.812              1.964
 Vibration    18          0.653              1.792              1.863
 Vibration    19          0.659              1.774              1.779
 Vibration    20          0.667              1.750              1.678
 Vibration    21          0.670              1.741              1.644
 Vibration    22          0.691              1.677              1.426
 Vibration    23          0.720              1.595              1.210
 Vibration    24          0.736              1.550              1.112
 Vibration    25          0.744              1.528              1.069
 Vibration    26          0.774              1.449              0.928
 Vibration    27          0.806              1.369              0.807
 Vibration    28          0.843              1.278              0.690
 Vibration    29          0.872              1.213              0.618
 Vibration    30          0.891              1.169              0.573
 Vibration    31          0.917              1.115              0.521

 Optimization completed.
    -- Stationary point found.
 Normal termination of Gaussian 16 at Tue May 23 11:19:16 2023.
