 Gaussian 16, Revision A.03,
 Gaussian 16:  ES64L-G16RevA.03 25-Dec-2016

 -----------------------------
 # opt freq b3lyp/6-31g(2df,p)
 -----------------------------

 -------------------
 Title Card Required
 -------------------
 Symbolic Z-matrix:
 Charge =  0 Multiplicity = 1

 SCF Done:  E(RB3LYP) =  -237.104548769     A.U. after   11 cycles
 SCF Done:  E(RB3LYP) =  -237.104948927     A.U. after    9 cycles
 SCF Done:  E(RB3LYP) =  -237.104996673     A.U. after    8 cycles
 SCF Done:  E(RB3LYP) =  -237.104999761     A.U. after    7 cycles
 Optimization completed.
    -- Stationary point found.
 Normal termination of Gaussian 16 at Sun May 28 05:09:47 2023.

 ----------------------------------------------------------------------
 #N Geom=AllCheck Guess=TCheck SCRF=Check GenChk RB3LYP/6-31G(2df,p) Fr
 eq
 ----------------------------------------------------------------------

 Structure from the checkpoint file:  "CCCqCrqCrC.chk"
 -------------------
 Title Card Required
 -------------------
 Charge =  0 Multiplicity = 1

                         Standard orientation:
 ---------------------------------------------------------------------
 Center     Atomic      Atomic             Coordinates (Angstroms)
 Number     Number       Type             X           Y           Z
 ---------------------------------------------------------------------
      1          6           0        2.190698   -0.033823    0.000001
      2          6           0        0.877069   -0.823793    0.000005
      3          6           0       -0.435463    0.000721   -0.000000
      4          6           0       -0.528001    0.884247    1.257646
      5          6           0       -0.527997    0.884238   -1.257652
      6          6           0       -1.616123   -0.988603    0.000002
      7          1           0        3.045019   -0.718403    0.000003
      8          1           0        2.285434    0.604301    0.884012
      9          1           0        2.285433    0.604294   -0.884016
     10          1           0        0.863916   -1.485837    0.876251
     11          1           0        0.863916   -1.485846   -0.876235
     12          1           0        0.261392    1.641714    1.283790
     13          1           0       -0.446624    0.282982    2.170351
     14          1           0       -1.488061    1.411126    1.291733
     15          1           0        0.261398    1.641703   -1.283801
     16          1           0       -1.488055    1.411120   -1.291745
     17          1           0       -0.446620    0.282967   -2.170353
     18          1           0       -1.591454   -1.634439    0.884913
     19          1           0       -1.591452   -1.634445   -0.884905
     20          1           0       -2.575344   -0.459157   -0.000001
 ---------------------------------------------------------------------

 SCF Done:  E(RB3LYP) =  -237.104999761     A.U. after    1 cycles

 The electronic state is 1-A.
 Alpha  occ. eigenvalues --  -10.18843 -10.17269 -10.16832 -10.16575 -10.16575
 Alpha  occ. eigenvalues --  -10.16543  -0.81714  -0.73086  -0.67778  -0.67755
 Alpha  occ. eigenvalues --   -0.61744  -0.52179  -0.45187  -0.45073  -0.43029
 Alpha  occ. eigenvalues --   -0.41688  -0.39279  -0.37605  -0.37071  -0.35731
 Alpha  occ. eigenvalues --   -0.35178  -0.33809  -0.31086  -0.30901  -0.30316
 Alpha virt. eigenvalues --    0.07486   0.12233   0.13368   0.13644   0.14178
 Alpha virt. eigenvalues --    0.14480   0.15972   0.17505   0.17760   0.19628
 Alpha virt. eigenvalues --    0.20421   0.20466   0.21820   0.22503   0.24074

 Mulliken charges:
               1
     1  C   -0.398728
     2  C   -0.165947
     3  C    0.284010
     4  C   -0.399403
     5  C   -0.399403
     6  C   -0.399638
     7  H    0.110997
     8  H    0.116235
     9  H    0.116235
    10  H    0.087305
    11  H    0.087305
    12  H    0.110285
    13  H    0.105534
    14  H    0.106504
    15  H    0.110285
    16  H    0.106504
    17  H    0.105534
    18  H    0.105791
    19  H    0.105791
    20  H    0.104805
 Sum of Mulliken charges =  -0.00000

 Dipole moment (field-independent basis, Debye):
    X=              0.0316    Y=             -0.0263    Z=              0.0000  Tot=              0.0411
 Quadrupole moment (field-independent basis, Debye-Ang):
   XX=            -41.7984   YY=            -41.6203   ZZ=            -41.5216
   XY=             -0.3244   XZ=              0.0000   YZ=             -0.0000

  Exact polarizability:  71.333  -0.094  64.274   0.000   0.000  64.259
 Approx polarizability:  92.409  -0.735  91.135   0.000   0.000  91.310

                      1                      2                      3
                      A                      A                      A
 Frequencies --     84.5702               202.4098               244.8807
 Red. masses --      1.6854                 1.0261                 1.1016
 Frc consts  --      0.0071                 0.0248                 0.0389
 IR Inten    --      0.0016                 0.0072                 0.0002

                      4                      5                      6
                      A                      A                      A
 Frequencies --    251.7096               265.8692               280.5341
 Red. masses --      2.1401                 1.1173                 1.1108
 Frc consts  --      0.0799                 0.0465                 0.0515
 IR Inten    --      0.0325                 0.0565                 0.0009

                      7                      8                      9
                      A                      A                      A
 Frequencies --    330.3295               351.1430               403.0036
 Red. masses --      2.0629                 2.2503                 2.2144
 Frc consts  --      0.1326                 0.1635                 0.2119
 IR Inten    --      0.0072                 0.0138                 0.0293

                     10                     11                     12
                      A                      A                      A
 Frequencies --    414.1746               480.3282               708.5055
 Red. masses --      1.9881                 2.4090                 3.0940
 Frc consts  --      0.2009                 0.3275                 0.9151
 IR Inten    --      0.0118                 0.3218                 0.2383

                     13                     14                     15
                      A                      A                      A
 Frequencies --    783.3629               871.6859               932.5323
 Red. masses --      1.1827                 2.0448                 1.7558
 Frc consts  --      0.4276                 0.9154                 0.8996
 IR Inten    --      2.0311                 0.1314                 0.6394

                     16                     17                     18
                      A                      A                      A
 Frequencies --    933.9325               957.1544               998.1256
 Red. masses --      1.8036                 1.2037                 1.2830
 Frc consts  --      0.9269                 0.6497                 0.7531
 IR Inten    --      0.0657                 0.0075                 0.5459

                     19                     20                     21
                      A                      A                      A
 Frequencies --   1010.6268              1028.3742              1095.7148
 Red. masses --      1.3085                 2.2803                 1.6979
 Frc consts  --      0.7874                 1.4208                 1.2011
 IR Inten    --      2.2653                 1.8184                 1.6952

                     22                     23                     24
                      A                      A                      A
 Frequencies --   1104.6161              1237.4492              1246.8070
 Red. masses --      1.4192                 2.4211                 2.0242
 Frc consts  --      1.0203                 2.1843                 1.8540
 IR Inten    --      0.2871                 8.2289                 2.0380

                     25                     26                     27
                      A                      A                      A
 Frequencies --   1273.9020              1334.0045              1370.4450
 Red. masses --      2.7489                 1.3363                 1.4435
 Frc consts  --      2.6283                 1.4011                 1.5974
 IR Inten    --      4.2194                 0.9526                 0.4240

                     28                     29                     30
                      A                      A                      A
 Frequencies --   1397.7675              1398.6797              1411.1113
 Red. masses --      1.2479                 1.2462                 1.2385
 Frc consts  --      1.4365                 1.4364                 1.4530
 IR Inten    --      3.3265                 5.1147                 4.1516

                     31                     32                     33
                      A                      A                      A
 Frequencies --   1432.0171              1477.4596              1479.3705
 Red. masses --      1.2257                 1.0667                 1.0482
 Frc consts  --      1.4809                 1.3719                 1.3517
 IR Inten    --      3.0388                 0.0507                 0.0768

                     34                     35                     36
                      A                      A                      A
 Frequencies --   1484.8147              1488.0278              1501.5684
 Red. masses --      1.0438                 1.0469                 1.0451
 Frc consts  --      1.3558                 1.3658                 1.3883
 IR Inten    --      0.1298                 0.0709                 7.5135

                     37                     38                     39
                      A                      A                      A
 Frequencies --   1507.6520              1509.5390              1512.5261
 Red. masses --      1.0716                 1.0509                 1.0555
 Frc consts  --      1.4351                 1.4110                 1.4227
 IR Inten    --      3.3547                 4.4246                 0.0011

                     40                     41                     42
                      A                      A                      A
 Frequencies --   1519.0539              3006.6775              3019.6440
 Red. masses --      1.0620                 1.0583                 1.0348
 Frc consts  --      1.4438                 5.6367                 5.5591
 IR Inten    --      8.9647                27.8508                31.5684

                     43                     44                     45
                      A                      A                      A
 Frequencies --   3022.7726              3030.0748              3038.2382
 Red. masses --      1.0352                 1.0369                 1.0360
 Frc consts  --      5.5727                 5.6094                 5.6345
 IR Inten    --     33.9818                13.6097                16.7784

                     46                     47                     48
                      A                      A                      A
 Frequencies --   3039.4881              3086.5389              3086.9782
 Red. masses --      1.1021                 1.1017                 1.1015
 Frc consts  --      5.9989                 6.1836                 6.1847
 IR Inten    --     18.4343                 0.1819                 0.8026

                     49                     50                     51
                      A                      A                      A
 Frequencies --   3090.0828              3093.8993              3096.7416
 Red. masses --      1.1014                 1.1005                 1.1008
 Frc consts  --      6.1962                 6.2065                 6.2197
 IR Inten    --     26.8051                55.3362                35.6361

                     52                     53                     54
                      A                      A                      A
 Frequencies --   3097.8921              3104.7321              3109.6913
 Red. masses --      1.1006                 1.0991                 1.1011
 Frc consts  --      6.2231                 6.2425                 6.2733
 IR Inten    --     67.5524                53.5151                31.7570

 - Thermochemistry -
 -------------------
 Temperature   298.150 Kelvin.  Pressure   1.00000 Atm.
 Atom     1 has atomic number  6 and mass  12.00000

 Molecular mass:    86.10955 amu.
 Principal axes and moments of inertia in atomic units:
                           1         2         3
     Eigenvalues --   422.79014 729.02331 731.55997
           X            0.99996   0.00925  -0.00000
           Y           -0.00925   0.99996  -0.00000
           Z            0.00000   0.00000   1.00000
 This molecule is an asymmetric top.
 Rotational symmetry number  1.
 Rotational temperatures (Kelvin)      0.20486     0.11881     0.11840
 Rotational constants (GHZ):           4.26865     2.47556     2.46698
 Zero-point vibrational energy     491899.8 (Joules/Mol)
                                  117.56688 (Kcal/Mol)
 Warning -- explicit consideration of  11 degrees of freedom as
           vibrations may cause significant error
 Vibrational temperatures:    121.68   291.22   352.33   362.15   382.53
          (Kelvin)            403.63   475.27   505.22   579.83   595.90
                              691.09  1019.38  1127.08  1254.16  1341.71
                             1343.72  1377.13  1436.08  1454.07  1479.60
                             1576.49  1589.30  1780.41  1793.88  1832.86
                             1919.33  1971.76  2011.08  2012.39  2030.27
                             2060.35  2125.73  2128.48  2136.32  2140.94
                             2160.42  2169.17  2171.89  2176.19  2185.58
                             4325.94  4344.59  4349.10  4359.60  4371.35
                             4373.15  4440.84  4441.47  4445.94  4451.43
                             4455.52  4457.18  4467.02  4474.15

 Zero-point correction=                           0.187355 (Hartree/Particle)
 Thermal correction to Energy=                    0.195660
 Thermal correction to Enthalpy=                  0.196604
 Thermal correction to Gibbs Free Energy=         0.156003
 Sum of electronic and zero-point Energies=           -236.917645
 Sum of electronic and thermal Energies=              -236.909340
 Sum of electronic and thermal Enthalpies=            -236.908395
 Sum of electronic and thermal Free Energies=         -236.948996

                     E (Thermal)             CV                S
                      KCal/Mol        Cal/Mol-Kelvin    Cal/Mol-Kelvin
 Total                  122.779             31.002             85.452
 Electronic               0.000              0.000              0.000
 Translational            0.889              2.981             39.272
 Rotational               0.889              2.981             26.914
 Vibrational            121.001             25.040             19.266
 Vibration     1          0.601              1.960              3.782
 Vibration     2          0.639              1.836              2.111
 Vibration     3          0.660              1.771              1.767
 Vibration     4          0.664              1.760              1.719
 Vibration     5          0.672              1.736              1.623
 Vibration     6          0.680              1.710              1.530
 Vibration     7          0.713              1.615              1.258
 Vibration     8          0.728              1.573              1.161
 Vibration     9          0.768              1.464              0.952
 Vibration    10          0.778              1.439              0.912
 Vibration    11          0.837              1.294              0.709

 Optimization completed.
    -- Stationary point found.
 Normal termination of Gaussian 16 at Sun May 28 05:27:32 2023.
