 Gaussian 16, Revision A.03,
 Gaussian 16:  ES64L-G16RevA.03 25-Dec-2016

 -----------------------------
 # opt freq b3lyp/6-31g(2df,p)
 -----------------------------

 -------------------
 Title Card Required
 -------------------
 Symbolic Z-matrix:
 Charge =  0 Multiplicity = 1

 SCF Done:  E(RB3LYP) =  -579.061144709     A.U. after   13 cycles
 SCF Done:  E(RB3LYP) =  -579.070345061     A.U. after   12 cycles
 SCF Done:  E(RB3LYP) =  -579.074281843     A.U. after   11 cycles
 SCF Done:  E(RB3LYP) =  -579.076084004     A.U. after   11 cycles
 SCF Done:  E(RB3LYP) =  -579.076718627     A.U. after   11 cycles
 SCF Done:  E(RB3LYP) =  -579.076978409     A.U. after   11 cycles
 SCF Done:  E(RB3LYP) =  -579.077523878     A.U. after   12 cycles
 SCF Done:  E(RB3LYP) =  -579.077974888     A.U. after   11 cycles
 SCF Done:  E(RB3LYP) =  -579.078373664     A.U. after   11 cycles
 SCF Done:  E(RB3LYP) =  -579.078680963     A.U. after   11 cycles
 SCF Done:  E(RB3LYP) =  -579.082161902     A.U. after   11 cycles
 SCF Done:  E(RB3LYP) =  -579.082158388     A.U. after   11 cycles
 SCF Done:  E(RB3LYP) =  -579.082180052     A.U. after   10 cycles
 SCF Done:  E(RB3LYP) =  -579.082182154     A.U. after    9 cycles
 SCF Done:  E(RB3LYP) =  -579.082182670     A.U. after    9 cycles
 SCF Done:  E(RB3LYP) =  -579.082183315     A.U. after    9 cycles
 SCF Done:  E(RB3LYP) =  -579.082183731     A.U. after    9 cycles
 SCF Done:  E(RB3LYP) =  -579.082183805     A.U. after    7 cycles
 SCF Done:  E(RB3LYP) =  -579.082183795     A.U. after    6 cycles
 Optimization completed.
    -- Stationary point found.
 Normal termination of Gaussian 16 at Mon May 29 08:59:08 2023.

 ----------------------------------------------------------------------
 #N Geom=AllCheck Guess=TCheck SCRF=Check GenChk RB3LYP/6-31G(2df,p) Fr
 eq
 ----------------------------------------------------------------------

 Structure from the checkpoint file:  "CCCqCCrCCqOrCNdCqCrN.chk"
 -------------------
 Title Card Required
 -------------------
 Charge =  0 Multiplicity = 1

                         Standard orientation:
 ---------------------------------------------------------------------
 Center     Atomic      Atomic             Coordinates (Angstroms)
 Number     Number       Type             X           Y           Z
 ---------------------------------------------------------------------
      1          6           0       -4.831211   -0.764509   -0.419087
      2          6           0       -3.513184   -1.096447    0.288048
      3          6           0       -2.323700   -0.196742   -0.118101
      4          6           0       -2.497549    1.239813    0.439564
      5          6           0       -2.017414    2.363411   -0.486023
      6          6           0       -1.007583   -0.890559    0.297376
      7          6           0        0.313265   -0.273813   -0.182079
      8          8           0        0.642059    0.932436    0.512324
      9          6           0        1.482610   -1.276779   -0.088592
     10          7           0        2.650066   -0.792574   -0.781495
     11          6           0        3.579466   -0.158923   -0.179458
     12          6           0        3.716355    0.124973    1.303889
     13          7           0        4.576630    0.422106   -0.946881
     14          1           0       -5.632107   -1.433861   -0.089084
     15          1           0       -4.731249   -0.875830   -1.504657
     16          1           0       -5.160799    0.260632   -0.222690
     17          1           0       -3.260196   -2.142904    0.075399
     18          1           0       -3.651278   -1.035382    1.376788
     19          1           0       -2.324616   -0.136204   -1.217104
     20          1           0       -1.983718    1.316704    1.405837
     21          1           0       -3.558774    1.406928    0.657271
     22          1           0       -0.940632    2.306074   -0.654161
     23          1           0       -2.234480    3.344333   -0.049220
     24          1           0       -2.527462    2.315173   -1.455000
     25          1           0       -1.043254   -1.920603   -0.079436
     26          1           0       -0.975761   -0.980344    1.395765
     27          1           0        0.223893    0.027434   -1.232237
     28          1           0        0.547857    0.754434    1.454433
     29          1           0        1.170445   -2.212365   -0.569687
     30          1           0        1.645957   -1.511346    0.978759
     31          1           0        3.289296   -0.677896    1.907274
     32          1           0        3.188709    1.051358    1.545893
     33          1           0        4.765042    0.245800    1.591281
     34          1           0        4.568181    0.121773   -1.911474
     35          1           0        5.495269    0.487325   -0.537132
 ---------------------------------------------------------------------

 SCF Done:  E(RB3LYP) =  -579.082183795     A.U. after    1 cycles

 The electronic state is 1-A.
 Alpha  occ. eigenvalues --  -19.13203 -14.32672 -14.28039 -10.24267 -10.22085
 Alpha  occ. eigenvalues --  -10.19192 -10.18486 -10.17844 -10.17541 -10.17338
 Alpha  occ. eigenvalues --  -10.16823 -10.16758 -10.15506  -1.01239  -0.93416
 Alpha  occ. eigenvalues --   -0.85221  -0.80869  -0.75033  -0.73627  -0.72398
 Alpha  occ. eigenvalues --   -0.68990  -0.63994  -0.60110  -0.59339  -0.55786
 Alpha  occ. eigenvalues --   -0.54339  -0.51279  -0.47948  -0.46952  -0.45121
 Alpha  occ. eigenvalues --   -0.44924  -0.43821  -0.43262  -0.41446  -0.41121
 Alpha  occ. eigenvalues --   -0.40753  -0.39532  -0.38894  -0.38494  -0.36631
 Alpha  occ. eigenvalues --   -0.35995  -0.34801  -0.33747  -0.33640  -0.32939
 Alpha  occ. eigenvalues --   -0.31643  -0.31041  -0.30263  -0.29752  -0.26503
 Alpha  occ. eigenvalues --   -0.22822  -0.21571
 Alpha virt. eigenvalues --    0.03844   0.06672   0.09000   0.09709   0.11141
 Alpha virt. eigenvalues --    0.11571   0.12163   0.13338   0.13548   0.14194
 Alpha virt. eigenvalues --    0.14943   0.15709   0.16425   0.17125   0.17564

 Mulliken charges:
               1
     1  C   -0.390721
     2  C   -0.181562
     3  C    0.047089
     4  C   -0.163249
     5  C   -0.391243
     6  C   -0.219341
     7  C    0.102018
     8  O   -0.419632
     9  C   -0.172602
    10  N   -0.269915
    11  C    0.365310
    12  C   -0.475671
    13  N   -0.522443
    14  H    0.110393
    15  H    0.113425
    16  H    0.119064
    17  H    0.086998
    18  H    0.089925
    19  H    0.066810
    20  H    0.076574
    21  H    0.087704
    22  H    0.147615
    23  H    0.100801
    24  H    0.103274
    25  H    0.094740
    26  H    0.077945
    27  H    0.096248
    28  H    0.273671
    29  H    0.093696
    30  H    0.064796
    31  H    0.133010
    32  H    0.156570
    33  H    0.111017
    34  H    0.246417
    35  H    0.241270
 Sum of Mulliken charges =  -0.00000

 Dipole moment (field-independent basis, Debye):
    X=              1.3835    Y=             -0.8311    Z=              1.8232  Tot=              2.4349
 Quadrupole moment (field-independent basis, Debye-Ang):
   XX=            -68.9532   YY=            -86.8446   ZZ=            -79.5456
   XY=              1.2477   XZ=              2.3795   YZ=              0.3203

  Exact polarizability: 166.094  12.277 115.868   0.997   0.692 112.291
 Approx polarizability: 196.276  19.703 171.346   3.120   4.424 178.218

                      1                      2                      3
                      A                      A                      A
 Frequencies --     26.6518                40.2208                45.9367
 Red. masses --      3.1627                 2.7777                 3.5550
 Frc consts  --      0.0013                 0.0026                 0.0044
 IR Inten    --      0.5393                 0.5424                 0.5360

                      4                      5                      6
                      A                      A                      A
 Frequencies --     69.4356                83.5231                96.8986
 Red. masses --      1.7991                 2.5901                 1.6619
 Frc consts  --      0.0051                 0.0106                 0.0092
 IR Inten    --      0.2616                 0.3675                 2.9942

                      7                      8                      9
                      A                      A                      A
 Frequencies --    109.6261               129.0745               160.5251
 Red. masses --      2.1092                 2.0410                 3.6442
 Frc consts  --      0.0149                 0.0200                 0.0553
 IR Inten    --      0.2690                 1.9483                 3.5556

                     10                     11                     12
                      A                      A                      A
 Frequencies --    207.9002               227.1747               242.2991
 Red. masses --      1.5853                 1.3158                 2.0946
 Frc consts  --      0.0404                 0.0400                 0.0725
 IR Inten    --      0.4791                 0.1044                 1.4927

                     13                     14                     15
                      A                      A                      A
 Frequencies --    265.7491               291.1563               308.6850
 Red. masses --      3.2685                 1.3546                 1.5741
 Frc consts  --      0.1360                 0.0677                 0.0884
 IR Inten    --      1.3612                63.0696                61.3305

                     16                     17                     18
                      A                      A                      A
 Frequencies --    324.3808               342.0160               355.7895
 Red. masses --      2.9250                 2.7136                 2.6169
 Frc consts  --      0.1813                 0.1870                 0.1952
 IR Inten    --     26.3750                11.4747                10.9168

                     19                     20                     21
                      A                      A                      A
 Frequencies --    400.8975               443.1332               448.8131
 Red. masses --      1.1555                 2.2864                 2.2678
 Frc consts  --      0.1094                 0.2645                 0.2691
 IR Inten    --     93.1364                 6.7837                 1.0333

                     22                     23                     24
                      A                      A                      A
 Frequencies --    462.4731               502.4411               524.2232
 Red. masses --      2.0258                 2.4280                 1.7461
 Frc consts  --      0.2553                 0.3611                 0.2827
 IR Inten    --      2.6664                 2.9519                73.0422

                     25                     26                     27
                      A                      A                      A
 Frequencies --    562.8695               602.3933               646.2041
 Red. masses --      3.2207                 3.0428                 1.6569
 Frc consts  --      0.6012                 0.6506                 0.4077
 IR Inten    --     27.9374                13.5067               119.1387

                     28                     29                     30
                      A                      A                      A
 Frequencies --    753.5025               775.0185               807.8798
 Red. masses --      1.3787                 1.2446                 2.4657
 Frc consts  --      0.4612                 0.4405                 0.9481
 IR Inten    --      3.8378                 7.0589                 1.1036

                     31                     32                     33
                      A                      A                      A
 Frequencies --    827.3183               870.6061               905.7284
 Red. masses --      2.3665                 2.7745                 1.9092
 Frc consts  --      0.9543                 1.2390                 0.9228
 IR Inten    --      2.0584                10.5441                 9.0783

                     34                     35                     36
                      A                      A                      A
 Frequencies --    937.5624               976.1931              1000.8361
 Red. masses --      1.8670                 2.2921                 1.3969
 Frc consts  --      0.9669                 1.2870                 0.8244
 IR Inten    --      1.0629                 5.4719                 6.7688

                     37                     38                     39
                      A                      A                      A
 Frequencies --   1014.8341              1029.6971              1031.3361
 Red. masses --      1.8306                 2.0041                 1.6787
 Frc consts  --      1.1108                 1.2520                 1.0520
 IR Inten    --     10.9670                 7.4421                 4.0458

                     40                     41                     42
                      A                      A                      A
 Frequencies --   1046.0511              1046.8667              1055.8598
 Red. masses --      2.0414                 1.7253                 2.6038
 Frc consts  --      1.3161                 1.1140                 1.7103
 IR Inten    --      4.1915                12.5875                 1.3586

                     43                     44                     45
                      A                      A                      A
 Frequencies --   1066.9544              1102.4998              1115.7019
 Red. masses --      2.2186                 2.6935                 1.4033
 Frc consts  --      1.4881                 1.9290                 1.0292
 IR Inten    --     10.8937                24.7065                 8.4482

                     46                     47                     48
                      A                      A                      A
 Frequencies --   1150.0333              1172.0152              1200.8074
 Red. masses --      2.4645                 1.9579                 1.5608
 Frc consts  --      1.9204                 1.5846                 1.3260
 IR Inten    --     12.3808                 0.8807                11.2486

                     49                     50                     51
                      A                      A                      A
 Frequencies --   1213.9920              1254.5503              1277.1476
 Red. masses --      1.5607                 1.4978                 1.2775
 Frc consts  --      1.3552                 1.3890                 1.2277
 IR Inten    --      5.1988                13.5910                 1.2037

                     52                     53                     54
                      A                      A                      A
 Frequencies --   1288.3996              1302.2945              1325.0944
 Red. masses --      1.1612                 1.1883                 1.2025
 Frc consts  --      1.1357                 1.1874                 1.2440
 IR Inten    --      0.5769                 2.4880                 0.7902

                     55                     56                     57
                      A                      A                      A
 Frequencies --   1341.4721              1349.9836              1360.1640
 Red. masses --      1.3023                 2.1727                 1.3069
 Frc consts  --      1.3808                 2.3330                 1.4246
 IR Inten    --      9.6130                67.0418                26.9459

                     58                     59                     60
                      A                      A                      A
 Frequencies --   1371.0748              1376.3073              1388.2579
 Red. masses --      1.3736                 1.4352                 1.4412
 Frc consts  --      1.5214                 1.6017                 1.6365
 IR Inten    --      6.9927                 1.1237                 3.1390

                     61                     62                     63
                      A                      A                      A
 Frequencies --   1400.7059              1402.2034              1410.0260
 Red. masses --      1.4206                 1.4657                 1.2253
 Frc consts  --      1.6421                 1.6979                 1.4354
 IR Inten    --      4.6964                32.2292                 7.0861

                     64                     65                     66
                      A                      A                      A
 Frequencies --   1414.0767              1421.1518              1468.9341
 Red. masses --      1.2512                 1.2124                 1.0906
 Frc consts  --      1.4741                 1.4427                 1.3865
 IR Inten    --      0.9322                18.5705                 4.7497

                     67                     68                     69
                      A                      A                      A
 Frequencies --   1473.4999              1484.5719              1487.7136
 Red. masses --      1.0675                 1.0610                 1.0681
 Frc consts  --      1.3655                 1.3777                 1.3929
 IR Inten    --     11.5631                 0.7345                 1.8132

                     70                     71                     72
                      A                      A                      A
 Frequencies --   1490.2525              1496.7037              1504.5616
 Red. masses --      1.0760                 1.0489                 1.0986
 Frc consts  --      1.4080                 1.3844                 1.4653
 IR Inten    --      1.4315                 0.6034                12.1140

                     73                     74                     75
                      A                      A                      A
 Frequencies --   1505.4241              1507.4490              1517.6792
 Red. masses --      1.0592                 1.0612                 1.0525
 Frc consts  --      1.4144                 1.4208                 1.4284
 IR Inten    --      4.8443                 4.8899                 4.6882

                     76                     77                     78
                      A                      A                      A
 Frequencies --   1626.3004              1741.3653              2937.8718
 Red. masses --      1.1979                 7.3089                 1.0688
 Frc consts  --      1.8667                13.0581                 5.4351
 IR Inten    --     53.3547               368.4313                53.3888

                     79                     80                     81
                      A                      A                      A
 Frequencies --   2975.0444              2987.5040              3008.3082
 Red. masses --      1.0698                 1.0778                 1.0614
 Frc consts  --      5.5787                 5.6679                 5.6594
 IR Inten    --     11.0032                14.2392                32.3941

                     82                     83                     84
                      A                      A                      A
 Frequencies --   3025.1826              3028.1204              3030.7768
 Red. masses --      1.0599                 1.0898                 1.0414
 Frc consts  --      5.7149                 5.8875                 5.6359
 IR Inten    --     40.3336                12.8664                28.7269

                     85                     86                     87
                      A                      A                      A
 Frequencies --   3031.3945              3038.4545              3046.0130
 Red. masses --      1.0399                 1.0908                 1.0924
 Frc consts  --      5.6305                 5.9332                 5.9719
 IR Inten    --     28.5695                12.8248                40.6062

                     88                     89                     90
                      A                      A                      A
 Frequencies --   3049.7351              3054.6167              3058.3694
 Red. masses --      1.0373                 1.0964                 1.0916
 Frc consts  --      5.6844                 6.0272                 6.0159
 IR Inten    --     16.3794                29.4966                77.5956

                     91                     92                     93
                      A                      A                      A
 Frequencies --   3088.6129              3096.8204              3102.5430
 Red. masses --      1.1006                 1.1011                 1.1006
 Frc consts  --      6.1859                 6.2214                 6.2416
 IR Inten    --     45.0521                44.3031                41.0610

                     94                     95                     96
                      A                      A                      A
 Frequencies --   3116.5240              3135.1293              3139.9745
 Red. masses --      1.0995                 1.1001                 1.0975
 Frc consts  --      6.2919                 6.3710                 6.3755
 IR Inten    --     20.7487                11.2299                12.9853

                     97                     98                     99
                      A                      A                      A
 Frequencies --   3563.8677              3682.9254              3800.9434
 Red. masses --      1.0461                 1.0993                 1.0658
 Frc consts  --      7.8280                 8.7856                 9.0725
 IR Inten    --     16.9158                12.7994                 9.4233

 - Thermochemistry -
 -------------------
 Temperature   298.150 Kelvin.  Pressure   1.00000 Atm.
 Atom     1 has atomic number  6 and mass  12.00000

 Molecular mass:   186.17321 amu.
 Principal axes and moments of inertia in atomic units:
                           1         2         3
     Eigenvalues --  1064.294456076.393516525.43020
           X            0.99996   0.00203   0.00821
           Y           -0.00187   0.99982  -0.01900
           Z           -0.00825   0.01898   0.99979
 This molecule is an asymmetric top.
 Rotational symmetry number  1.
 Warning -- assumption of classical behavior for rotation
           may cause significant error
 Rotational temperatures (Kelvin)      0.08138     0.01425     0.01327
 Rotational constants (GHZ):           1.69572     0.29701     0.27657
 Zero-point vibrational energy     831451.8 (Joules/Mol)
                                  198.72174 (Kcal/Mol)
 Warning -- explicit consideration of  26 degrees of freedom as
           vibrations may cause significant error
 Vibrational temperatures:     38.35    57.87    66.09    99.90   120.17
          (Kelvin)            139.42   157.73   185.71   230.96   299.12
                              326.85   348.61   382.35   418.91   444.13
                              466.71   492.08   511.90   576.80   637.57
                              645.74   665.40   722.90   754.24   809.84
                              866.71   929.74  1084.12  1115.08  1162.36
                             1190.33  1252.61  1303.14  1348.94  1404.52
                             1439.98  1460.12  1481.50  1483.86  1505.03
                             1506.21  1519.15  1535.11  1586.25  1605.25
                             1654.64  1686.27  1727.69  1746.66  1805.02
                             1837.53  1853.72  1873.71  1906.52  1930.08
                             1942.33  1956.97  1972.67  1980.20  1997.39
                             2015.30  2017.46  2028.71  2034.54  2044.72
                             2113.47  2120.04  2135.97  2140.49  2144.14
                             2153.42  2164.73  2165.97  2168.88  2183.60
                             2339.88  2505.44  4226.94  4280.43  4298.35
                             4328.28  4352.56  4356.79  4360.61  4361.50
                             4371.66  4382.53  4387.89  4394.91  4400.31
                             4443.83  4455.63  4463.87  4483.98  4510.75
                             4517.72  5127.61  5298.91  5468.71

 Zero-point correction=                           0.316683 (Hartree/Particle)
 Thermal correction to Energy=                    0.333516
 Thermal correction to Enthalpy=                  0.334460
 Thermal correction to Gibbs Free Energy=         0.271348
 Sum of electronic and zero-point Energies=           -578.765501
 Sum of electronic and thermal Energies=              -578.748668
 Sum of electronic and thermal Enthalpies=            -578.747724
 Sum of electronic and thermal Free Energies=         -578.810836

                     E (Thermal)             CV                S
                      KCal/Mol        Cal/Mol-Kelvin    Cal/Mol-Kelvin
 Total                  209.284             61.394            132.832
 Electronic               0.000              0.000              0.000
 Translational            0.889              2.981             41.571
 Rotational               0.889              2.981             32.112
 Vibrational            207.507             55.433             59.149
 Vibration     1          0.593              1.984              6.064
 Vibration     2          0.594              1.981              5.248
 Vibration     3          0.595              1.979              4.985
 Vibration     4          0.598              1.969              4.169
 Vibration     5          0.600              1.961              3.806
 Vibration     6          0.603              1.951              3.516
 Vibration     7          0.606              1.942              3.276
 Vibration     8          0.612              1.924              2.960
 Vibration     9          0.622              1.891              2.544
 Vibration    10          0.641              1.829              2.062
 Vibration    11          0.651              1.800              1.901
 Vibration    12          0.658              1.775              1.786
 Vibration    13          0.672              1.736              1.624
 Vibration    14          0.687              1.690              1.467
 Vibration    15          0.698              1.657              1.369
 Vibration    16          0.709              1.627              1.288
 Vibration    17          0.721              1.591              1.203
 Vibration    18          0.731              1.563              1.140
 Vibration    19          0.767              1.468              0.959
 Vibration    20          0.803              1.376              0.817
 Vibration    21          0.808              1.364              0.799
 Vibration    22          0.820              1.333              0.759
 Vibration    23          0.858              1.245              0.652
 Vibration    24          0.879              1.196              0.600
 Vibration    25          0.919              1.112              0.518
 Vibration    26          0.961              1.027              0.446

 Optimization completed.
    -- Stationary point found.
 Normal termination of Gaussian 16 at Mon May 29 10:38:48 2023.
