 Gaussian 16, Revision A.03,
 Gaussian 16:  ES64L-G16RevA.03 25-Dec-2016

 -----------------------------
 # opt freq b3lyp/6-31g(2df,p)
 -----------------------------

 -------------------
 Title Card Required
 -------------------
 Symbolic Z-matrix:
 Charge =  0 Multiplicity = 1

 SCF Done:  E(RB3LYP) =  -276.417102701     A.U. after   11 cycles
 SCF Done:  E(RB3LYP) =  -276.418355931     A.U. after   10 cycles
 SCF Done:  E(RB3LYP) =  -276.418485164     A.U. after    8 cycles
 SCF Done:  E(RB3LYP) =  -276.418488050     A.U. after    7 cycles
 Optimization completed.
    -- Stationary point found.
 Normal termination of Gaussian 16 at Sun May 28 13:23:07 2023.

 ----------------------------------------------------------------------
 #N Geom=AllCheck Guess=TCheck SCRF=Check GenChk RB3LYP/6-31G(2df,p) Fr
 eq
 ----------------------------------------------------------------------

 Structure from the checkpoint file:  "CCCqCrqCrCC.chk"
 -------------------
 Title Card Required
 -------------------
 Charge =  0 Multiplicity = 1

                         Standard orientation:
 ---------------------------------------------------------------------
 Center     Atomic      Atomic             Coordinates (Angstroms)
 Number     Number       Type             X           Y           Z
 ---------------------------------------------------------------------
      1          6           0        2.622078   -0.194364    0.000002
      2          6           0        1.242673   -0.863630   -0.000108
      3          6           0       -0.000000    0.067198   -0.000005
      4          6           0       -0.000000    0.954324    1.258736
      5          6           0        0.000000    0.954612   -1.258543
      6          6           0       -1.242673   -0.863630   -0.000108
      7          6           0       -2.622078   -0.194364    0.000002
      8          1           0        3.409229   -0.955332   -0.000078
      9          1           0        2.776761    0.431526    0.884121
     10          1           0        2.776795    0.431746   -0.883955
     11          1           0        1.173429   -1.522627    0.875812
     12          1           0        1.173456   -1.522401   -0.876200
     13          1           0        0.879267    1.604735    1.291026
     14          1           0       -0.000000    0.346636    2.171100
     15          1           0       -0.879267    1.604735    1.291026
     16          1           0        0.879267    1.605031   -1.290684
     17          1           0       -0.879267    1.605030   -1.290685
     18          1           0        0.000001    0.347133   -2.171046
     19          1           0       -1.173429   -1.522628    0.875812
     20          1           0       -1.173456   -1.522401   -0.876200
     21          1           0       -2.776762    0.431525    0.884122
     22          1           0       -3.409229   -0.955332   -0.000079
     23          1           0       -2.776795    0.431747   -0.883955
 ---------------------------------------------------------------------

 SCF Done:  E(RB3LYP) =  -276.418488050     A.U. after    1 cycles

 The electronic state is 1-A.
 Alpha  occ. eigenvalues --  -10.18708 -10.17197 -10.17197 -10.16806 -10.16806
 Alpha  occ. eigenvalues --  -10.16497 -10.16496  -0.82016  -0.74385  -0.71310
 Alpha  occ. eigenvalues --   -0.67783  -0.64459  -0.59126  -0.51905  -0.45939
 Alpha  occ. eigenvalues --   -0.45509  -0.43367  -0.42448  -0.39210  -0.39005
 Alpha  occ. eigenvalues --   -0.38051  -0.36947  -0.36445  -0.34375  -0.34265
 Alpha  occ. eigenvalues --   -0.32835  -0.30915  -0.30086  -0.29815
 Alpha virt. eigenvalues --    0.07453   0.11862   0.12413   0.12602   0.14063
 Alpha virt. eigenvalues --    0.14556   0.15440   0.15785   0.17133   0.17202
 Alpha virt. eigenvalues --    0.18334   0.20121   0.21106   0.22038   0.22649

 Mulliken charges:
               1
     1  C   -0.404467
     2  C   -0.171580
     3  C    0.282885
     4  C   -0.409525
     5  C   -0.409526
     6  C   -0.171580
     7  C   -0.404467
     8  H    0.111086
     9  H    0.116312
    10  H    0.116312
    11  H    0.087258
    12  H    0.087258
    13  H    0.110649
    14  H    0.104605
    15  H    0.110649
    16  H    0.110650
    17  H    0.110650
    18  H    0.104605
    19  H    0.087258
    20  H    0.087258
    21  H    0.116312
    22  H    0.111086
    23  H    0.116312
 Sum of Mulliken charges =  -0.00000

 Dipole moment (field-independent basis, Debye):
    X=             -0.0000    Y=             -0.0670    Z=             -0.0000  Tot=              0.0670
 Quadrupole moment (field-independent basis, Debye-Ang):
   XX=            -48.6291   YY=            -48.1245   ZZ=            -48.0356
   XY=             -0.0000   XZ=              0.0000   YZ=             -0.0000

  Exact polarizability:  87.360  -0.000  72.524  -0.000  -0.000  72.383
 Approx polarizability: 108.230  -0.000 105.998   0.000  -0.000 106.094

                      1                      2                      3
                      A                      A                      A
 Frequencies --     60.8302                87.5325               199.4491
 Red. masses --      1.5290                 1.9617                 1.0199
 Frc consts  --      0.0033                 0.0089                 0.0239
 IR Inten    --      0.0000                 0.0018                 0.0000

                      4                      5                      6
                      A                      A                      A
 Frequencies --    210.3066               234.2169               251.9982
 Red. masses --      2.7191                 1.1557                 1.1110
 Frc consts  --      0.0709                 0.0374                 0.0416
 IR Inten    --      0.0230                 0.0054                 0.1862

                      7                      8                      9
                      A                      A                      A
 Frequencies --    295.2215               326.7859               330.1770
 Red. masses --      1.2129                 2.1899                 2.0582
 Frc consts  --      0.0623                 0.1378                 0.1322
 IR Inten    --      0.0000                 0.0408                 0.0000

                     10                     11                     12
                      A                      A                      A
 Frequencies --    365.1047               406.2479               414.0168
 Red. masses --      2.2298                 3.1394                 1.9080
 Frc consts  --      0.1751                 0.3053                 0.1927
 IR Inten    --      0.0522                 0.1424                 0.0129

                     13                     14                     15
                      A                      A                      A
 Frequencies --    509.5075               703.7265               774.0250
 Red. masses --      2.1847                 2.9630                 1.1468
 Frc consts  --      0.3341                 0.8645                 0.4048
 IR Inten    --      0.5407                 0.3627                 0.0000

                     16                     17                     18
                      A                      A                      A
 Frequencies --    790.9631               841.6879               922.6930
 Red. masses --      1.2344                 2.1761                 1.7048
 Frc consts  --      0.4550                 0.9083                 0.8551
 IR Inten    --      4.0299                 0.3249                 1.2155

                     19                     20                     21
                      A                      A                      A
 Frequencies --    939.5338               994.7304              1004.7378
 Red. masses --      1.5755                 1.2133                 1.4131
 Frc consts  --      0.8194                 0.7073                 0.8405
 IR Inten    --      0.0102                 0.0000                 1.2761

                     22                     23                     24
                      A                      A                      A
 Frequencies --   1010.2997              1042.5875              1051.7554
 Red. masses --      2.3142                 2.0408                 1.5297
 Frc consts  --      1.3917                 1.3070                 0.9970
 IR Inten    --      5.0146                 1.8365                 1.9460

                     25                     26                     27
                      A                      A                      A
 Frequencies --   1101.4216              1117.7291              1212.8378
 Red. masses --      1.9500                 1.4695                 2.0604
 Frc consts  --      1.3938                 1.0817                 1.7857
 IR Inten    --      2.9964                 0.0000                14.8625

                     28                     29                     30
                      A                      A                      A
 Frequencies --   1236.5333              1260.4439              1297.8775
 Red. masses --      2.1020                 3.2186                 1.1371
 Frc consts  --      1.8936                 3.0127                 1.1286
 IR Inten    --      1.1113                 0.8993                 0.0000

                     31                     32                     33
                      A                      A                      A
 Frequencies --   1358.5315              1365.2201              1373.6864
 Red. masses --      1.3041                 1.5390                 1.3052
 Frc consts  --      1.4181                 1.6900                 1.4511
 IR Inten    --      0.0261                 1.8868                 0.1303

                     34                     35                     36
                      A                      A                      A
 Frequencies --   1400.0605              1410.4727              1411.2814
 Red. masses --      1.2735                 1.2280                 1.2818
 Frc consts  --      1.4707                 1.4394                 1.5041
 IR Inten    --      5.1661                 3.8608                 0.1088

                     37                     38                     39
                      A                      A                      A
 Frequencies --   1426.6145              1473.8715              1482.9416
 Red. masses --      1.2266                 1.0740                 1.0453
 Frc consts  --      1.4708                 1.3746                 1.3543
 IR Inten    --      4.1658                 0.1305                 0.0000

                     40                     41                     42
                      A                      A                      A
 Frequencies --   1484.9700              1487.5390              1503.3733
 Red. masses --      1.0635                 1.0454                 1.0404
 Frc consts  --      1.3817                 1.3630                 1.3854
 IR Inten    --      0.0892                 4.8357                 0.0000

                     43                     44                     45
                      A                      A                      A
 Frequencies --   1506.1992              1509.1228              1509.7431
 Red. masses --      1.0706                 1.0478                 1.0683
 Frc consts  --      1.4310                 1.4060                 1.4347
 IR Inten    --      0.2837                 7.3903                 3.8049

                     46                     47                     48
                      A                      A                      A
 Frequencies --   1518.2035              1518.3207              3002.8903
 Red. masses --      1.0530                 1.0486                 1.0593
 Frc consts  --      1.4301                 1.4243                 5.6278
 IR Inten    --      8.7390                 4.2231                 1.9461

                     49                     50                     51
                      A                      A                      A
 Frequencies --   3010.0374              3027.1411              3032.3549
 Red. masses --      1.0584                 1.0369                 1.0379
 Frc consts  --      5.6498                 5.5982                 5.6229
 IR Inten    --     61.8995                31.2479                 0.0249

                     52                     53                     54
                      A                      A                      A
 Frequencies --   3035.3506              3038.8387              3040.7374
 Red. masses --      1.1024                 1.0357                 1.0369
 Frc consts  --      5.9842                 5.6351                 5.6487
 IR Inten    --      0.0000                43.1205                 3.3393

                     55                     56                     57
                      A                      A                      A
 Frequencies --   3043.8949              3094.3941              3095.4023
 Red. masses --      1.1012                 1.0997                 1.0995
 Frc consts  --      6.0116                 6.2041                 6.2067
 IR Inten    --     44.5762                27.6798                 2.8992

                     58                     59                     60
                      A                      A                      A
 Frequencies --   3098.2677              3098.5050              3102.6725
 Red. masses --      1.1008                 1.1014                 1.0983
 Frc consts  --      6.2259                 6.2302                 6.2296
 IR Inten    --     45.4932                 0.0002                96.5151

                     61                     62                     63
                      A                      A                      A
 Frequencies --   3108.0064              3111.6111              3112.5917
 Red. masses --      1.0992                 1.1010                 1.1007
 Frc consts  --      6.2559                 6.2806                 6.2832
 IR Inten    --     36.6768                68.9522                 0.0000

 - Thermochemistry -
 -------------------
 Temperature   298.150 Kelvin.  Pressure   1.00000 Atm.
 Atom     1 has atomic number  6 and mass  12.00000

 Molecular mass:   100.12520 amu.
 Principal axes and moments of inertia in atomic units:
                           1         2         3
     Eigenvalues --   441.963631163.202021173.19156
           X            1.00000  -0.00000   0.00000
           Y            0.00000   1.00000  -0.00001
           Z           -0.00000   0.00001   1.00000
 This molecule is an asymmetric top.
 Rotational symmetry number  1.
 Warning -- assumption of classical behavior for rotation
           may cause significant error
 Rotational temperatures (Kelvin)      0.19598     0.07446     0.07383
 Rotational constants (GHZ):           4.08346     1.55153     1.53832
 Zero-point vibrational energy     566957.1 (Joules/Mol)
                                  135.50600 (Kcal/Mol)
 Warning -- explicit consideration of  13 degrees of freedom as
           vibrations may cause significant error
 Vibrational temperatures:     87.52   125.94   286.96   302.58   336.99
          (Kelvin)            362.57   424.76   470.17   475.05   525.30
                              584.50   595.68   733.07  1012.51  1113.65
                             1138.02  1211.00  1327.55  1351.78  1431.20
                             1445.59  1453.60  1500.05  1513.24  1584.70
                             1608.16  1745.00  1779.10  1813.50  1867.36
                             1954.62  1964.25  1976.43  2014.37  2029.36
                             2030.52  2052.58  2120.57  2133.62  2136.54
                             2140.24  2163.02  2167.08  2171.29  2172.18
                             2184.36  2184.52  4320.49  4330.77  4355.38
                             4362.88  4367.19  4372.21  4374.94  4379.49
                             4452.14  4453.59  4457.72  4458.06  4464.05
                             4471.73  4476.91  4478.33

 Zero-point correction=                           0.215943 (Hartree/Particle)
 Thermal correction to Energy=                    0.225623
 Thermal correction to Enthalpy=                  0.226567
 Thermal correction to Gibbs Free Energy=         0.182299
 Sum of electronic and zero-point Energies=           -276.202545
 Sum of electronic and thermal Energies=              -276.192865
 Sum of electronic and thermal Enthalpies=            -276.191921
 Sum of electronic and thermal Free Energies=         -276.236189

                     E (Thermal)             CV                S
                      KCal/Mol        Cal/Mol-Kelvin    Cal/Mol-Kelvin
 Total                  141.580             35.916             93.170
 Electronic               0.000              0.000              0.000
 Translational            0.889              2.981             39.722
 Rotational               0.889              2.981             27.891
 Vibrational            139.803             29.954             25.557
 Vibration     1          0.597              1.973              4.430
 Vibration     2          0.601              1.958              3.714
 Vibration     3          0.638              1.841              2.138
 Vibration     4          0.642              1.825              2.041
 Vibration     5          0.654              1.789              1.846
 Vibration     6          0.664              1.759              1.717
 Vibration     7          0.689              1.683              1.444
 Vibration     8          0.710              1.622              1.276
 Vibration     9          0.713              1.615              1.259
 Vibration    10          0.738              1.544              1.100
 Vibration    11          0.771              1.457              0.940
 Vibration    12          0.778              1.440              0.913
 Vibration    13          0.865              1.229              0.635

 Optimization completed.
    -- Stationary point found.
 Normal termination of Gaussian 16 at Sun May 28 13:51:07 2023.
