 Gaussian 16, Revision A.03,
 Gaussian 16:  ES64L-G16RevA.03 25-Dec-2016

 -----------------------------
 # opt freq b3lyp/6-31g(2df,p)
 -----------------------------

 -------------------
 Title Card Required
 -------------------
 Symbolic Z-matrix:
 Charge =  0 Multiplicity = 1

 SCF Done:  E(RB3LYP) =  -276.411968238     A.U. after   12 cycles
 SCF Done:  E(RB3LYP) =  -276.413438257     A.U. after   10 cycles
 SCF Done:  E(RB3LYP) =  -276.414465388     A.U. after    9 cycles
 SCF Done:  E(RB3LYP) =  -276.415134264     A.U. after    9 cycles
 SCF Done:  E(RB3LYP) =  -276.415370192     A.U. after   10 cycles
 SCF Done:  E(RB3LYP) =  -276.415380525     A.U. after    8 cycles
 SCF Done:  E(RB3LYP) =  -276.415375634     A.U. after    6 cycles
 SCF Done:  E(RB3LYP) =  -276.415527836     A.U. after    9 cycles
 SCF Done:  E(RB3LYP) =  -276.346739623     A.U. after   11 cycles
 SCF Done:  E(RB3LYP) =  -276.415962899     A.U. after   10 cycles
 SCF Done:  E(RB3LYP) =  -276.413361675     A.U. after   10 cycles
 SCF Done:  E(RB3LYP) =  -276.412972558     A.U. after   10 cycles
 SCF Done:  E(RB3LYP) =  -276.416313440     A.U. after    7 cycles
 SCF Done:  E(RB3LYP) =  -276.416636839     A.U. after   10 cycles
 SCF Done:  E(RB3LYP) =  -276.416040872     A.U. after   10 cycles
 SCF Done:  E(RB3LYP) =  -276.416681810     A.U. after    9 cycles
 SCF Done:  E(RB3LYP) =  -276.416701700     A.U. after    8 cycles
 SCF Done:  E(RB3LYP) =  -276.416702289     A.U. after    6 cycles
 SCF Done:  E(RB3LYP) =  -276.416702368     A.U. after    6 cycles
 Optimization completed.
    -- Stationary point found.
 Normal termination of Gaussian 16 at Sun May 28 02:35:08 2023.

 ----------------------------------------------------------------------
 #N Geom=AllCheck Guess=TCheck SCRF=Check GenChk RB3LYP/6-31G(2df,p) Fr
 eq
 ----------------------------------------------------------------------

 Structure from the checkpoint file:  "CCCqCCrCC.chk"
 -------------------
 Title Card Required
 -------------------
 Charge =  0 Multiplicity = 1

                         Standard orientation:
 ---------------------------------------------------------------------
 Center     Atomic      Atomic             Coordinates (Angstroms)
 Number     Number       Type             X           Y           Z
 ---------------------------------------------------------------------
      1          6           0        2.400371   -0.881129    0.250054
      2          6           0        0.980967   -1.302581   -0.142582
      3          6           0       -0.126885   -0.263060    0.121565
      4          6           0        0.116973    1.072327   -0.629901
      5          6           0        0.763657    2.176585    0.215253
      6          6           0       -1.500773   -0.871331   -0.228710
      7          6           0       -2.698749   -0.098388    0.331857
      8          1           0        3.107583   -1.700121    0.082995
      9          1           0        2.455927   -0.607269    1.309728
     10          1           0        2.750787   -0.024652   -0.333971
     11          1           0        0.726108   -2.223359    0.397851
     12          1           0        0.964822   -1.566831   -1.209588
     13          1           0       -0.130771   -0.049315    1.201667
     14          1           0       -0.835110    1.453750   -1.016030
     15          1           0        0.733746    0.877546   -1.517257
     16          1           0        0.125966    2.437791    1.067199
     17          1           0        0.918265    3.086763   -0.373874
     18          1           0        1.734606    1.871357    0.616016
     19          1           0       -1.540327   -1.900710    0.149814
     20          1           0       -1.588361   -0.948883   -1.321485
     21          1           0       -2.662415   -0.059268    1.426456
     22          1           0       -3.642551   -0.574886    0.048060
     23          1           0       -2.731644    0.933551   -0.032801
 ---------------------------------------------------------------------

 SCF Done:  E(RB3LYP) =  -276.416702368     A.U. after    1 cycles

 The electronic state is 1-A.
 Alpha  occ. eigenvalues --  -10.17694 -10.17309 -10.17271 -10.17246 -10.16876
 Alpha  occ. eigenvalues --  -10.16873 -10.16792  -0.81126  -0.74476  -0.73896
 Alpha  occ. eigenvalues --   -0.67198  -0.60770  -0.59294  -0.55041  -0.46195
 Alpha  occ. eigenvalues --   -0.45120  -0.42690  -0.41943  -0.40004  -0.39261
 Alpha  occ. eigenvalues --   -0.38320  -0.37188  -0.35186  -0.34356  -0.33850
 Alpha  occ. eigenvalues --   -0.32639  -0.30940  -0.30042  -0.29793
 Alpha virt. eigenvalues --    0.08628   0.10764   0.11418   0.11977   0.14041
 Alpha virt. eigenvalues --    0.14811   0.15178   0.16633   0.16988   0.17338
 Alpha virt. eigenvalues --    0.18386   0.19334   0.20126   0.20549   0.20637

 Mulliken charges:
               1
     1  C   -0.391056
     2  C   -0.174844
     3  C    0.073935
     4  C   -0.176018
     5  C   -0.381796
     6  C   -0.179812
     7  C   -0.390106
     8  H    0.108905
     9  H    0.112067
    10  H    0.118863
    11  H    0.088630
    12  H    0.090798
    13  H    0.060629
    14  H    0.092343
    15  H    0.090825
    16  H    0.113109
    17  H    0.107660
    18  H    0.118063
    19  H    0.087594
    20  H    0.090847
    21  H    0.112129
    22  H    0.110787
    23  H    0.116447
 Sum of Mulliken charges =  -0.00000

 Dipole moment (field-independent basis, Debye):
    X=             -0.0244    Y=             -0.0849    Z=             -0.0361  Tot=              0.0954
 Quadrupole moment (field-independent basis, Debye-Ang):
   XX=            -48.6642   YY=            -48.2795   ZZ=            -47.7142
   XY=             -0.1156   XZ=             -0.1147   YZ=             -0.3443

  Exact polarizability:  85.939  -0.024  79.250  -0.093   0.199  68.368
 Approx polarizability: 106.016  -0.148 106.059  -0.459  -0.537 105.496

                      1                      2                      3
                      A                      A                      A
 Frequencies --     64.6591                98.3658               133.5977
 Red. masses --      2.1761                 2.0984                 1.5111
 Frc consts  --      0.0054                 0.0120                 0.0159
 IR Inten    --      0.0060                 0.0125                 0.0191

                      4                      5                      6
                      A                      A                      A
 Frequencies --    192.0905               207.9204               224.1595
 Red. masses --      2.3610                 1.1485                 1.2461
 Frc consts  --      0.0513                 0.0293                 0.0369
 IR Inten    --      0.0136                 0.0064                 0.0056

                      7                      8                      9
                      A                      A                      A
 Frequencies --    270.2952               300.1268               317.6132
 Red. masses --      1.1633                 2.0031                 2.0915
 Frc consts  --      0.0501                 0.1063                 0.1243
 IR Inten    --      0.0928                 0.0105                 0.1060

                     10                     11                     12
                      A                      A                      A
 Frequencies --    383.8316               456.8162               471.8727
 Red. masses --      2.6653                 2.4265                 2.2350
 Frc consts  --      0.2314                 0.2983                 0.2932
 IR Inten    --      0.1354                 0.1058                 0.0378

                     13                     14                     15
                      A                      A                      A
 Frequencies --    750.3977               764.1786               781.5054
 Red. masses --      1.4699                 1.2036                 1.2003
 Frc consts  --      0.4876                 0.4141                 0.4319
 IR Inten    --      1.8966                 1.9261                 1.0721

                     16                     17                     18
                      A                      A                      A
 Frequencies --    848.5580               912.2149               920.9286
 Red. masses --      1.4072                 1.9766                 1.8713
 Frc consts  --      0.5970                 0.9691                 0.9351
 IR Inten    --      2.3464                 2.7217                 2.8065

                     19                     20                     21
                      A                      A                      A
 Frequencies --   1021.7615              1027.0860              1033.0203
 Red. masses --      1.3555                 1.5347                 2.1360
 Frc consts  --      0.8337                 0.9539                 1.3430
 IR Inten    --      0.3988                 0.4305                 0.6164

                     22                     23                     24
                      A                      A                      A
 Frequencies --   1046.1755              1059.0756              1066.2415
 Red. masses --      1.8526                 1.5170                 2.7718
 Frc consts  --      1.1946                 1.0025                 1.8566
 IR Inten    --      0.8943                 2.0841                 0.2943

                     25                     26                     27
                      A                      A                      A
 Frequencies --   1168.2219              1174.7325              1188.5367
 Red. masses --      2.0589                 2.1032                 2.0217
 Frc consts  --      1.6555                 1.7101                 1.6826
 IR Inten    --      1.0130                 0.7900                 0.4935

                     28                     29                     30
                      A                      A                      A
 Frequencies --   1276.0384              1282.0255              1313.9743
 Red. masses --      1.2896                 1.2732                 1.1541
 Frc consts  --      1.2372                 1.2330                 1.1740
 IR Inten    --      1.3151                 1.4043                 3.1934

                     31                     32                     33
                      A                      A                      A
 Frequencies --   1314.6710              1349.7715              1373.7357
 Red. masses --      1.1427                 1.2682                 1.3683
 Frc consts  --      1.1636                 1.3613                 1.5214
 IR Inten    --      1.6477                 3.8178                 0.8197

                     34                     35                     36
                      A                      A                      A
 Frequencies --   1386.9334              1396.0152              1409.6838
 Red. masses --      1.4738                 1.4241                 1.2302
 Frc consts  --      1.6703                 1.6352                 1.4404
 IR Inten    --      0.9755                 0.5646                 1.9987

                     37                     38                     39
                      A                      A                      A
 Frequencies --   1413.2356              1414.4214              1479.4015
 Red. masses --      1.2250                 1.2655                 1.0694
 Frc consts  --      1.4415                 1.4917                 1.3790
 IR Inten    --      1.6679                 1.7903                 0.1259

                     40                     41                     42
                      A                      A                      A
 Frequencies --   1486.5972              1490.2768              1498.4570
 Red. masses --      1.0564                 1.0553                 1.0509
 Frc consts  --      1.3756                 1.3809                 1.3903
 IR Inten    --      0.6566                 0.2541                 1.8246

                     43                     44                     45
                      A                      A                      A
 Frequencies --   1499.2897              1506.0995              1507.0149
 Red. masses --      1.0448                 1.0438                 1.0673
 Frc consts  --      1.3838                 1.3950                 1.4282
 IR Inten    --      0.6128                 4.2228                 3.1143

                     46                     47                     48
                      A                      A                      A
 Frequencies --   1511.3558              1512.9563              2979.3057
 Red. masses --      1.0622                 1.0654                 1.0808
 Frc consts  --      1.4295                 1.4369                 5.6523
 IR Inten    --      7.5081                 7.1909                 7.6535

                     49                     50                     51
                      A                      A                      A
 Frequencies --   3003.1993              3010.5773              3020.6321
 Red. masses --      1.0602                 1.0614                 1.0642
 Frc consts  --      5.6337                 5.6679                 5.7212
 IR Inten    --      3.9130                40.1412                45.9890

                     52                     53                     54
                      A                      A                      A
 Frequencies --   3029.4653              3030.3622              3032.2676
 Red. masses --      1.0392                 1.0362                 1.0380
 Frc consts  --      5.6193                 5.6064                 5.6233
 IR Inten    --     33.8780                 2.8577                41.5316

                     55                     56                     57
                      A                      A                      A
 Frequencies --   3036.9551              3047.0455              3053.7080
 Red. masses --      1.0966                 1.0994                 1.0964
 Frc consts  --      5.9593                 6.0142                 6.0239
 IR Inten    --      4.3759                46.8788                23.4571

                     58                     59                     60
                      A                      A                      A
 Frequencies --   3093.8340              3094.3815              3095.8119
 Red. masses --      1.1012                 1.1010                 1.1011
 Frc consts  --      6.2105                 6.2116                 6.2177
 IR Inten    --     19.0415                53.5488                49.6688

                     61                     62                     63
                      A                      A                      A
 Frequencies --   3099.8684              3103.4677              3111.6870
 Red. masses --      1.1007                 1.1009                 1.0998
 Frc consts  --      6.2318                 6.2475                 6.2741
 IR Inten    --     30.1847                76.0699                22.0309

 - Thermochemistry -
 -------------------
 Temperature   298.150 Kelvin.  Pressure   1.00000 Atm.
 Atom     1 has atomic number  6 and mass  12.00000

 Molecular mass:   100.12520 amu.
 Principal axes and moments of inertia in atomic units:
                           1         2         3
     Eigenvalues --   611.186641027.559501479.91691
           X            1.00000  -0.00004   0.00042
           Y            0.00004   0.99999   0.00506
           Z           -0.00042  -0.00506   0.99999
 This molecule is an asymmetric top.
 Rotational symmetry number  1.
 Warning -- assumption of classical behavior for rotation
           may cause significant error
 Rotational temperatures (Kelvin)      0.14171     0.08429     0.05853
 Rotational constants (GHZ):           2.95285     1.75634     1.21949
 Zero-point vibrational energy     569114.5 (Joules/Mol)
                                  136.02162 (Kcal/Mol)
 Warning -- explicit consideration of  12 degrees of freedom as
           vibrations may cause significant error
 Vibrational temperatures:     93.03   141.53   192.22   276.38   299.15
          (Kelvin)            322.52   388.89   431.82   456.97   552.25
                              657.26   678.92  1079.65  1099.48  1124.41
                             1220.89  1312.47  1325.01  1470.09  1477.75
                             1486.29  1505.21  1523.77  1534.08  1680.81
                             1690.18  1710.04  1835.93  1844.55  1890.52
                             1891.52  1942.02  1976.50  1995.49  2008.55
                             2028.22  2033.33  2035.04  2128.53  2138.88
                             2144.18  2155.95  2157.14  2166.94  2168.26
                             2174.50  2176.81  4286.56  4320.93  4331.55
                             4346.02  4358.72  4360.02  4362.76  4369.50
                             4384.02  4393.60  4451.34  4452.12  4454.18
                             4460.02  4465.20  4477.02

 Zero-point correction=                           0.216764 (Hartree/Particle)
 Thermal correction to Energy=                    0.226385
 Thermal correction to Enthalpy=                  0.227329
 Thermal correction to Gibbs Free Energy=         0.182716
 Sum of electronic and zero-point Energies=           -276.199938
 Sum of electronic and thermal Energies=              -276.190318
 Sum of electronic and thermal Enthalpies=            -276.189374
 Sum of electronic and thermal Free Energies=         -276.233987

                     E (Thermal)             CV                S
                      KCal/Mol        Cal/Mol-Kelvin    Cal/Mol-Kelvin
 Total                  142.059             34.854             93.896
 Electronic               0.000              0.000              0.000
 Translational            0.889              2.981             39.722
 Rotational               0.889              2.981             28.321
 Vibrational            140.281             28.893             25.854
 Vibration     1          0.597              1.971              4.310
 Vibration     2          0.604              1.950              3.486
 Vibration     3          0.613              1.920              2.894
 Vibration     4          0.634              1.851              2.208
 Vibration     5          0.641              1.829              2.062
 Vibration     6          0.649              1.804              1.925
 Vibration     7          0.674              1.728              1.594
 Vibration     8          0.693              1.673              1.416
 Vibration     9          0.704              1.640              1.322
 Vibration    10          0.753              1.505              1.024
 Vibration    11          0.815              1.346              0.775
 Vibration    12          0.829              1.312              0.732

 Optimization completed.
    -- Stationary point found.
 Normal termination of Gaussian 16 at Sun May 28 03:09:32 2023.
