 Gaussian 16, Revision A.03,
 Gaussian 16:  ES64L-G16RevA.03 25-Dec-2016

 -----------------------------
 # opt freq b3lyp/6-31g(2df,p)
 -----------------------------

 -------------------
 Title Card Required
 -------------------
 Symbolic Z-matrix:
 Charge =  0 Multiplicity = 1

 SCF Done:  E(RB3LYP) =  -775.922114623     A.U. after   13 cycles
 SCF Done:  E(RB3LYP) =  -775.932901080     A.U. after   11 cycles
 SCF Done:  E(RB3LYP) =  -775.940793392     A.U. after   11 cycles
 SCF Done:  E(RB3LYP) =  -775.943705781     A.U. after   11 cycles
 SCF Done:  E(RB3LYP) =  -775.945472803     A.U. after   11 cycles
 SCF Done:  E(RB3LYP) =  -775.946925767     A.U. after   11 cycles
 SCF Done:  E(RB3LYP) =  -775.947886943     A.U. after   11 cycles
 SCF Done:  E(RB3LYP) =  -775.948450034     A.U. after   12 cycles
 SCF Done:  E(RB3LYP) =  -775.948774403     A.U. after   10 cycles
 SCF Done:  E(RB3LYP) =  -775.948904592     A.U. after   11 cycles
 SCF Done:  E(RB3LYP) =  -775.949140674     A.U. after    9 cycles
 SCF Done:  E(RB3LYP) =  -775.949146996     A.U. after    9 cycles
 SCF Done:  E(RB3LYP) =  -775.949148653     A.U. after    7 cycles
 SCF Done:  E(RB3LYP) =  -775.949149553     A.U. after    7 cycles
 SCF Done:  E(RB3LYP) =  -775.949149646     A.U. after    6 cycles
 SCF Done:  E(RB3LYP) =  -775.949149629     A.U. after    6 cycles
 SCF Done:  E(RB3LYP) =  -775.949149477     A.U. after    7 cycles
 SCF Done:  E(RB3LYP) =  -775.949149384     A.U. after    6 cycles
 SCF Done:  E(RB3LYP) =  -775.949149268     A.U. after    6 cycles
 Optimization completed.
    -- Stationary point found.
 Normal termination of Gaussian 16 at Tue May 23 01:43:13 2023.

 ----------------------------------------------------------------------
 #N Geom=AllCheck Guess=TCheck SCRF=Check GenChk RB3LYP/6-31G(2df,p) Fr
 eq
 ----------------------------------------------------------------------

 Structure from the checkpoint file:  "CCCqCrCCqOCrC1CCqCrC1CCOO.chk"
 -------------------
 Title Card Required
 -------------------
 Charge =  0 Multiplicity = 1

                         Standard orientation:
 ---------------------------------------------------------------------
 Center     Atomic      Atomic             Coordinates (Angstroms)
 Number     Number       Type             X           Y           Z
 ---------------------------------------------------------------------
      1          6           0       -4.823480    0.098405    0.579043
      2          6           0       -3.487260    0.377539   -0.116716
      3          6           0       -2.483470   -0.793008   -0.092815
      4          6           0       -3.018597   -2.015743   -0.852816
      5          6           0       -1.124883   -0.313425   -0.642526
      6          6           0        0.067835   -1.261995   -0.439320
      7          8           0        0.350427   -1.403218    0.959808
      8          6           0        0.038205   -2.658024    1.524785
      9          6           0        1.331853   -0.827582   -1.197579
     10          6           0        2.564051   -1.762663   -1.007487
     11          6           0        3.361543   -0.618079   -0.319332
     12          6           0        3.630122   -0.825528    1.168042
     13          6           0        2.222659    0.383238   -0.714611
     14          6           0        1.727124    1.404276    0.313263
     15          6           0        0.982792    2.561490   -0.355018
     16          8           0        0.225844    3.201340    0.663845
     17          8           0       -0.513644    4.274493    0.036951
     18          1           0       -5.449648    0.996109    0.591228
     19          1           0       -4.669559   -0.211029    1.619288
     20          1           0       -5.394506   -0.690132    0.079241
     21          1           0       -3.016101    1.246516    0.358686
     22          1           0       -3.671427    0.668213   -1.160847
     23          1           0       -2.335766   -1.070492    0.959970
     24          1           0       -3.209534   -1.764895   -1.903737
     25          1           0       -3.956333   -2.379643   -0.423507
     26          1           0       -2.313927   -2.852879   -0.837814
     27          1           0       -0.887786    0.640960   -0.165249
     28          1           0       -1.227209   -0.112229   -1.718268
     29          1           0       -0.190417   -2.253300   -0.842048
     30          1           0        0.346246   -2.623056    2.573414
     31          1           0        0.577263   -3.478727    1.028842
     32          1           0       -1.037392   -2.879137    1.484306
     33          1           0        1.034622   -0.723422   -2.246318
     34          1           0        2.999759   -2.107059   -1.948983
     35          1           0        2.388045   -2.636333   -0.373886
     36          1           0        4.307624   -0.387296   -0.820238
     37          1           0        2.704134   -1.039729    1.707231
     38          1           0        4.096832    0.054953    1.622868
     39          1           0        4.313586   -1.670145    1.313033
     40          1           0        2.546361    0.933855   -1.606627
     41          1           0        2.581371    1.811335    0.866236
     42          1           0        1.076123    0.928969    1.050358
     43          1           0        0.307375    2.206021   -1.143055
     44          1           0        1.685619    3.274265   -0.810616
     45          1           0       -0.037337    5.043984    0.380184
 ---------------------------------------------------------------------

 SCF Done:  E(RB3LYP) =  -775.949149268     A.U. after    1 cycles

 The electronic state is 1-A.
 Alpha  occ. eigenvalues --  -19.18439 -19.18161 -19.13687 -10.22672 -10.22328
 Alpha  occ. eigenvalues --  -10.22123 -10.18146 -10.17978 -10.17860 -10.17657
 Alpha  occ. eigenvalues --  -10.17323 -10.16986 -10.16927 -10.16903 -10.16810
 Alpha  occ. eigenvalues --  -10.16560 -10.16128  -1.10600  -1.02521  -0.90308
 Alpha  occ. eigenvalues --   -0.84138  -0.80647  -0.75620  -0.74528  -0.71887
 Alpha  occ. eigenvalues --   -0.70085  -0.67399  -0.64752  -0.64240  -0.60999
 Alpha  occ. eigenvalues --   -0.59241  -0.56866  -0.55026  -0.52677  -0.50428
 Alpha  occ. eigenvalues --   -0.50199  -0.47948  -0.47125  -0.46238  -0.45322
 Alpha  occ. eigenvalues --   -0.44579  -0.44188  -0.42989  -0.41920  -0.41318
 Alpha  occ. eigenvalues --   -0.41014  -0.40620  -0.39503  -0.38729  -0.37982
 Alpha  occ. eigenvalues --   -0.37488  -0.36578  -0.35952  -0.35632  -0.34809
 Alpha  occ. eigenvalues --   -0.34559  -0.33984  -0.32533  -0.31671  -0.31263
 Alpha  occ. eigenvalues --   -0.30975  -0.30059  -0.29830  -0.28938  -0.27671
 Alpha  occ. eigenvalues --   -0.27453  -0.25512  -0.24680
 Alpha virt. eigenvalues --    0.04087   0.06891   0.08196   0.08497   0.09930
 Alpha virt. eigenvalues --    0.10707   0.11319   0.11739   0.12689   0.12853
 Alpha virt. eigenvalues --    0.13225   0.13846   0.14437   0.14818   0.15272

 Mulliken charges:
               1
     1  C   -0.393523
     2  C   -0.175120
     3  C    0.034076
     4  C   -0.397026
     5  C   -0.205364
     6  C    0.055731
     7  O   -0.246186
     8  C   -0.243003
     9  C   -0.015297
    10  C   -0.263937
    11  C    0.005135
    12  C   -0.409458
    13  C    0.014317
    14  C   -0.256580
    15  C   -0.016035
    16  O   -0.193918
    17  O   -0.327472
    18  H    0.112128
    19  H    0.111709
    20  H    0.114110
    21  H    0.109195
    22  H    0.088744
    23  H    0.078756
    24  H    0.109220
    25  H    0.114733
    26  H    0.108336
    27  H    0.125757
    28  H    0.082617
    29  H    0.071825
    30  H    0.125749
    31  H    0.105688
    32  H    0.112447
    33  H    0.065603
    34  H    0.091098
    35  H    0.095735
    36  H    0.059930
    37  H    0.138782
    38  H    0.106648
    39  H    0.102864
    40  H    0.065009
    41  H    0.098566
    42  H    0.141497
    43  H    0.104796
    44  H    0.083567
    45  H    0.308549
 Sum of Mulliken charges =  -0.00000

 Dipole moment (field-independent basis, Debye):
    X=              0.9566    Y=             -0.5498    Z=             -0.7696  Tot=              1.3453
 Quadrupole moment (field-independent basis, Debye-Ang):
   XX=           -108.1512   YY=            -98.1124   ZZ=           -107.1359
   XY=              5.4516   XZ=             -1.0656   YZ=             -1.1613

  Exact polarizability: 183.330  -7.733 171.759   0.620  -1.413 140.900
 Approx polarizability: 226.994  -5.898 235.657   3.128  -2.879 222.512

                      1                      2                      3
                      A                      A                      A
 Frequencies --     18.7292                34.6884                43.4254
 Red. masses --      5.9552                 3.5080                 2.6201
 Frc consts  --      0.0012                 0.0025                 0.0029
 IR Inten    --      1.5184                 0.2201                 0.1129

                      4                      5                      6
                      A                      A                      A
 Frequencies --     66.6609                70.3910                90.1292
 Red. masses --      3.3420                 3.1032                 2.1731
 Frc consts  --      0.0087                 0.0091                 0.0104
 IR Inten    --      0.3531                 0.7581                 3.9988

                      7                      8                      9
                      A                      A                      A
 Frequencies --     99.8984               107.6730               111.4384
 Red. masses --      3.4676                 2.4416                 2.8446
 Frc consts  --      0.0204                 0.0167                 0.0208
 IR Inten    --      6.0241                 2.3347                 1.1521

                     10                     11                     12
                      A                      A                      A
 Frequencies --    114.1467               151.0498               170.3422
 Red. masses --      2.9991                 1.4114                 2.3509
 Frc consts  --      0.0230                 0.0190                 0.0402
 IR Inten    --      0.5302                 0.5983                 8.4181

                     13                     14                     15
                      A                      A                      A
 Frequencies --    187.0557               207.0211               207.9784
 Red. masses --      2.6070                 1.4751                 1.6527
 Frc consts  --      0.0537                 0.0372                 0.0421
 IR Inten    --      1.4597                 2.5444                 2.6132

                     16                     17                     18
                      A                      A                      A
 Frequencies --    217.9540               225.9768               244.0811
 Red. masses --      1.5365                 2.0180                 2.1207
 Frc consts  --      0.0430                 0.0607                 0.0744
 IR Inten    --     48.6058                35.0094                 0.8757

                     19                     20                     21
                      A                      A                      A
 Frequencies --    253.3492               270.0099               283.0506
 Red. masses --      1.4227                 1.2431                 2.4129
 Frc consts  --      0.0538                 0.0534                 0.1139
 IR Inten    --      0.3570                 0.0998                 0.2612

                     22                     23                     24
                      A                      A                      A
 Frequencies --    324.9634               331.7119               356.3128
 Red. masses --      3.0604                 3.2145                 2.2190
 Frc consts  --      0.1904                 0.2084                 0.1660
 IR Inten    --      0.5954                 2.4934                 2.2801

                     25                     26                     27
                      A                      A                      A
 Frequencies --    367.2443               394.4222               419.5985
 Red. masses --      2.2241                 2.8556                 2.0214
 Frc consts  --      0.1767                 0.2617                 0.2097
 IR Inten    --      1.8330                 1.0516                 0.5014

                     28                     29                     30
                      A                      A                      A
 Frequencies --    427.1793               471.9217               534.4660
 Red. masses --      3.9189                 2.5888                 2.9186
 Frc consts  --      0.4213                 0.3397                 0.4912
 IR Inten    --      0.4045                 0.7100                 3.5494

                     31                     32                     33
                      A                      A                      A
 Frequencies --    542.2850               645.5896               715.3789
 Red. masses --      3.2698                 3.0721                 2.1352
 Frc consts  --      0.5665                 0.7544                 0.6438
 IR Inten    --     14.4707                 0.6191                 1.1155

                     34                     35                     36
                      A                      A                      A
 Frequencies --    746.9193               774.9375               803.3679
 Red. masses --      2.5312                 1.2821                 2.2598
 Frc consts  --      0.8320                 0.4536                 0.8593
 IR Inten    --      4.1456                 2.9167                 1.3571

                     37                     38                     39
                      A                      A                      A
 Frequencies --    820.8866               839.5830               845.8759
 Red. masses --      1.6683                 2.3611                 1.7342
 Frc consts  --      0.6623                 0.9806                 0.7311
 IR Inten    --      1.8496                 1.5488                 2.2462

                     40                     41                     42
                      A                      A                      A
 Frequencies --    875.7050               913.5390               918.2175
 Red. masses --      1.7151                 2.1868                 2.0373
 Frc consts  --      0.7749                 1.0752                 1.0120
 IR Inten    --      2.6655                 3.3981                 2.1588

                     43                     44                     45
                      A                      A                      A
 Frequencies --    942.9821               953.1466               970.6717
 Red. masses --      9.3456                 1.6892                 1.8870
 Frc consts  --      4.8962                 0.9042                 1.0475
 IR Inten    --     10.2432                 4.8740                 7.2325

                     46                     47                     48
                      A                      A                      A
 Frequencies --    981.7259              1014.1221              1021.8821
 Red. masses --      1.4462                 2.3048                 1.8150
 Frc consts  --      0.8212                 1.3966                 1.1167
 IR Inten    --      1.9272                 2.4758                 2.0147

                     49                     50                     51
                      A                      A                      A
 Frequencies --   1029.4253              1043.0177              1047.2405
 Red. masses --      1.7871                 1.9818                 1.9606
 Frc consts  --      1.1158                 1.2702                 1.2669
 IR Inten    --      1.0406                 4.5956                11.2922

                     52                     53                     54
                      A                      A                      A
 Frequencies --   1054.4084              1066.7695              1084.8467
 Red. masses --      2.6575                 2.9237                 1.6310
 Frc consts  --      1.7408                 1.9603                 1.1310
 IR Inten    --      1.9644                 8.1397                 4.6790

                     55                     56                     57
                      A                      A                      A
 Frequencies --   1118.7654              1126.2011              1133.6643
 Red. masses --      2.0419                 2.8316                 3.0753
 Frc consts  --      1.5058                 2.1160                 2.3287
 IR Inten    --      8.7908                42.3415                72.5667

                     58                     59                     60
                      A                      A                      A
 Frequencies --   1152.3964              1157.5518              1175.3941
 Red. masses --      2.4190                 1.9673                 2.3690
 Frc consts  --      1.8927                 1.5531                 1.9283
 IR Inten    --     19.2305                 6.8904                14.2493

                     61                     62                     63
                      A                      A                      A
 Frequencies --   1180.7940              1182.9918              1187.3457
 Red. masses --      1.3010                 1.9034                 2.0660
 Frc consts  --      1.0687                 1.5694                 1.7160
 IR Inten    --      1.8272                 1.5056                 5.1102

                     64                     65                     66
                      A                      A                      A
 Frequencies --   1212.4624              1225.6604              1234.8843
 Red. masses --      1.4155                 1.3430                 1.2776
 Frc consts  --      1.2260                 1.1887                 1.1479
 IR Inten    --      8.9260                 6.1860                 0.6049

                     67                     68                     69
                      A                      A                      A
 Frequencies --   1258.6426              1262.9825              1274.7131
 Red. masses --      1.3448                 1.3790                 1.2984
 Frc consts  --      1.2552                 1.2960                 1.2431
 IR Inten    --      1.0574                 2.4927                 0.8255

                     70                     71                     72
                      A                      A                      A
 Frequencies --   1280.0656              1290.3231              1298.8796
 Red. masses --      1.4327                 1.2299                 1.3585
 Frc consts  --      1.3831                 1.2065                 1.3503
 IR Inten    --      1.1539                 0.8090                 0.9261

                     73                     74                     75
                      A                      A                      A
 Frequencies --   1306.5217              1321.9340              1336.8491
 Red. masses --      1.2294                 1.2753                 1.2491
 Frc consts  --      1.2365                 1.3131                 1.3153
 IR Inten    --      1.0657                 3.9182                 1.1383

                     76                     77                     78
                      A                      A                      A
 Frequencies --   1357.5877              1368.2327              1378.3042
 Red. masses --      1.4566                 1.3574                 1.3229
 Frc consts  --      1.5817                 1.4972                 1.4807
 IR Inten    --      0.2635                12.0420                15.3356

                     79                     80                     81
                      A                      A                      A
 Frequencies --   1379.4995              1381.2612              1388.2215
 Red. masses --      1.3039                 1.3577                 1.2614
 Frc consts  --      1.4619                 1.5261                 1.4323
 IR Inten    --     11.8390                14.2400                21.7882

                     82                     83                     84
                      A                      A                      A
 Frequencies --   1393.8516              1402.9885              1406.5983
 Red. masses --      1.3829                 1.2379                 1.3433
 Frc consts  --      1.5829                 1.4356                 1.5658
 IR Inten    --      2.8924                13.7851                 5.5786

                     85                     86                     87
                      A                      A                      A
 Frequencies --   1409.0880              1413.2490              1415.5673
 Red. masses --      1.3333                 1.2266                 1.3106
 Frc consts  --      1.5598                 1.4434                 1.5474
 IR Inten    --      8.2006                 1.4514                 9.1311

                     88                     89                     90
                      A                      A                      A
 Frequencies --   1469.9961              1478.8193              1482.7444
 Red. masses --      1.0872                 1.1048                 1.1105
 Frc consts  --      1.3841                 1.4235                 1.4385
 IR Inten    --      0.5168                 0.9181                 0.8260

                     91                     92                     93
                      A                      A                      A
 Frequencies --   1485.6616              1487.7946              1495.9507
 Red. masses --      1.0816                 1.0631                 1.0456
 Frc consts  --      1.4066                 1.3864                 1.3786
 IR Inten    --      0.3104                 2.2050                 2.0015

                     94                     95                     96
                      A                      A                      A
 Frequencies --   1497.0421              1498.7885              1503.5985
 Red. masses --      1.0453                 1.0578                 1.0625
 Frc consts  --      1.3802                 1.4000                 1.4152
 IR Inten    --      4.2706                 1.0577                 1.3283

                     97                     98                     99
                      A                      A                      A
 Frequencies --   1507.2959              1512.0440              1513.6788
 Red. masses --      1.0674                 1.0630                 1.0470
 Frc consts  --      1.4288                 1.4319                 1.4134
 IR Inten    --      6.0646                 3.6421                 2.5398

                    100                    101                    102
                      A                      A                      A
 Frequencies --   1515.1011              1532.4121              2978.1369
 Red. masses --      1.0595                 1.0857                 1.0638
 Frc consts  --      1.4329                 1.5022                 5.5593
 IR Inten    --      8.3288                 7.8037                 9.3923

                    103                    104                    105
                      A                      A                      A
 Frequencies --   2989.2964              2994.5644              3003.9775
 Red. masses --      1.0538                 1.0632                 1.0712
 Frc consts  --      5.5484                 5.6173                 5.6951
 IR Inten    --     67.3417                29.2889                 5.4857

                    106                    107                    108
                      A                      A                      A
 Frequencies --   3007.6778              3009.6065              3019.3451
 Red. masses --      1.0717                 1.0804                 1.0685
 Frc consts  --      5.7119                 5.7659                 5.7391
 IR Inten    --      3.0064                22.7547                28.5251

                    109                    110                    111
                      A                      A                      A
 Frequencies --   3027.8153              3028.8145              3031.1593
 Red. masses --      1.0420                 1.0449                 1.0374
 Frc consts  --      5.6280                 5.6476                 5.6157
 IR Inten    --     24.9171                24.2561                28.1286

                    112                    113                    114
                      A                      A                      A
 Frequencies --   3036.8933              3037.3825              3039.0364
 Red. masses --      1.0829                 1.0979                 1.0805
 Frc consts  --      5.8842                 5.9676                 5.8794
 IR Inten    --     21.7732                66.2356                34.1218

                    115                    116                    117
                      A                      A                      A
 Frequencies --   3044.4694              3050.0522              3053.0402
 Red. masses --      1.0771                 1.0978                 1.0847
 Frc consts  --      5.8820                 6.0173                 5.9567
 IR Inten    --     33.8078                11.6280                79.0560

                    118                    119                    120
                      A                      A                      A
 Frequencies --   3056.9403              3086.2487              3092.2003
 Red. masses --      1.0669                 1.0999                 1.0969
 Frc consts  --      5.8740                 6.1725                 6.1797
 IR Inten    --     50.1530                34.4596                30.5404

                    121                    122                    123
                      A                      A                      A
 Frequencies --   3095.4707              3100.3397              3102.8456
 Red. masses --      1.1004                 1.0979                 1.0965
 Frc consts  --      6.2122                 6.2177                 6.2197
 IR Inten    --     38.3427                24.1226                29.0323

                    124                    125                    126
                      A                      A                      A
 Frequencies --   3103.4779              3106.4565              3109.3047
 Red. masses --      1.1051                 1.0981                 1.0992
 Frc consts  --      6.2713                 6.2434                 6.2612
 IR Inten    --     49.2952                25.0315                32.3858

                    127                    128                    129
                      A                      A                      A
 Frequencies --   3113.9569              3126.6367              3749.8039
 Red. masses --      1.0946                 1.0989                 1.0687
 Frc consts  --      6.2534                 6.3292                 8.8533
 IR Inten    --      5.2623                24.7078                31.4533

 - Thermochemistry -
 -------------------
 Temperature   298.150 Kelvin.  Pressure   1.00000 Atm.
 Atom     1 has atomic number  6 and mass  12.00000

 Molecular mass:   244.20384 amu.
 Principal axes and moments of inertia in atomic units:
                           1         2         3
     Eigenvalues --  3938.954625514.569328217.70479
           X            0.99988   0.01543   0.00302
           Y           -0.01541   0.99985  -0.00792
           Z           -0.00314   0.00787   0.99996
 This molecule is an asymmetric top.
 Rotational symmetry number  1.
 Warning -- assumption of classical behavior for rotation
           may cause significant error
 Rotational temperatures (Kelvin)      0.02199     0.01571     0.01054
 Rotational constants (GHZ):           0.45818     0.32727     0.21962
 Zero-point vibrational energy    1064944.1 (Joules/Mol)
                                  254.52774 (Kcal/Mol)
 Warning -- explicit consideration of  31 degrees of freedom as
           vibrations may cause significant error
 Vibrational temperatures:     26.95    49.91    62.48    95.91   101.28
          (Kelvin)            129.68   143.73   154.92   160.34   164.23
                              217.33   245.08   269.13   297.86   299.23
                              313.59   325.13   351.18   364.51   388.48
                              407.25   467.55   477.26   512.65   528.38
                              567.49   603.71   614.62   678.99   768.98
                              780.23   928.86  1029.27  1074.65  1114.96
                             1155.87  1181.07  1207.97  1217.03  1259.94
                             1314.38  1321.11  1356.74  1371.37  1396.58
                             1412.48  1459.10  1470.26  1481.11  1500.67
                             1506.75  1517.06  1534.84  1560.85  1609.65
                             1620.35  1631.09  1658.04  1665.46  1691.13
                             1698.90  1702.06  1708.33  1744.46  1763.45
                             1776.72  1810.91  1817.15  1834.03  1841.73
                             1856.49  1868.80  1879.79  1901.97  1923.43
                             1953.27  1968.58  1983.07  1984.79  1987.33
                             1997.34  2005.44  2018.59  2023.78  2027.36
                             2033.35  2036.69  2115.00  2127.69  2133.34
                             2137.54  2140.60  2152.34  2153.91  2156.42
                             2163.34  2168.66  2175.49  2177.85  2179.89
                             2204.80  4284.87  4300.93  4308.51  4322.05
                             4327.38  4330.15  4344.16  4356.35  4357.79
                             4361.16  4369.41  4370.12  4372.50  4380.31
                             4388.34  4392.64  4398.26  4440.42  4448.99
                             4453.69  4460.70  4464.30  4465.21  4469.50
                             4473.60  4480.29  4498.53  5395.13

 Zero-point correction=                           0.405616 (Hartree/Particle)
 Thermal correction to Energy=                    0.426929
 Thermal correction to Enthalpy=                  0.427873
 Thermal correction to Gibbs Free Energy=         0.354466
 Sum of electronic and zero-point Energies=           -775.543533
 Sum of electronic and thermal Energies=              -775.522220
 Sum of electronic and thermal Enthalpies=            -775.521276
 Sum of electronic and thermal Free Energies=         -775.594684

                     E (Thermal)             CV                S
                      KCal/Mol        Cal/Mol-Kelvin    Cal/Mol-Kelvin
 Total                  267.902             77.600            154.499
 Electronic               0.000              0.000              0.000
 Translational            0.889              2.981             42.379
 Rotational               0.889              2.981             33.545
 Vibrational            266.125             71.639             78.575
 Vibration     1          0.593              1.986              6.765
 Vibration     2          0.594              1.983              5.541
 Vibration     3          0.595              1.980              5.096
 Vibration     4          0.598              1.970              4.250
 Vibration     5          0.598              1.968              4.142
 Vibration     6          0.602              1.956              3.657
 Vibration     7          0.604              1.949              3.456
 Vibration     8          0.606              1.943              3.310
 Vibration     9          0.607              1.940              3.244
 Vibration    10          0.607              1.938              3.197
 Vibration    11          0.618              1.902              2.659
 Vibration    12          0.625              1.879              2.432
 Vibration    13          0.632              1.858              2.257
 Vibration    14          0.641              1.830              2.070
 Vibration    15          0.641              1.828              2.061
 Vibration    16          0.646              1.814              1.976
 Vibration    17          0.650              1.801              1.911
 Vibration    18          0.659              1.773              1.773
 Vibration    19          0.665              1.757              1.707
 Vibration    20          0.674              1.728              1.596
 Vibration    21          0.682              1.705              1.515
 Vibration    22          0.709              1.626              1.285
 Vibration    23          0.714              1.612              1.252
 Vibration    24          0.732              1.562              1.138
 Vibration    25          0.740              1.540              1.091
 Vibration    26          0.761              1.482              0.983
 Vibration    27          0.782              1.428              0.893
 Vibration    28          0.789              1.411              0.868
 Vibration    29          0.829              1.312              0.732
 Vibration    30          0.889              1.174              0.577
 Vibration    31          0.897              1.157              0.560

 Optimization completed.
    -- Stationary point found.
 Normal termination of Gaussian 16 at Tue May 23 07:49:25 2023.
