 Gaussian 16, Revision A.03,
 Gaussian 16:  ES64L-G16RevA.03 25-Dec-2016

 -----------------------------
 # opt freq b3lyp/6-31g(2df,p)
 -----------------------------

 -------------------
 Title Card Required
 -------------------
 Symbolic Z-matrix:
 Charge =  0 Multiplicity = 1

 SCF Done:  E(RB3LYP) =  -522.494269391     A.U. after   14 cycles
 SCF Done:  E(RB3LYP) =  -522.500616508     A.U. after   12 cycles
 SCF Done:  E(RB3LYP) =  -522.501304894     A.U. after   10 cycles
 SCF Done:  E(RB3LYP) =  -522.501374159     A.U. after   11 cycles
 SCF Done:  E(RB3LYP) =  -522.501387286     A.U. after    9 cycles
 SCF Done:  E(RB3LYP) =  -522.501402002     A.U. after    9 cycles
 SCF Done:  E(RB3LYP) =  -522.476309690     A.U. after   12 cycles
 SCF Done:  E(RB3LYP) =  -522.501606712     A.U. after   11 cycles
 SCF Done:  E(RB3LYP) =  -522.470926042     A.U. after   13 cycles
 SCF Done:  E(RB3LYP) =  -522.502443761     A.U. after   12 cycles
 SCF Done:  E(RB3LYP) =  -522.505590762     A.U. after   11 cycles
 SCF Done:  E(RB3LYP) =  -522.505629315     A.U. after   11 cycles
 SCF Done:  E(RB3LYP) =  -522.505626599     A.U. after    9 cycles
 SCF Done:  E(RB3LYP) =  -522.505630750     A.U. after    9 cycles
 SCF Done:  E(RB3LYP) =  -522.505630943     A.U. after    8 cycles
 SCF Done:  E(RB3LYP) =  -522.505632162     A.U. after    9 cycles
 SCF Done:  E(RB3LYP) =  -522.505633057     A.U. after    9 cycles
 SCF Done:  E(RB3LYP) =  -522.505633285     A.U. after    9 cycles
 SCF Done:  E(RB3LYP) =  -522.505633292     A.U. after    6 cycles
 Optimization completed.
    -- Stationary point found.
 Normal termination of Gaussian 16 at Sun May 28 07:57:07 2023.

 ----------------------------------------------------------------------
 #N Geom=AllCheck Guess=TCheck SCRF=Check GenChk RB3LYP/6-31G(2df,p) Fr
 eq
 ----------------------------------------------------------------------

 Structure from the checkpoint file:  "CCCqCrCCCdCqOrCqCrdN.chk"
 -------------------
 Title Card Required
 -------------------
 Charge =  0 Multiplicity = 1

                         Standard orientation:
 ---------------------------------------------------------------------
 Center     Atomic      Atomic             Coordinates (Angstroms)
 Number     Number       Type             X           Y           Z
 ---------------------------------------------------------------------
      1          6           0        5.165760    0.668984    0.170421
      2          6           0        3.693048    0.832344    0.560391
      3          6           0        2.704815   -0.034893   -0.244473
      4          6           0        2.938611   -1.534985   -0.011184
      5          6           0        1.258799    0.381580    0.084790
      6          6           0        0.172414   -0.263414   -0.799996
      7          6           0       -1.192173    0.308795   -0.541377
      8          6           0       -2.274885   -0.346207   -0.093935
      9          8           0       -2.310867   -1.685058    0.183084
     10          6           0       -3.593382    0.297725    0.161900
     11          6           0       -3.733535    1.780128   -0.086201
     12          7           0       -4.609418   -0.350769    0.582494
     13          1           0        5.795246    1.368599    0.729156
     14          1           0        5.316462    0.868006   -0.896787
     15          1           0        5.538558   -0.338896    0.375882
     16          1           0        3.410840    1.885486    0.434588
     17          1           0        3.570042    0.613329    1.630294
     18          1           0        2.875498    0.173320   -1.312232
     19          1           0        2.759493   -1.797447    1.038930
     20          1           0        3.963846   -1.825853   -0.255439
     21          1           0        2.277820   -2.152131   -0.627188
     22          1           0        1.175428    1.471585   -0.014527
     23          1           0        1.042032    0.157584    1.138028
     24          1           0        0.186072   -1.352171   -0.661459
     25          1           0        0.438693   -0.102329   -1.855045
     26          1           0       -1.296730    1.372458   -0.720354
     27          1           0       -1.451982   -2.074290   -0.007732
     28          1           0       -3.040066    2.357254    0.534508
     29          1           0       -4.755226    2.075056    0.153705
     30          1           0       -3.525376    2.032549   -1.131330
     31          1           0       -4.364620   -1.336604    0.702851
 ---------------------------------------------------------------------

 SCF Done:  E(RB3LYP) =  -522.505633292     A.U. after    1 cycles

 The electronic state is 1-A.
 Alpha  occ. eigenvalues --  -19.17219 -14.29791 -10.24216 -10.22593 -10.19972
 Alpha  occ. eigenvalues --  -10.19127 -10.18695 -10.18391 -10.18217 -10.17788
 Alpha  occ. eigenvalues --  -10.17677 -10.17605  -1.06212  -0.89226  -0.82569
 Alpha  occ. eigenvalues --   -0.79140  -0.74784  -0.72297  -0.70340  -0.66682
 Alpha  occ. eigenvalues --   -0.62460  -0.58926  -0.56193  -0.54601  -0.51518
 Alpha  occ. eigenvalues --   -0.49747  -0.46936  -0.44844  -0.43910  -0.42948
 Alpha  occ. eigenvalues --   -0.42285  -0.39880  -0.39490  -0.39284  -0.38986
 Alpha  occ. eigenvalues --   -0.38486  -0.37716  -0.37128  -0.36100  -0.35732
 Alpha  occ. eigenvalues --   -0.34283  -0.32478  -0.32188  -0.31750  -0.29697
 Alpha  occ. eigenvalues --   -0.25216  -0.22639
 Alpha virt. eigenvalues --   -0.02443   0.05001   0.08171   0.09253   0.09822
 Alpha virt. eigenvalues --    0.11113   0.11996   0.13015   0.13992   0.14730
 Alpha virt. eigenvalues --    0.15492   0.16114   0.16346   0.16835   0.17315

 Mulliken charges:
               1
     1  C   -0.392441
     2  C   -0.169158
     3  C    0.046873
     4  C   -0.392741
     5  C   -0.165213
     6  C   -0.303604
     7  C   -0.159450
     8  C    0.270027
     9  O   -0.439210
    10  C    0.295787
    11  C   -0.468579
    12  N   -0.476621
    13  H    0.113874
    14  H    0.113224
    15  H    0.118767
    16  H    0.091863
    17  H    0.093492
    18  H    0.067579
    19  H    0.111893
    20  H    0.117989
    21  H    0.111707
    22  H    0.094387
    23  H    0.099205
    24  H    0.078195
    25  H    0.115202
    26  H    0.095791
    27  H    0.296019
    28  H    0.130313
    29  H    0.141454
    30  H    0.130440
    31  H    0.232937
 Sum of Mulliken charges =  -0.00000

 Dipole moment (field-independent basis, Debye):
    X=              3.8848    Y=              0.1043    Z=             -0.9718  Tot=              4.0059
 Quadrupole moment (field-independent basis, Debye-Ang):
   XX=            -96.0373   YY=            -71.3918   ZZ=            -76.3926
   XY=             -2.3161   XZ=              3.4920   YZ=             -0.4214

  Exact polarizability: 170.827   6.830 114.488 -10.751  -4.651  90.413
 Approx polarizability: 215.645  23.052 173.781 -25.065 -13.771 146.032

                      1                      2                      3
                      A                      A                      A
 Frequencies --     12.3838                35.1975                54.8464
 Red. masses --      3.1520                 3.0291                 3.9366
 Frc consts  --      0.0003                 0.0022                 0.0070
 IR Inten    --      0.1330                 0.6825                 1.8335

                      4                      5                      6
                      A                      A                      A
 Frequencies --     72.3292                81.1950                95.2493
 Red. masses --      3.6930                 2.8420                 1.7120
 Frc consts  --      0.0114                 0.0110                 0.0092
 IR Inten    --      0.0298                 0.0430                 0.1791

                      7                      8                      9
                      A                      A                      A
 Frequencies --    167.4177               201.9351               209.9471
 Red. masses --      3.1240                 1.3400                 1.2351
 Frc consts  --      0.0516                 0.0322                 0.0321
 IR Inten    --      0.6953                 3.0453                 0.3529

                     10                     11                     12
                      A                      A                      A
 Frequencies --    212.5468               242.3168               255.9838
 Red. masses --      1.4110                 3.0050                 1.2820
 Frc consts  --      0.0376                 0.1040                 0.0495
 IR Inten    --      0.6526                 0.7111                 0.0873

                     13                     14                     15
                      A                      A                      A
 Frequencies --    303.8200               308.1858               342.8059
 Red. masses --      2.5924                 1.1232                 3.0202
 Frc consts  --      0.1410                 0.0629                 0.2091
 IR Inten    --      1.1507                72.9143                 0.8712

                     16                     17                     18
                      A                      A                      A
 Frequencies --    390.1399               419.0115               428.9911
 Red. masses --      3.0445                 2.7849                 2.6062
 Frc consts  --      0.2730                 0.2881                 0.2826
 IR Inten    --      2.6859                 0.2961                 0.2606

                     19                     20                     21
                      A                      A                      A
 Frequencies --    459.9289               497.2034               553.4631
 Red. masses --      2.8145                 3.5430                 2.7675
 Frc consts  --      0.3508                 0.5161                 0.4995
 IR Inten    --      4.3074                 6.4704                 0.3184

                     22                     23                     24
                      A                      A                      A
 Frequencies --    598.4639               664.6672               740.3847
 Red. masses --      3.1775                 2.9141                 1.4540
 Frc consts  --      0.6705                 0.7585                 0.4696
 IR Inten    --     27.5892                 9.2089                 1.1079

                     25                     26                     27
                      A                      A                      A
 Frequencies --    774.6415               796.2275               825.2641
 Red. masses --      1.3356                 2.0607                 1.2996
 Frc consts  --      0.4722                 0.7697                 0.5215
 IR Inten    --      3.5095                 1.0169                17.4555

                     28                     29                     30
                      A                      A                      A
 Frequencies --    839.7269               915.6541               949.8139
 Red. masses --      1.8851                 2.0774                 1.4103
 Frc consts  --      0.7832                 1.0262                 0.7496
 IR Inten    --      5.6588                 1.5727                 3.2440

                     31                     32                     33
                      A                      A                      A
 Frequencies --    961.1574               979.4017               987.0756
 Red. masses --      1.4784                 1.2996                 2.3092
 Frc consts  --      0.8047                 0.7345                 1.3256
 IR Inten    --     34.7593                 6.2404                43.6612

                     34                     35                     36
                      A                      A                      A
 Frequencies --   1004.5828              1019.0689              1038.5118
 Red. masses --      2.3150                 2.2166                 2.2155
 Frc consts  --      1.3765                 1.3563                 1.4078
 IR Inten    --      5.1830                 3.6218                13.0175

                     37                     38                     39
                      A                      A                      A
 Frequencies --   1059.5110              1082.0239              1093.4839
 Red. masses --      2.8757                 1.4118                 1.6153
 Frc consts  --      1.9020                 0.9738                 1.1380
 IR Inten    --      1.3976                 6.6293                46.5467

                     40                     41                     42
                      A                      A                      A
 Frequencies --   1130.7324              1145.7069              1175.4060
 Red. masses --      1.7239                 2.1658                 1.8284
 Frc consts  --      1.2986                 1.6750                 1.4883
 IR Inten    --      0.9169                 1.8349                27.6896

                     43                     44                     45
                      A                      A                      A
 Frequencies --   1184.7732              1226.9767              1266.0810
 Red. masses --      1.8307                 1.5025                 1.2388
 Frc consts  --      1.5140                 1.3327                 1.1699
 IR Inten    --     20.2793                12.2331                16.7382

                     46                     47                     48
                      A                      A                      A
 Frequencies --   1298.5429              1317.7053              1321.1821
 Red. masses --      1.2126                 1.1904                 1.2760
 Frc consts  --      1.2047                 1.2179                 1.3123
 IR Inten    --      1.5150                 2.0880                50.3460

                     49                     50                     51
                      A                      A                      A
 Frequencies --   1331.0218              1368.0475              1377.9147
 Red. masses --      1.3423                 1.3677                 1.3970
 Frc consts  --      1.4011                 1.5082                 1.5628
 IR Inten    --     21.3328                31.6121                30.4211

                     52                     53                     54
                      A                      A                      A
 Frequencies --   1382.1982              1384.5906              1391.2297
 Red. masses --      1.3000                 1.5045                 1.4928
 Frc consts  --      1.4633                 1.6993                 1.7023
 IR Inten    --      3.8214                 4.8390                13.8525

                     55                     56                     57
                      A                      A                      A
 Frequencies --   1412.0745              1415.2869              1432.7778
 Red. masses --      1.2902                 1.2254                 2.1696
 Frc consts  --      1.5157                 1.4462                 2.6242
 IR Inten    --      3.8051                 4.4592               135.5200

                     58                     59                     60
                      A                      A                      A
 Frequencies --   1474.5616              1481.3946              1484.4531
 Red. masses --      1.0941                 1.0651                 1.0455
 Frc consts  --      1.4016                 1.3772                 1.3574
 IR Inten    --      0.1631                 2.2356                 7.1988

                     61                     62                     63
                      A                      A                      A
 Frequencies --   1485.4270              1495.7233              1497.8860
 Red. masses --      1.0822                 1.0699                 1.0736
 Frc consts  --      1.4069                 1.4103                 1.4192
 IR Inten    --      0.9620                 2.7116                 3.1103

                     64                     65                     66
                      A                      A                      A
 Frequencies --   1498.7813              1507.9121              1514.6662
 Red. masses --      1.0625                 1.0677                 1.0438
 Frc consts  --      1.4062                 1.4303                 1.4110
 IR Inten    --      1.6771                 6.7470                 5.4998

                     67                     68                     69
                      A                      A                      A
 Frequencies --   1691.5223              1716.9724              2981.9503
 Red. masses --      8.4067                 7.3362                 1.0809
 Frc consts  --     14.1719                12.7424                 5.6627
 IR Inten    --     89.9116                15.2000                10.7136

                     70                     71                     72
                      A                      A                      A
 Frequencies --   2995.9730              3007.9463              3016.0458
 Red. masses --      1.0609                 1.0598                 1.0599
 Frc consts  --      5.6105                 5.6497                 5.6805
 IR Inten    --     17.8893                 4.1282                57.5860

                     73                     74                     75
                      A                      A                      A
 Frequencies --   3025.4246              3029.8461              3032.7581
 Red. masses --      1.0850                 1.0502                 1.0395
 Frc consts  --      5.8511                 5.6802                 5.6330
 IR Inten    --      5.1563                24.5760                27.4656

                     76                     77                     78
                      A                      A                      A
 Frequencies --   3039.8507              3043.1743              3058.4881
 Red. masses --      1.0381                 1.0993                 1.1029
 Frc consts  --      5.6520                 5.9984                 6.0788
 IR Inten    --      9.5424                 5.0789                67.8502

                     79                     80                     81
                      A                      A                      A
 Frequencies --   3095.9308              3096.6236              3097.5308
 Red. masses --      1.0970                 1.0992                 1.1005
 Frc consts  --      6.1949                 6.2101                 6.2211
 IR Inten    --     22.2964                13.5370                45.8601

                     82                     83                     84
                      A                      A                      A
 Frequencies --   3104.4710              3112.8965              3151.6174
 Red. masses --      1.1012                 1.0990                 1.0997
 Frc consts  --      6.2529                 6.2746                 6.4356
 IR Inten    --     49.7275                34.0713                 9.5729

                     85                     86                     87
                      A                      A                      A
 Frequencies --   3198.4741              3452.5723              3828.8293
 Red. masses --      1.0874                 1.0724                 1.0651
 Frc consts  --      6.5543                 7.5317                 9.1999
 IR Inten    --      5.5811                 2.7557                26.1216

 - Thermochemistry -
 -------------------
 Temperature   298.150 Kelvin.  Pressure   1.00000 Atm.
 Atom     1 has atomic number  6 and mass  12.00000

 Molecular mass:   169.14666 amu.
 Principal axes and moments of inertia in atomic units:
                           1         2         3
     Eigenvalues --   767.111566211.587136711.74733
           X            0.99996  -0.00810   0.00306
           Y            0.00809   0.99997   0.00133
           Z           -0.00307  -0.00131   0.99999
 This molecule is an asymmetric top.
 Rotational symmetry number  1.
 Warning -- assumption of classical behavior for rotation
           may cause significant error
 Rotational temperatures (Kelvin)      0.11291     0.01394     0.01290
 Rotational constants (GHZ):           2.35265     0.29054     0.26889
 Zero-point vibrational energy     726471.3 (Joules/Mol)
                                  173.63080 (Kcal/Mol)
 Warning -- explicit consideration of  22 degrees of freedom as
           vibrations may cause significant error
 Vibrational temperatures:     17.82    50.64    78.91   104.07   116.82
          (Kelvin)            137.04   240.88   290.54   302.07   305.81
                              348.64   368.30   437.13   443.41   493.22
                              561.32   602.86   617.22   661.74   715.36
                              796.31   861.06   956.31  1065.25  1114.54
                             1145.59  1187.37  1208.18  1317.42  1366.57
                             1382.89  1409.14  1420.18  1445.37  1466.21
                             1494.19  1524.40  1556.79  1573.28  1626.87
                             1648.42  1691.15  1704.62  1765.35  1821.61
                             1868.31  1895.88  1900.89  1915.04  1968.32
                             1982.51  1988.67  1992.12  2001.67  2031.66
                             2036.28  2061.45  2121.57  2131.40  2135.80
                             2137.20  2152.01  2155.12  2156.41  2169.55
                             2179.27  2433.72  2470.34  4290.36  4310.54
                             4327.76  4339.42  4352.91  4359.27  4363.46
                             4373.67  4378.45  4400.48  4454.35  4455.35
                             4456.66  4466.64  4478.76  4534.47  4601.89
                             4967.48  5508.83

 Zero-point correction=                           0.276698 (Hartree/Particle)
 Thermal correction to Energy=                    0.291783
 Thermal correction to Enthalpy=                  0.292727
 Thermal correction to Gibbs Free Energy=         0.232534
 Sum of electronic and zero-point Energies=           -522.228935
 Sum of electronic and thermal Energies=              -522.213851
 Sum of electronic and thermal Enthalpies=            -522.212906
 Sum of electronic and thermal Free Energies=         -522.273100

                     E (Thermal)             CV                S
                      KCal/Mol        Cal/Mol-Kelvin    Cal/Mol-Kelvin
 Total                  183.096             54.454            126.687
 Electronic               0.000              0.000              0.000
 Translational            0.889              2.981             41.285
 Rotational               0.889              2.981             31.837
 Vibrational            181.319             48.492             53.566
 Vibration     1          0.593              1.987              7.586
 Vibration     2          0.594              1.982              5.513
 Vibration     3          0.596              1.976              4.635
 Vibration     4          0.598              1.967              4.089
 Vibration     5          0.600              1.962              3.862
 Vibration     6          0.603              1.953              3.549
 Vibration     7          0.624              1.883              2.464
 Vibration     8          0.639              1.837              2.115
 Vibration     9          0.642              1.826              2.044
 Vibration    10          0.644              1.822              2.022
 Vibration    11          0.659              1.775              1.786
 Vibration    12          0.666              1.753              1.689
 Vibration    13          0.695              1.666              1.396
 Vibration    14          0.698              1.658              1.372
 Vibration    15          0.722              1.590              1.199
 Vibration    16          0.758              1.491              1.000
 Vibration    17          0.782              1.429              0.895
 Vibration    18          0.790              1.407              0.862
 Vibration    19          0.818              1.339              0.766
 Vibration    20          0.853              1.256              0.665
 Vibration    21          0.909              1.132              0.537
 Vibration    22          0.956              1.035              0.452

 Optimization completed.
    -- Stationary point found.
 Normal termination of Gaussian 16 at Sun May 28 09:02:40 2023.
