 Gaussian 16, Revision A.03,
 Gaussian 16:  ES64L-G16RevA.03 25-Dec-2016

 -----------------------------
 # opt freq b3lyp/6-31g(2df,p)
 -----------------------------

 -------------------
 Title Card Required
 -------------------
 Symbolic Z-matrix:
 Charge =  0 Multiplicity = 1

 SCF Done:  E(RB3LYP) =  -587.528255604     A.U. after   12 cycles
 SCF Done:  E(RB3LYP) =  -587.532363992     A.U. after   10 cycles
 SCF Done:  E(RB3LYP) =  -587.533077030     A.U. after    9 cycles
 SCF Done:  E(RB3LYP) =  -587.533159981     A.U. after    8 cycles
 SCF Done:  E(RB3LYP) =  -587.533169052     A.U. after    8 cycles
 SCF Done:  E(RB3LYP) =  -587.533173174     A.U. after    7 cycles
 SCF Done:  E(RB3LYP) =  -587.533173630     A.U. after    7 cycles
 SCF Done:  E(RB3LYP) =  -587.533173718     A.U. after    6 cycles
 SCF Done:  E(RB3LYP) =  -587.533173750     A.U. after    6 cycles
 Optimization completed.
    -- Stationary point found.
 Normal termination of Gaussian 16 at Mon May 22 18:28:17 2023.

 ----------------------------------------------------------------------
 #N Geom=AllCheck Guess=TCheck SCRF=Check GenChk RB3LYP/6-31G(2df,p) Fr
 eq
 ----------------------------------------------------------------------

 Structure from the checkpoint file:  "CCCqCrCCCCOCCqCrCC.chk"
 -------------------
 Title Card Required
 -------------------
 Charge =  0 Multiplicity = 1

                         Standard orientation:
 ---------------------------------------------------------------------
 Center     Atomic      Atomic             Coordinates (Angstroms)
 Number     Number       Type             X           Y           Z
 ---------------------------------------------------------------------
      1          6           0       -6.873356    0.657093    0.298314
      2          6           0       -5.484671    0.888196   -0.306617
      3          6           0       -4.394157   -0.093614    0.165591
      4          6           0       -4.703945   -1.537518   -0.256956
      5          6           0       -3.014422    0.371051   -0.339103
      6          6           0       -1.813317   -0.392168    0.233172
      7          6           0       -0.470719    0.189319   -0.222769
      8          6           0        0.723682   -0.570474    0.338369
      9          8           0        1.909731    0.033482   -0.130162
     10          6           0        3.084752   -0.598973    0.330172
     11          6           0        4.307100    0.154575   -0.197045
     12          6           0        4.310912    1.602782    0.310231
     13          6           0        5.590239   -0.613255    0.167059
     14          6           0        6.867288   -0.052594   -0.466829
     15          1           0       -7.572802    1.435309   -0.023321
     16          1           0       -6.835589    0.678425    1.393571
     17          1           0       -7.298736   -0.305902    0.000226
     18          1           0       -5.160611    1.908287   -0.063416
     19          1           0       -5.550948    0.846859   -1.403001
     20          1           0       -4.373852   -0.059409    1.266127
     21          1           0       -4.729803   -1.624207   -1.350444
     22          1           0       -5.672336   -1.871911    0.125629
     23          1           0       -3.951890   -2.239474    0.114127
     24          1           0       -2.895691    1.435896   -0.097027
     25          1           0       -2.994023    0.308433   -1.436917
     26          1           0       -1.863676   -1.448578   -0.058529
     27          1           0       -1.864971   -0.376059    1.331109
     28          1           0       -0.390852    1.239874    0.082632
     29          1           0       -0.407561    0.178252   -1.317865
     30          1           0        0.685076   -1.629635    0.027430
     31          1           0        0.700257   -0.562440    1.442569
     32          1           0        3.108515   -1.648528   -0.011093
     33          1           0        3.099958   -0.619436    1.435371
     34          1           0        4.216759    0.172580   -1.292546
     35          1           0        4.466765    1.633193    1.396099
     36          1           0        3.353316    2.081354    0.093796
     37          1           0        5.102231    2.195160   -0.157325
     38          1           0        5.474037   -1.661042   -0.139874
     39          1           0        5.701978   -0.627928    1.260319
     40          1           0        6.784177   -0.020567   -1.559075
     41          1           0        7.732344   -0.675332   -0.218067
     42          1           0        7.083766    0.962451   -0.120739
 ---------------------------------------------------------------------

 SCF Done:  E(RB3LYP) =  -587.533173750     A.U. after    1 cycles

 The electronic state is 1-A.
 Alpha  occ. eigenvalues --  -19.13151 -10.22019 -10.21758 -10.18073 -10.17943
 Alpha  occ. eigenvalues --  -10.17673 -10.17670 -10.17392 -10.17385 -10.17286
 Alpha  occ. eigenvalues --  -10.17022 -10.16932 -10.16764 -10.16229  -1.02601
 Alpha  occ. eigenvalues --   -0.81465  -0.80493  -0.77815  -0.73549  -0.72022
 Alpha  occ. eigenvalues --   -0.69670  -0.66801  -0.64451  -0.61535  -0.59619
 Alpha  occ. eigenvalues --   -0.57673  -0.55325  -0.55042  -0.48679  -0.48075
 Alpha  occ. eigenvalues --   -0.46851  -0.45480  -0.45256  -0.43959  -0.43492
 Alpha  occ. eigenvalues --   -0.41868  -0.41159  -0.40051  -0.39785  -0.38081
 Alpha  occ. eigenvalues --   -0.37893  -0.37109  -0.36832  -0.36323  -0.35757
 Alpha  occ. eigenvalues --   -0.34939  -0.34055  -0.33684  -0.32563  -0.32134
 Alpha  occ. eigenvalues --   -0.31651  -0.31593  -0.31427  -0.30891  -0.30295
 Alpha  occ. eigenvalues --   -0.29550  -0.24776
 Alpha virt. eigenvalues --    0.08336   0.08728   0.10082   0.10909   0.11320
 Alpha virt. eigenvalues --    0.11962   0.12364   0.12896   0.13346   0.14158
 Alpha virt. eigenvalues --    0.14667   0.15068   0.15917   0.16150   0.16600

 Mulliken charges:
               1
     1  C   -0.391854
     2  C   -0.164643
     3  C    0.043101
     4  C   -0.389690
     5  C   -0.178659
     6  C   -0.197266
     7  C   -0.197288
     8  C   -0.052196
     9  O   -0.251734
    10  C   -0.054173
    11  C    0.024615
    12  C   -0.389442
    13  C   -0.169015
    14  C   -0.390152
    15  H    0.110783
    16  H    0.111631
    17  H    0.117302
    18  H    0.089745
    19  H    0.090480
    20  H    0.064667
    21  H    0.108971
    22  H    0.112983
    23  H    0.113160
    24  H    0.088475
    25  H    0.089757
    26  H    0.097513
    27  H    0.091901
    28  H    0.102570
    29  H    0.103266
    30  H    0.080474
    31  H    0.080994
    32  H    0.077901
    33  H    0.077479
    34  H    0.077662
    35  H    0.103921
    36  H    0.130298
    37  H    0.109792
    38  H    0.090713
    39  H    0.092052
    40  H    0.113719
    41  H    0.110787
    42  H    0.119399
 Sum of Mulliken charges =  -0.00000

 Dipole moment (field-independent basis, Debye):
    X=             -0.1825    Y=             -0.6639    Z=              0.4650  Tot=              0.8308
 Quadrupole moment (field-independent basis, Debye-Ang):
   XX=            -91.2849   YY=            -92.7344   ZZ=            -92.0311
   XY=             -1.9334   XZ=              0.9301   YZ=              0.3536

  Exact polarizability: 194.010  -2.075 134.853  -1.596  -0.133 125.022
 Approx polarizability: 204.929  -0.401 198.333   0.134  -0.170 198.183

                      1                      2                      3
                      A                      A                      A
 Frequencies --     21.0600                23.7778                37.1122
 Red. masses --      3.6601                 2.3561                 3.6191
 Frc consts  --      0.0010                 0.0008                 0.0029
 IR Inten    --      0.0217                 0.0832                 0.0293

                      4                      5                      6
                      A                      A                      A
 Frequencies --     54.3246                71.6829                82.4444
 Red. masses --      3.1837                 1.6162                 2.0981
 Frc consts  --      0.0055                 0.0049                 0.0084
 IR Inten    --      0.0557                 0.3714                 0.0029

                      7                      8                      9
                      A                      A                      A
 Frequencies --     89.0158               108.9724               122.5268
 Red. masses --      2.5032                 2.5175                 2.0968
 Frc consts  --      0.0117                 0.0176                 0.0185
 IR Inten    --      0.2768                 0.0501                 0.3569

                     10                     11                     12
                      A                      A                      A
 Frequencies --    143.2991               162.1742               177.3517
 Red. masses --      2.0275                 2.9827                 3.5114
 Frc consts  --      0.0245                 0.0462                 0.0651
 IR Inten    --      0.1034                 3.0569                 0.1067

                     13                     14                     15
                      A                      A                      A
 Frequencies --    198.0286               211.5168               213.4001
 Red. masses --      3.0440                 1.0503                 1.0793
 Frc consts  --      0.0703                 0.0277                 0.0290
 IR Inten    --      0.6925                 0.2245                 0.0156

                     16                     17                     18
                      A                      A                      A
 Frequencies --    256.1428               257.7087               274.5435
 Red. masses --      1.2947                 1.1996                 2.5959
 Frc consts  --      0.0500                 0.0469                 0.1153
 IR Inten    --      0.1037                 0.0741                 0.0730

                     19                     20                     21
                      A                      A                      A
 Frequencies --    302.6549               341.6302               352.2894
 Red. masses --      2.4627                 2.6469                 3.3736
 Frc consts  --      0.1329                 0.1820                 0.2467
 IR Inten    --      0.7491                 0.5193                 0.0662

                     22                     23                     24
                      A                      A                      A
 Frequencies --    408.8412               417.5678               442.3818
 Red. masses --      2.1623                 1.9533                 2.4639
 Frc consts  --      0.2129                 0.2007                 0.2841
 IR Inten    --      0.3558                 0.3820                 0.2023

                     25                     26                     27
                      A                      A                      A
 Frequencies --    481.9420               532.0949               537.8654
 Red. masses --      2.6568                 3.3766                 2.5617
 Frc consts  --      0.3636                 0.5633                 0.4366
 IR Inten    --      0.4879                 5.7472                 0.7417

                     28                     29                     30
                      A                      A                      A
 Frequencies --    740.4776               773.1407               776.5577
 Red. masses --      1.0914                 1.2943                 1.2763
 Frc consts  --      0.3526                 0.4558                 0.4535
 IR Inten    --      1.6575                 2.3405                 2.6798

                     31                     32                     33
                      A                      A                      A
 Frequencies --    791.5675               830.2905               833.3034
 Red. masses --      1.2967                 1.7030                 1.9633
 Frc consts  --      0.4787                 0.6917                 0.8032
 IR Inten    --      0.4853                 0.1495                 0.3655

                     34                     35                     36
                      A                      A                      A
 Frequencies --    908.5148               912.1635               924.5507
 Red. masses --      1.3221                 1.9803                 2.0935
 Frc consts  --      0.6429                 0.9708                 1.0544
 IR Inten    --      0.2731                 1.2707                 1.8901

                     37                     38                     39
                      A                      A                      A
 Frequencies --    931.6072               971.9007               978.6323
 Red. masses --      1.2484                 1.1995                 1.2177
 Frc consts  --      0.6383                 0.6675                 0.6871
 IR Inten    --      3.0313                 2.4814                 6.9733

                     40                     41                     42
                      A                      A                      A
 Frequencies --    999.2047              1004.4749              1024.2933
 Red. masses --      1.9619                 2.5737                 1.9136
 Frc consts  --      1.1541                 1.5300                 1.1829
 IR Inten    --      7.7134                 4.7417                 3.9158

                     43                     44                     45
                      A                      A                      A
 Frequencies --   1024.3221              1045.8612              1049.1505
 Red. masses --      2.1154                 1.7734                 2.1511
 Frc consts  --      1.3077                 1.1429                 1.3950
 IR Inten    --      1.6375                 1.3725                 1.5803

                     46                     47                     48
                      A                      A                      A
 Frequencies --   1060.2775              1066.9290              1088.1665
 Red. masses --      2.9566                 2.3376                 2.7291
 Frc consts  --      1.9583                 1.5678                 1.9040
 IR Inten    --      5.4207                 2.2657                 2.6124

                     49                     50                     51
                      A                      A                      A
 Frequencies --   1153.9307              1156.7542              1168.8330
 Red. masses --      2.3762                 5.0849                 2.3805
 Frc consts  --      1.8642                 4.0088                 1.9161
 IR Inten    --      8.4305               271.8377                24.1069

                     52                     53                     54
                      A                      A                      A
 Frequencies --   1176.5302              1178.3832              1190.4116
 Red. masses --      1.8861                 2.1533                 1.7836
 Frc consts  --      1.5382                 1.7617                 1.4892
 IR Inten    --      4.2049                 7.6170                 1.9851

                     55                     56                     57
                      A                      A                      A
 Frequencies --   1199.8472              1223.1879              1255.9890
 Red. masses --      2.0013                 1.4559                 1.2957
 Frc consts  --      1.6975                 1.2834                 1.2043
 IR Inten    --      2.9417                 2.9384                 3.3835

                     58                     59                     60
                      A                      A                      A
 Frequencies --   1266.3927              1283.2098              1295.5999
 Red. masses --      1.2115                 1.2571                 1.2502
 Frc consts  --      1.1448                 1.2196                 1.2364
 IR Inten    --      3.1706                 2.6985                 2.5695

                     61                     62                     63
                      A                      A                      A
 Frequencies --   1299.6539              1311.0510              1313.3414
 Red. masses --      1.2574                 1.1415                 1.1394
 Frc consts  --      1.2513                 1.1560                 1.1580
 IR Inten    --      0.3385                 0.1737                 2.7105

                     64                     65                     66
                      A                      A                      A
 Frequencies --   1318.4632              1331.3088              1357.3849
 Red. masses --      1.1529                 1.1237                 1.3371
 Frc consts  --      1.1808                 1.1735                 1.4515
 IR Inten    --      0.1922                 0.1734                 8.6929

                     67                     68                     69
                      A                      A                      A
 Frequencies --   1378.1242              1380.5818              1381.1812
 Red. masses --      1.3548                 1.3358                 1.3567
 Frc consts  --      1.5160                 1.5001                 1.5249
 IR Inten    --      1.1626                 2.1066                 1.3999

                     70                     71                     72
                      A                      A                      A
 Frequencies --   1383.5161              1396.4501              1401.2195
 Red. masses --      1.4534                 1.4300                 1.5046
 Frc consts  --      1.6391                 1.6430                 1.7405
 IR Inten    --      1.2557                19.6960                13.5925

                     73                     74                     75
                      A                      A                      A
 Frequencies --   1408.5337              1412.0528              1413.0430
 Red. masses --      1.3320                 1.3005                 1.2257
 Frc consts  --      1.5569                 1.5278                 1.4419
 IR Inten    --     17.8290                 2.4274                 1.2788

                     76                     77                     78
                      A                      A                      A
 Frequencies --   1414.7699              1451.9038              1476.2167
 Red. masses --      1.2387                 1.4696                 1.0761
 Frc consts  --      1.4608                 1.8253                 1.3816
 IR Inten    --      5.7582                 4.5225                 0.2213

                     79                     80                     81
                      A                      A                      A
 Frequencies --   1484.4310              1486.7752              1490.1592
 Red. masses --      1.0702                 1.0694                 1.0819
 Frc consts  --      1.3894                 1.3928                 1.4155
 IR Inten    --      0.2198                 0.0966                 0.3406

                     82                     83                     84
                      A                      A                      A
 Frequencies --   1493.5817              1496.9224              1498.8077
 Red. masses --      1.0542                 1.0427                 1.0596
 Frc consts  --      1.3856                 1.3766                 1.4025
 IR Inten    --      6.0612                 4.2478                 1.3338

                     85                     86                     87
                      A                      A                      A
 Frequencies --   1500.0006              1503.7222              1507.0496
 Red. masses --      1.0453                 1.0856                 1.0714
 Frc consts  --      1.3857                 1.4463                 1.4337
 IR Inten    --      4.7537                 1.9490                 0.5886

                     88                     89                     90
                      A                      A                      A
 Frequencies --   1508.5861              1511.9422              1513.9883
 Red. masses --      1.0736                 1.0530                 1.0563
 Frc consts  --      1.4396                 1.4183                 1.4266
 IR Inten    --      9.4796                 1.9770                11.4075

                     91                     92                     93
                      A                      A                      A
 Frequencies --   1515.1341              1534.8794              2930.4393
 Red. masses --      1.0683                 1.0939                 1.0548
 Frc consts  --      1.4450                 1.5183                 5.3369
 IR Inten    --      1.8329                 1.4024                19.7025

                     94                     95                     96
                      A                      A                      A
 Frequencies --   2944.2051              2962.8851              2964.5923
 Red. masses --      1.0559                 1.1018                 1.1030
 Frc consts  --      5.3926                 5.6987                 5.7117
 IR Inten    --     70.6247                88.8124                 4.5086

                     97                     98                     99
                      A                      A                      A
 Frequencies --   2980.0372              2997.8257              3004.0618
 Red. masses --      1.0806                 1.0594                 1.0701
 Frc consts  --      5.6540                 5.6095                 5.6898
 IR Inten    --      9.2407                 1.7259                12.8590

                    100                    101                    102
                      A                      A                      A
 Frequencies --   3007.1499              3010.5968              3010.8126
 Red. masses --      1.0614                 1.0718                 1.0616
 Frc consts  --      5.6551                 5.7236                 5.6700
 IR Inten    --      0.2363                22.0498                78.5889

                    103                    104                    105
                      A                      A                      A
 Frequencies --   3027.8113              3028.7162              3029.0831
 Red. masses --      1.0639                 1.0440                 1.0534
 Frc consts  --      5.7463                 5.6425                 5.6945
 IR Inten    --     15.7882                15.2534                25.8623

                    106                    107                    108
                      A                      A                      A
 Frequencies --   3030.1496              3031.6476              3033.0527
 Red. masses --      1.0766                 1.0403                 1.0385
 Frc consts  --      5.8241                 5.6332                 5.6289
 IR Inten    --     31.3823                23.2605                28.7132

                    109                    110                    111
                      A                      A                      A
 Frequencies --   3042.3352              3042.7028              3051.6869
 Red. masses --      1.0974                 1.0984                 1.1006
 Frc consts  --      5.9847                 5.9915                 6.0388
 IR Inten    --     41.7917                13.3113                31.7696

                    112                    113                    114
                      A                      A                      A
 Frequencies --   3076.0094              3095.4478              3096.4233
 Red. masses --      1.1048                 1.1004                 1.0963
 Frc consts  --      6.1590                 6.2124                 6.1929
 IR Inten    --     77.6631                34.6325                34.4864

                    115                    116                    117
                      A                      A                      A
 Frequencies --   3097.7446              3097.9014              3104.4411
 Red. masses --      1.0990                 1.0973                 1.1003
 Frc consts  --      6.2137                 6.2048                 6.2477
 IR Inten    --     20.1499                56.3330                53.0946

                    118                    119                    120
                      A                      A                      A
 Frequencies --   3108.2399              3112.4077              3128.4121
 Red. masses --      1.0997                 1.0999                 1.1002
 Frc consts  --      6.2595                 6.2776                 6.3441
 IR Inten    --     39.8149                33.3034                19.9339

 - Thermochemistry -
 -------------------
 Temperature   298.150 Kelvin.  Pressure   1.00000 Atm.
 Atom     1 has atomic number  6 and mass  12.00000

 Molecular mass:   200.21402 amu.
 Principal axes and moments of inertia in atomic units:
                           1         2         3
     Eigenvalues --   629.84517********************
           X            1.00000   0.00103   0.00005
           Y           -0.00103   1.00000  -0.00217
           Z           -0.00005   0.00217   1.00000
 This molecule is an asymmetric top.
 Rotational symmetry number  1.
 Warning -- assumption of classical behavior for rotation
           may cause significant error
 Rotational temperatures (Kelvin)      0.13752     0.00634     0.00618
 Rotational constants (GHZ):           2.86537     0.13204     0.12870
 Zero-point vibrational energy    1025967.7 (Joules/Mol)
                                  245.21216 (Kcal/Mol)
 Warning -- explicit consideration of  27 degrees of freedom as
           vibrations may cause significant error
 Vibrational temperatures:     30.30    34.21    53.40    78.16   103.14
          (Kelvin)            118.62   128.07   156.79   176.29   206.18
                              233.33   255.17   284.92   304.33   307.04
                              368.53   370.79   395.01   435.45   491.53
                              506.87   588.23   600.79   636.49   693.41
                              765.57   773.87  1065.38  1112.38  1117.29
                             1138.89  1194.60  1198.94  1307.15  1312.40
                             1330.22  1340.37  1398.35  1408.03  1437.63
                             1445.22  1473.73  1473.77  1504.76  1509.49
                             1525.50  1535.07  1565.63  1660.25  1664.31
                             1681.69  1692.76  1695.43  1712.74  1726.31
                             1759.89  1807.09  1822.06  1846.25  1864.08
                             1869.91  1886.31  1889.61  1896.97  1915.46
                             1952.97  1982.81  1986.35  1987.21  1990.57
                             2009.18  2016.04  2026.57  2031.63  2033.05
                             2035.54  2088.97  2123.95  2135.77  2139.14
                             2144.01  2148.93  2153.74  2156.45  2158.17
                             2163.52  2168.31  2170.52  2175.35  2178.29
                             2179.94  2208.35  4216.25  4236.05  4262.93
                             4265.39  4287.61  4313.20  4322.17  4326.62
                             4331.58  4331.89  4356.35  4357.65  4358.17
                             4359.71  4361.86  4363.89  4377.24  4377.77
                             4390.70  4425.69  4453.66  4455.06  4456.96
                             4457.19  4466.60  4472.06  4478.06  4501.09

 Zero-point correction=                           0.390770 (Hartree/Particle)
 Thermal correction to Energy=                    0.409847
 Thermal correction to Enthalpy=                  0.410791
 Thermal correction to Gibbs Free Energy=         0.341146
 Sum of electronic and zero-point Energies=           -587.142403
 Sum of electronic and thermal Energies=              -587.123327
 Sum of electronic and thermal Enthalpies=            -587.122383
 Sum of electronic and thermal Free Energies=         -587.192027

                     E (Thermal)             CV                S
                      KCal/Mol        Cal/Mol-Kelvin    Cal/Mol-Kelvin
 Total                  257.183             67.989            146.580
 Electronic               0.000              0.000              0.000
 Translational            0.889              2.981             41.787
 Rotational               0.889              2.981             33.156
 Vibrational            255.405             62.027             71.636
 Vibration     1          0.593              1.985              6.532
 Vibration     2          0.593              1.985              6.291
 Vibration     3          0.594              1.982              5.408
 Vibration     4          0.596              1.976              4.653
 Vibration     5          0.598              1.968              4.107
 Vibration     6          0.600              1.961              3.832
 Vibration     7          0.602              1.957              3.682
 Vibration     8          0.606              1.942              3.287
 Vibration     9          0.610              1.930              3.060
 Vibration    10          0.616              1.910              2.759
 Vibration    11          0.622              1.889              2.524
 Vibration    12          0.628              1.870              2.356
 Vibration    13          0.637              1.843              2.151
 Vibration    14          0.643              1.823              2.031
 Vibration    15          0.644              1.821              2.014
 Vibration    16          0.666              1.752              1.688
 Vibration    17          0.667              1.750              1.677
 Vibration    18          0.677              1.720              1.567
 Vibration    19          0.694              1.669              1.402
 Vibration    20          0.721              1.592              1.205
 Vibration    21          0.729              1.571              1.156
 Vibration    22          0.773              1.451              0.931
 Vibration    23          0.781              1.432              0.900
 Vibration    24          0.802              1.378              0.819
 Vibration    25          0.838              1.290              0.705
 Vibration    26          0.887              1.179              0.583
 Vibration    27          0.893              1.166              0.570

 Optimization completed.
    -- Stationary point found.
 Normal termination of Gaussian 16 at Mon May 22 20:53:47 2023.
