 Gaussian 16, Revision A.03,
 Gaussian 16:  ES64L-G16RevA.03 25-Dec-2016

 -----------------------------
 # opt freq b3lyp/6-31g(2df,p)
 -----------------------------

 -------------------
 Title Card Required
 -------------------
 Symbolic Z-matrix:
 Charge =  0 Multiplicity = 1

 SCF Done:  E(RB3LYP) =  -537.645008894     A.U. after   14 cycles
 SCF Done:  E(RB3LYP) =  -537.651153078     A.U. after   12 cycles
 SCF Done:  E(RB3LYP) =  -537.651740025     A.U. after   13 cycles
 SCF Done:  E(RB3LYP) =  -537.651318633     A.U. after   13 cycles
 SCF Done:  E(RB3LYP) =  -537.653422198     A.U. after   13 cycles
 SCF Done:  E(RB3LYP) =  -537.654271305     A.U. after   14 cycles
 SCF Done:  E(RB3LYP) =  -537.655182521     A.U. after   14 cycles
 SCF Done:  E(RB3LYP) =  -537.656337928     A.U. after   13 cycles
 SCF Done:  E(RB3LYP) =  -537.657818854     A.U. after   15 cycles
 SCF Done:  E(RB3LYP) =  -537.658077032     A.U. after   13 cycles
 SCF Done:  E(RB3LYP) =  -537.658775142     A.U. after   13 cycles
 SCF Done:  E(RB3LYP) =  -537.659186721     A.U. after   12 cycles
 SCF Done:  E(RB3LYP) =  -537.659760340     A.U. after   12 cycles
 SCF Done:  E(RB3LYP) =  -537.659988247     A.U. after   12 cycles
 SCF Done:  E(RB3LYP) =  -537.659995841     A.U. after   11 cycles
 SCF Done:  E(RB3LYP) =  -537.660027679     A.U. after   12 cycles
 SCF Done:  E(RB3LYP) =  -537.660040796     A.U. after   10 cycles
 SCF Done:  E(RB3LYP) =  -537.660043487     A.U. after   10 cycles
 SCF Done:  E(RB3LYP) =  -537.660043610     A.U. after    7 cycles
 Optimization completed.
    -- Stationary point found.
 Normal termination of Gaussian 16 at Sat May 27 20:52:55 2023.

 ----------------------------------------------------------------------
 #N Geom=AllCheck Guess=TCheck SCRF=Check GenChk RB3LYP/6-31G(2df,p) Fr
 eq
 ----------------------------------------------------------------------

 Structure from the checkpoint file:  "CCdC1CCqCdOrCC1OO.chk"
 -------------------
 Title Card Required
 -------------------
 Charge =  0 Multiplicity = 1

                         Standard orientation:
 ---------------------------------------------------------------------
 Center     Atomic      Atomic             Coordinates (Angstroms)
 Number     Number       Type             X           Y           Z
 ---------------------------------------------------------------------
      1          6           0       -2.185594    2.595071   -0.051180
      2          6           0       -1.909138    1.182348    0.371141
      3          6           0       -0.800736    0.473938    0.146927
      4          6           0        0.485053    0.911616   -0.515412
      5          6           0        1.568226    0.198018    0.333657
      6          6           0        2.868434    0.034155   -0.416596
      7          8           0        3.932522    0.481399   -0.078224
      8          6           0        0.920294   -1.167818    0.686095
      9          6           0       -0.607781   -0.959945    0.602385
     10          8           0       -1.050037   -1.892444   -0.401428
     11          8           0       -2.486874   -1.865532   -0.435320
     12          1           0       -3.062772    2.642148   -0.708481
     13          1           0       -1.346476    3.047631   -0.584085
     14          1           0       -2.418579    3.221974    0.818156
     15          1           0       -2.707019    0.696112    0.931406
     16          1           0        0.628675    1.992835   -0.553855
     17          1           0        0.527809    0.535849   -1.548536
     18          1           0        1.770128    0.776075    1.239417
     19          1           0        2.765027   -0.559956   -1.357780
     20          1           0        1.238747   -1.531450    1.664185
     21          1           0        1.197213   -1.930972   -0.051100
     22          1           0       -1.137257   -1.184362    1.533188
     23          1           0       -2.652937   -1.097568   -1.004853
 ---------------------------------------------------------------------

 SCF Done:  E(RB3LYP) =  -537.660043610     A.U. after    1 cycles

 The electronic state is 1-A.
 Alpha  occ. eigenvalues --  -19.19587 -19.18988 -19.14275 -10.27309 -10.24274
 Alpha  occ. eigenvalues --  -10.20627 -10.20481 -10.20204 -10.19867 -10.19736
 Alpha  occ. eigenvalues --  -10.19409  -1.11796  -1.04986  -0.91570  -0.84917
 Alpha  occ. eigenvalues --   -0.79306  -0.72477  -0.71973  -0.65177  -0.60576
 Alpha  occ. eigenvalues --   -0.57737  -0.54193  -0.53583  -0.50561  -0.47103
 Alpha  occ. eigenvalues --   -0.46015  -0.45085  -0.43721  -0.42569  -0.42057
 Alpha  occ. eigenvalues --   -0.41096  -0.40267  -0.40072  -0.38645  -0.36180
 Alpha  occ. eigenvalues --   -0.35830  -0.34586  -0.34233  -0.29019  -0.27085
 Alpha  occ. eigenvalues --   -0.26272  -0.25027
 Alpha virt. eigenvalues --   -0.02631  -0.00258   0.03990   0.07577   0.09936
 Alpha virt. eigenvalues --    0.10705   0.11390   0.11655   0.13423   0.14095
 Alpha virt. eigenvalues --    0.15459   0.15594   0.16580   0.16718   0.18343

 Mulliken charges:
               1
     1  C   -0.440957
     2  C   -0.194431
     3  C    0.324244
     4  C   -0.350928
     5  C   -0.060878
     6  C    0.151410
     7  O   -0.246548
     8  C   -0.289052
     9  C    0.080581
    10  O   -0.195255
    11  O   -0.324105
    12  H    0.132298
    13  H    0.124591
    14  H    0.133983
    15  H    0.097042
    16  H    0.122790
    17  H    0.118808
    18  H    0.098283
    19  H    0.073033
    20  H    0.126060
    21  H    0.127409
    22  H    0.088889
    23  H    0.302733
 Sum of Mulliken charges =  -0.00000

 Dipole moment (field-independent basis, Debye):
    X=             -2.3006    Y=              1.8390    Z=             -0.0921  Tot=              2.9467
 Quadrupole moment (field-independent basis, Debye-Ang):
   XX=            -77.8794   YY=            -68.5911   ZZ=            -62.1104
   XY=             -9.2268   XZ=              0.2399   YZ=             -1.8777

  Exact polarizability: 122.853  -8.232  95.860  -1.216   0.681  74.546
 Approx polarizability: 174.058  -8.363 136.343  -0.824   5.407 116.972

                      1                      2                      3
                      A                      A                      A
 Frequencies --     36.9159                64.5513                84.9660
 Red. masses --      4.3569                 5.7219                 3.0143
 Frc consts  --      0.0035                 0.0140                 0.0128
 IR Inten    --      2.6409                 4.9687                 1.0263

                      4                      5                      6
                      A                      A                      A
 Frequencies --    124.6699               145.5567               186.5952
 Red. masses --      2.7740                 1.2100                 3.7005
 Frc consts  --      0.0254                 0.0151                 0.0759
 IR Inten    --      3.6942                 0.9320                 5.5929

                      7                      8                      9
                      A                      A                      A
 Frequencies --    191.8038               255.7189               306.5620
 Red. masses --      2.7944                 2.3364                 1.4663
 Frc consts  --      0.0606                 0.0900                 0.0812
 IR Inten    --      0.6828                26.0278                78.3678

                     10                     11                     12
                      A                      A                      A
 Frequencies --    324.7704               332.2162               347.8977
 Red. masses --      2.2269                 2.9996                 2.1378
 Frc consts  --      0.1384                 0.1951                 0.1525
 IR Inten    --     20.1303                21.6525                10.0450

                     13                     14                     15
                      A                      A                      A
 Frequencies --    367.4683               432.7735               510.1380
 Red. masses --      5.6679                 4.7688                 4.0308
 Frc consts  --      0.4509                 0.5262                 0.6180
 IR Inten    --      1.8573                 1.2699                 1.7554

                     16                     17                     18
                      A                      A                      A
 Frequencies --    591.9017               657.7138               662.8028
 Red. masses --      2.4682                 2.7998                 3.8201
 Frc consts  --      0.5095                 0.7136                 0.9888
 IR Inten    --      7.7765                 7.1778                10.4551

                     19                     20                     21
                      A                      A                      A
 Frequencies --    791.7424               852.2057               878.0562
 Red. masses --      2.3539                 2.3819                 1.2537
 Frc consts  --      0.8694                 1.0192                 0.5695
 IR Inten    --      2.8280                 2.7711                 4.4200

                     22                     23                     24
                      A                      A                      A
 Frequencies --    897.9564               944.2370               948.0484
 Red. masses --      2.9355                 2.2749                 3.5039
 Frc consts  --      1.3946                 1.1950                 1.8555
 IR Inten    --     21.0357                 2.0912                11.6519

                     25                     26                     27
                      A                      A                      A
 Frequencies --    970.8491               987.3284              1012.8954
 Red. masses --      2.8987                 2.3692                 2.1659
 Frc consts  --      1.6097                 1.3607                 1.3093
 IR Inten    --     11.0532                 8.9362                14.3890

                     28                     29                     30
                      A                      A                      A
 Frequencies --   1026.0967              1065.3032              1081.5545
 Red. masses --      2.6145                 1.5434                 2.4947
 Frc consts  --      1.6219                 1.0320                 1.7194
 IR Inten    --     28.0552                 0.7217                 3.1604

                     31                     32                     33
                      A                      A                      A
 Frequencies --   1096.2105              1121.0552              1180.5841
 Red. masses --      2.6596                 2.3516                 1.6007
 Frc consts  --      1.8830                 1.7413                 1.3145
 IR Inten    --      1.1941                20.0671                 7.1447

                     34                     35                     36
                      A                      A                      A
 Frequencies --   1211.6130              1234.7383              1263.8252
 Red. masses --      2.3329                 1.4140                 1.3438
 Frc consts  --      2.0178                 1.2701                 1.2646
 IR Inten    --      2.1365                16.2041                 0.7327

                     37                     38                     39
                      A                      A                      A
 Frequencies --   1279.3946              1303.6747              1327.9987
 Red. masses --      1.3185                 1.3937                 1.2273
 Frc consts  --      1.2716                 1.3956                 1.2753
 IR Inten    --      3.4726                 5.9473                 0.5300

                     40                     41                     42
                      A                      A                      A
 Frequencies --   1332.7426              1354.5771              1387.7184
 Red. masses --      1.3026                 1.4457                 1.4030
 Frc consts  --      1.3632                 1.5630                 1.5918
 IR Inten    --      3.9325                 8.8913                 2.5247

                     43                     44                     45
                      A                      A                      A
 Frequencies --   1407.3621              1414.2467              1425.6046
 Red. masses --      1.1242                 1.2550                 1.1952
 Frc consts  --      1.3120                 1.4789                 1.4311
 IR Inten    --     43.8885                 6.8307                 3.9066

                     46                     47                     48
                      A                      A                      A
 Frequencies --   1471.3871              1480.6331              1483.4729
 Red. masses --      1.0886                 1.0600                 1.0751
 Frc consts  --      1.3886                 1.3691                 1.3940
 IR Inten    --      3.7379                 4.7169                 4.3755

                     49                     50                     51
                      A                      A                      A
 Frequencies --   1489.4323              1749.2827              1836.5062
 Red. masses --      1.0580                 7.8167                10.4817
 Frc consts  --      1.3829                14.0926                20.8290
 IR Inten    --      6.4146                 7.0789               238.4710

                     52                     53                     54
                      A                      A                      A
 Frequencies --   2834.3486              3001.8885              3024.4877
 Red. masses --      1.0811                 1.0699                 1.0391
 Frc consts  --      5.1169                 5.6807                 5.6005
 IR Inten    --     92.8371                14.8364                25.0824

                     55                     56                     57
                      A                      A                      A
 Frequencies --   3044.3622              3061.4729              3069.2492
 Red. masses --      1.0669                 1.0866                 1.0984
 Frc consts  --      5.8262                 6.0002                 6.0965
 IR Inten    --      9.3301                19.4175                14.6698

                     58                     59                     60
                      A                      A                      A
 Frequencies --   3077.1522              3109.3104              3119.0709
 Red. masses --      1.0847                 1.0930                 1.0956
 Frc consts  --      6.0512                 6.2260                 6.2799
 IR Inten    --      9.7188                14.6431                14.9629

                     61                     62                     63
                      A                      A                      A
 Frequencies --   3120.2394              3138.4194              3708.1706
 Red. masses --      1.0947                 1.0907                 1.0681
 Frc consts  --      6.2795                 6.3294                 8.6533
 IR Inten    --      9.4127                23.8492                13.1114

 - Thermochemistry -
 -------------------
 Temperature   298.150 Kelvin.  Pressure   1.00000 Atm.
 Atom     1 has atomic number  6 and mass  12.00000

 Molecular mass:   156.07864 amu.
 Principal axes and moments of inertia in atomic units:
                           1         2         3
     Eigenvalues --  1191.638002520.115083433.81757
           X            0.99848  -0.05517  -0.00168
           Y            0.05514   0.99838  -0.01422
           Z            0.00246   0.01411   0.99990
 This molecule is an asymmetric top.
 Rotational symmetry number  1.
 Warning -- assumption of classical behavior for rotation
           may cause significant error
 Rotational temperatures (Kelvin)      0.07268     0.03437     0.02522
 Rotational constants (GHZ):           1.51450     0.71613     0.52558
 Zero-point vibrational energy     497894.9 (Joules/Mol)
                                  118.99974 (Kcal/Mol)
 Warning -- explicit consideration of  16 degrees of freedom as
           vibrations may cause significant error
 Vibrational temperatures:     53.11    92.87   122.25   179.37   209.42
          (Kelvin)            268.47   275.96   367.92   441.07   467.27
                              477.99   500.55   528.70   622.66   733.97
                              851.61   946.30   953.63  1139.14  1226.13
                             1263.33  1291.96  1358.55  1364.03  1396.84
                             1420.55  1457.33  1476.32  1532.73  1556.12
                             1577.20  1612.95  1698.60  1743.24  1776.51
                             1818.36  1840.76  1875.70  1910.69  1917.52
                             1948.93  1996.62  2024.88  2034.79  2051.13
                             2117.00  2130.30  2134.39  2142.96  2516.83
                             2642.32  4078.00  4319.05  4351.56  4380.16
                             4404.78  4415.96  4427.34  4473.60  4487.65
                             4489.33  4515.49  5335.23

 Zero-point correction=                           0.189638 (Hartree/Particle)
 Thermal correction to Energy=                    0.201452
 Thermal correction to Enthalpy=                  0.202396
 Thermal correction to Gibbs Free Energy=         0.151095
 Sum of electronic and zero-point Energies=           -537.470405
 Sum of electronic and thermal Energies=              -537.458592
 Sum of electronic and thermal Enthalpies=            -537.457647
 Sum of electronic and thermal Free Energies=         -537.508948

                     E (Thermal)             CV                S
                      KCal/Mol        Cal/Mol-Kelvin    Cal/Mol-Kelvin
 Total                  126.413             42.740            107.972
 Electronic               0.000              0.000              0.000
 Translational            0.889              2.981             41.045
 Rotational               0.889              2.981             30.712
 Vibrational            124.636             36.779             36.215
 Vibration     1          0.594              1.982              5.418
 Vibration     2          0.597              1.971              4.313
 Vibration     3          0.601              1.960              3.773
 Vibration     4          0.610              1.928              3.027
 Vibration     5          0.617              1.907              2.730
 Vibration     6          0.632              1.858              2.261
 Vibration     7          0.634              1.851              2.210
 Vibration     8          0.666              1.753              1.691
 Vibration     9          0.697              1.661              1.381
 Vibration    10          0.709              1.626              1.286
 Vibration    11          0.714              1.611              1.249
 Vibration    12          0.726              1.580              1.176
 Vibration    13          0.740              1.539              1.090
 Vibration    14          0.794              1.399              0.850
 Vibration    15          0.865              1.228              0.633
 Vibration    16          0.949              1.049              0.464

 Optimization completed.
    -- Stationary point found.
 Normal termination of Gaussian 16 at Sat May 27 21:45:11 2023.
