 Gaussian 16, Revision A.03,
 Gaussian 16:  ES64L-G16RevA.03 25-Dec-2016

 -----------------------------
 # opt freq b3lyp/6-31g(2df,p)
 -----------------------------

 -------------------
 Title Card Required
 -------------------
 Symbolic Z-matrix:
 Charge =  0 Multiplicity = 1

 SCF Done:  E(RB3LYP) =  -865.052733289     A.U. after   14 cycles
 SCF Done:  E(RB3LYP) =  -865.058292959     A.U. after   13 cycles
 SCF Done:  E(RB3LYP) =  -865.064853521     A.U. after   12 cycles
 SCF Done:  E(RB3LYP) =  -865.066801759     A.U. after   12 cycles
 SCF Done:  E(RB3LYP) =  -865.067005890     A.U. after   11 cycles
 SCF Done:  E(RB3LYP) =  -865.067077251     A.U. after   11 cycles
 SCF Done:  E(RB3LYP) =  -865.067165525     A.U. after   11 cycles
 SCF Done:  E(RB3LYP) =  -865.057443175     A.U. after   12 cycles
 SCF Done:  E(RB3LYP) =  -865.068002834     A.U. after   12 cycles
 SCF Done:  E(RB3LYP) =  -864.825579851     A.U. after   16 cycles
 SCF Done:  E(RB3LYP) =  -865.083968673     A.U. after    9 cycles
 SCF Done:  E(RB3LYP) =  -865.083943898     A.U. after   12 cycles
 SCF Done:  E(RB3LYP) =  -865.084042098     A.U. after   11 cycles
 SCF Done:  E(RB3LYP) =  -865.084059541     A.U. after   11 cycles
 SCF Done:  E(RB3LYP) =  -865.084061933     A.U. after    9 cycles
 SCF Done:  E(RB3LYP) =  -865.084065019     A.U. after   10 cycles
 SCF Done:  E(RB3LYP) =  -865.084065647     A.U. after    9 cycles
 SCF Done:  E(RB3LYP) =  -865.084066201     A.U. after    9 cycles
 SCF Done:  E(RB3LYP) =  -865.084066276     A.U. after    7 cycles
 Optimization completed.
    -- Stationary point found.
 Normal termination of Gaussian 16 at Mon May 22 23:11:32 2023.

 ----------------------------------------------------------------------
 #N Geom=AllCheck Guess=TCheck SCRF=Check GenChk RB3LYP/6-31G(2df,p) Fr
 eq
 ----------------------------------------------------------------------

 Structure from the checkpoint file:  "CCdC1CdCCqCCrdCqCSrCdC1.chk"
 -------------------
 Title Card Required
 -------------------
 Charge =  0 Multiplicity = 1

                         Standard orientation:
 ---------------------------------------------------------------------
 Center     Atomic      Atomic             Coordinates (Angstroms)
 Number     Number       Type             X           Y           Z
 ---------------------------------------------------------------------
      1          6           0        4.644830   -0.839468    0.436821
      2          6           0        3.666713    0.292128    0.362319
      3          6           0        2.363095    0.255578   -0.012742
      4          6           0        1.604302    1.501906   -0.006516
      5          6           0        0.282213    1.752627   -0.125683
      6          6           0       -0.870558    0.885429   -0.292806
      7          6           0       -2.250824    1.529539   -0.142408
      8          6           0       -2.322247    2.962029    0.397858
      9          6           0       -0.797499   -0.447516   -0.585935
     10          6           0       -2.048972   -1.267046   -0.791860
     11         16           0       -2.702010   -2.042863    0.765440
     12          6           0        0.421343   -1.227717   -0.743388
     13          6           0        1.721102   -0.960988   -0.500324
     14          1           0        5.156764   -0.842120    1.407479
     15          1           0        5.432660   -0.741880   -0.323536
     16          1           0        4.183890   -1.821544    0.311239
     17          1           0        4.065949    1.262100    0.653064
     18          1           0        2.227860    2.383554    0.135081
     19          1           0        0.032792    2.805642   -0.060832
     20          1           0       -2.845996    0.891322    0.520576
     21          1           0       -2.764515    1.504579   -1.114250
     22          1           0       -1.819212    3.058559    1.364930
     23          1           0       -3.370298    3.242365    0.540231
     24          1           0       -1.883030    3.693431   -0.287437
     25          1           0       -1.871398   -2.067936   -1.511554
     26          1           0       -2.890652   -0.679905   -1.157553
     27          1           0       -1.541851   -2.611065    1.143645
     28          1           0        0.235386   -2.234126   -1.115682
     29          1           0        2.402829   -1.776190   -0.724462
 ---------------------------------------------------------------------

 SCF Done:  E(RB3LYP) =  -865.084066276     A.U. after    1 cycles

 The electronic state is 1-A.
 Alpha  occ. eigenvalues --  -88.86783 -10.21957 -10.20087 -10.19742 -10.19210
 Alpha  occ. eigenvalues --  -10.19097 -10.19000 -10.18978 -10.18970 -10.18462
 Alpha  occ. eigenvalues --  -10.17952 -10.17878 -10.17452  -7.93379  -5.89824
 Alpha  occ. eigenvalues --   -5.89502  -5.88886  -0.85361  -0.81662  -0.79089
 Alpha  occ. eigenvalues --   -0.75972  -0.75276  -0.72373  -0.68015  -0.66202
 Alpha  occ. eigenvalues --   -0.62172  -0.60209  -0.58244  -0.51989  -0.50990
 Alpha  occ. eigenvalues --   -0.48908  -0.45334  -0.45097  -0.44428  -0.42428
 Alpha  occ. eigenvalues --   -0.41159  -0.40805  -0.40470  -0.39383  -0.38539
 Alpha  occ. eigenvalues --   -0.37823  -0.36375  -0.35921  -0.35333  -0.34555
 Alpha  occ. eigenvalues --   -0.33757  -0.33405  -0.31421  -0.27747  -0.27563
 Alpha  occ. eigenvalues --   -0.23678  -0.17722
 Alpha virt. eigenvalues --   -0.05805  -0.01792   0.02920   0.06923   0.08923
 Alpha virt. eigenvalues --    0.09491   0.10022   0.11496   0.12065   0.12445
 Alpha virt. eigenvalues --    0.12816   0.14606   0.15777   0.16282   0.17185

 Mulliken charges:
               1
     1  C   -0.451308
     2  C   -0.127940
     3  C    0.213412
     4  C   -0.127895
     5  C   -0.143138
     6  C    0.156336
     7  C   -0.283670
     8  C   -0.407364
     9  C    0.159499
    10  C   -0.302494
    11  S   -0.266519
    12  C   -0.119660
    13  C   -0.164145
    14  H    0.125492
    15  H    0.125861
    16  H    0.120957
    17  H    0.074038
    18  H    0.091137
    19  H    0.088940
    20  H    0.143943
    21  H    0.116276
    22  H    0.128622
    23  H    0.113870
    24  H    0.124560
    25  H    0.135372
    26  H    0.136920
    27  H    0.162187
    28  H    0.083023
    29  H    0.093686
 Sum of Mulliken charges =  -0.00000

 Dipole moment (field-independent basis, Debye):
    X=              0.7456    Y=              0.7022    Z=             -0.9018  Tot=              1.3647
 Quadrupole moment (field-independent basis, Debye-Ang):
   XX=            -85.7795   YY=            -83.0622   ZZ=            -88.1742
   XY=             -5.6504   XZ=              4.2483   YZ=              1.7686

  Exact polarizability: 242.395  -0.246 159.735  11.469   3.738  94.086
 Approx polarizability: 385.720   5.437 248.471  32.018   7.933 158.184

                      1                      2                      3
                      A                      A                      A
 Frequencies --     20.1976                44.3382                65.7305
 Red. masses --      4.1347                 2.9621                 3.7367
 Frc consts  --      0.0010                 0.0034                 0.0095
 IR Inten    --      0.0627                 0.2354                 0.9717

                      4                      5                      6
                      A                      A                      A
 Frequencies --     77.7491                94.9078               154.6156
 Red. masses --      1.1196                 2.7765                 3.1050
 Frc consts  --      0.0040                 0.0147                 0.0437
 IR Inten    --      0.5905                 0.1406                 0.2747

                      7                      8                      9
                      A                      A                      A
 Frequencies --    173.7682               206.6737               208.0213
 Red. masses --      2.8685                 1.1276                 2.6624
 Frc consts  --      0.0510                 0.0284                 0.0679
 IR Inten    --      0.8809                13.8567                 0.4310

                     10                     11                     12
                      A                      A                      A
 Frequencies --    245.7730               286.9490               307.6314
 Red. masses --      2.7724                 2.3280                 1.5695
 Frc consts  --      0.0987                 0.1129                 0.0875
 IR Inten    --      1.3119                 2.3447                 0.3630

                     13                     14                     15
                      A                      A                      A
 Frequencies --    333.6044               372.9645               376.5199
 Red. masses --      3.1336                 3.2535                 2.9743
 Frc consts  --      0.2055                 0.2666                 0.2484
 IR Inten    --      4.8873                 4.2813                 4.0443

                     16                     17                     18
                      A                      A                      A
 Frequencies --    409.7127               442.1524               456.4988
 Red. masses --      3.5450                 3.1612                 3.5156
 Frc consts  --      0.3506                 0.3641                 0.4316
 IR Inten    --      0.1330                 2.1242                 1.8359

                     19                     20                     21
                      A                      A                      A
 Frequencies --    519.6363               609.5120               624.2204
 Red. masses --      3.3230                 2.8624                 3.2300
 Frc consts  --      0.5287                 0.6265                 0.7415
 IR Inten    --      5.0978                16.5574                 4.0256

                     22                     23                     24
                      A                      A                      A
 Frequencies --    660.1747               702.2976               711.1281
 Red. masses --      4.1777                 2.6955                 3.5345
 Frc consts  --      1.0728                 0.7833                 1.0531
 IR Inten    --      3.9026                 2.0555                 5.2911

                     25                     26                     27
                      A                      A                      A
 Frequencies --    745.2107               770.3267               799.4619
 Red. masses --      4.1377                 1.2414                 1.3514
 Frc consts  --      1.3538                 0.4340                 0.5089
 IR Inten    --      2.4905                 2.7990                 0.5145

                     28                     29                     30
                      A                      A                      A
 Frequencies --    818.9069               840.9965               863.5350
 Red. masses --      1.3151                 1.9728                 1.4782
 Frc consts  --      0.5196                 0.8221                 0.6494
 IR Inten    --      0.2854                17.9622                13.3543

                     31                     32                     33
                      A                      A                      A
 Frequencies --    899.5304               953.1536               983.1770
 Red. masses --      3.6384                 2.0438                 1.7556
 Frc consts  --      1.7346                 1.0940                 0.9998
 IR Inten    --      4.4874                13.3891                 1.3769

                     34                     35                     36
                      A                      A                      A
 Frequencies --   1000.4204              1005.2759              1020.8121
 Red. masses --      1.5620                 1.4831                 1.2683
 Frc consts  --      0.9211                 0.8831                 0.7787
 IR Inten    --     15.9002                10.5524                 0.0652

                     37                     38                     39
                      A                      A                      A
 Frequencies --   1026.2902              1048.0931              1090.1833
 Red. masses --      1.9057                 1.4866                 2.3704
 Frc consts  --      1.1826                 0.9622                 1.6598
 IR Inten    --      3.5343                 3.1938                 0.4855

                     40                     41                     42
                      A                      A                      A
 Frequencies --   1094.7959              1102.9870              1146.9077
 Red. masses --      1.6778                 2.4628                 2.9934
 Frc consts  --      1.1848                 1.7653                 2.3199
 IR Inten    --      1.3904                 1.5008                 4.6187

                     43                     44                     45
                      A                      A                      A
 Frequencies --   1189.0677              1244.8141              1268.4675
 Red. masses --      1.4227                 2.3250                 1.2506
 Frc consts  --      1.1851                 2.1226                 1.1856
 IR Inten    --      2.0175                 1.0958                19.7862

                     46                     47                     48
                      A                      A                      A
 Frequencies --   1279.8112              1312.2913              1316.1994
 Red. masses --      1.8214                 1.1523                 1.1922
 Frc consts  --      1.7578                 1.1692                 1.2169
 IR Inten    --      1.4701                 1.2767                 7.9123

                     49                     50                     51
                      A                      A                      A
 Frequencies --   1332.9557              1368.9974              1390.3104
 Red. masses --      1.1853                 1.3862                 1.3848
 Frc consts  --      1.2408                 1.5307                 1.5771
 IR Inten    --      5.6576                19.7975                 8.0126

                     52                     53                     54
                      A                      A                      A
 Frequencies --   1413.6818              1417.1508              1469.0153
 Red. masses --      1.2354                 1.2883                 1.1737
 Frc consts  --      1.4547                 1.5244                 1.4923
 IR Inten    --      1.9747                 9.5271                 5.5178

                     55                     56                     57
                      A                      A                      A
 Frequencies --   1476.7266              1480.0842              1484.1012
 Red. masses --      1.1216                 1.6374                 1.1936
 Frc consts  --      1.4411                 2.1133                 1.5490
 IR Inten    --      2.8339                 0.7500                 2.8093

                     58                     59                     60
                      A                      A                      A
 Frequencies --   1491.0352              1500.3531              1501.8548
 Red. masses --      1.1423                 1.1172                 1.0566
 Frc consts  --      1.4962                 1.4817                 1.4042
 IR Inten    --      6.6861                 5.4265                 2.4078

                     61                     62                     63
                      A                      A                      A
 Frequencies --   1512.7166              1592.4957              1637.5172
 Red. masses --      1.0644                 7.3399                 5.4370
 Frc consts  --      1.4351                10.9672                 8.5898
 IR Inten    --      4.7881                55.8631                 3.7563

                     64                     65                     66
                      A                      A                      A
 Frequencies --   1654.3761              1707.4351              2676.7962
 Red. masses --      7.1810                 6.1994                 1.0385
 Frc consts  --     11.5799                10.6485                 4.3843
 IR Inten    --     16.3601                 5.6207                 2.5104

                     67                     68                     69
                      A                      A                      A
 Frequencies --   3000.3742              3006.5846              3038.0136
 Red. masses --      1.0677                 1.0452                 1.0357
 Frc consts  --      5.6630                 5.5665                 5.6321
 IR Inten    --     19.8571                63.4003                23.4998

                     70                     71                     72
                      A                      A                      A
 Frequencies --   3049.3897              3050.1484              3081.8562
 Red. masses --      1.0937                 1.0919                 1.0629
 Frc consts  --      5.9921                 5.9850                 5.9480
 IR Inten    --     22.4878                 4.0155                14.6654

                     73                     74                     75
                      A                      A                      A
 Frequencies --   3104.2773              3110.1613              3112.9509
 Red. masses --      1.1008                 1.1023                 1.0929
 Frc consts  --      6.2500                 6.2825                 6.2398
 IR Inten    --     32.4503                25.5301                 9.1416

                     76                     77                     78
                      A                      A                      A
 Frequencies --   3124.5348              3128.5013              3140.2564
 Red. masses --      1.0845                 1.0862                 1.1022
 Frc consts  --      6.2379                 6.2639                 6.4037
 IR Inten    --     12.5170                 1.5117                 5.8935

                     79                     80                     81
                      A                      A                      A
 Frequencies --   3141.0354              3169.2536              3190.5723
 Red. masses --      1.0875                 1.0882                 1.0864
 Frc consts  --      6.3215                 6.4399                 6.5157
 IR Inten    --     27.0987                19.9442                17.1709

 - Thermochemistry -
 -------------------
 Temperature   298.150 Kelvin.  Pressure   1.00000 Atm.
 Atom     1 has atomic number  6 and mass  12.00000

 Molecular mass:   192.09727 amu.
 Principal axes and moments of inertia in atomic units:
                           1         2         3
     Eigenvalues --  1916.185874266.174035752.38217
           X            0.99891  -0.04589   0.00869
           Y            0.04573   0.99879   0.01784
           Z           -0.00950  -0.01743   0.99980
 This molecule is an asymmetric top.
 Rotational symmetry number  1.
 Warning -- assumption of classical behavior for rotation
           may cause significant error
 Rotational temperatures (Kelvin)      0.04520     0.02030     0.01506
 Rotational constants (GHZ):           0.94184     0.42304     0.31374
 Zero-point vibrational energy     642879.2 (Joules/Mol)
                                  153.65181 (Kcal/Mol)
 Warning -- explicit consideration of  20 degrees of freedom as
           vibrations may cause significant error
 Vibrational temperatures:     29.06    63.79    94.57   111.86   136.55
          (Kelvin)            222.46   250.01   297.36   299.30   353.61
                              412.86   442.61   479.98   536.61   541.73
                              589.49   636.16   656.80   747.64   876.95
                              898.11   949.84  1010.45  1023.15  1072.19
                             1108.33  1150.25  1178.22  1210.01  1242.43
                             1294.22  1371.38  1414.57  1439.38  1446.37
                             1468.72  1476.60  1507.97  1568.53  1575.17
                             1586.95  1650.14  1710.80  1791.01  1825.04
                             1841.36  1888.09  1893.72  1917.83  1969.68
                             2000.35  2033.97  2038.96  2113.59  2124.68
                             2129.51  2135.29  2145.27  2158.67  2160.83
                             2176.46  2291.25  2356.02  2380.28  2456.62
                             3851.31  4316.87  4325.80  4371.02  4387.39
                             4388.48  4434.10  4466.36  4474.83  4478.84
                             4495.51  4501.22  4518.13  4519.25  4559.85
                             4590.52

 Zero-point correction=                           0.244860 (Hartree/Particle)
 Thermal correction to Energy=                    0.259218
 Thermal correction to Enthalpy=                  0.260162
 Thermal correction to Gibbs Free Energy=         0.202166
 Sum of electronic and zero-point Energies=           -864.839207
 Sum of electronic and thermal Energies=              -864.824848
 Sum of electronic and thermal Enthalpies=            -864.823904
 Sum of electronic and thermal Free Energies=         -864.881901

                     E (Thermal)             CV                S
                      KCal/Mol        Cal/Mol-Kelvin    Cal/Mol-Kelvin
 Total                  162.662             53.356            122.064
 Electronic               0.000              0.000              0.000
 Translational            0.889              2.981             41.664
 Rotational               0.889              2.981             32.220
 Vibrational            160.884             47.395             48.181
 Vibration     1          0.593              1.986              6.615
 Vibration     2          0.595              1.980              5.055
 Vibration     3          0.597              1.971              4.277
 Vibration     4          0.599              1.964              3.947
 Vibration     5          0.603              1.953              3.556
 Vibration     6          0.620              1.898              2.615
 Vibration     7          0.627              1.875              2.394
 Vibration     8          0.641              1.830              2.073
 Vibration     9          0.641              1.828              2.061
 Vibration    10          0.660              1.770              1.761
 Vibration    11          0.684              1.698              1.492
 Vibration    12          0.697              1.659              1.375
 Vibration    13          0.715              1.608              1.243
 Vibration    14          0.744              1.528              1.068
 Vibration    15          0.747              1.520              1.053
 Vibration    16          0.774              1.449              0.928
 Vibration    17          0.802              1.378              0.820
 Vibration    18          0.815              1.347              0.776
 Vibration    19          0.875              1.207              0.611
 Vibration    20          0.968              1.012              0.434

                           ! Non-Optimized Parameters !
 Normal termination of Gaussian 16 at Tue May 23 00:54:39 2023.
