 Gaussian 16, Revision A.03,
 Gaussian 16:  ES64L-G16RevA.03 25-Dec-2016

 -----------------------------
 # opt freq b3lyp/6-31g(2df,p)
 -----------------------------

 -------------------
 Title Card Required
 -------------------
 Symbolic Z-matrix:
 Charge =  0 Multiplicity = 1

 SCF Done:  E(RB3LYP) =  -963.390888969     A.U. after   13 cycles
 SCF Done:  E(RB3LYP) =  -963.401591914     A.U. after   12 cycles
 SCF Done:  E(RB3LYP) =  -963.406393742     A.U. after   11 cycles
 SCF Done:  E(RB3LYP) =  -963.409286169     A.U. after   12 cycles
 SCF Done:  E(RB3LYP) =  -963.410090822     A.U. after   10 cycles
 SCF Done:  E(RB3LYP) =  -963.410970277     A.U. after   11 cycles
 SCF Done:  E(RB3LYP) =  -963.411329874     A.U. after   10 cycles
 SCF Done:  E(RB3LYP) =  -963.411718099     A.U. after   10 cycles
 SCF Done:  E(RB3LYP) =  -963.411837513     A.U. after   10 cycles
 SCF Done:  E(RB3LYP) =  -963.411857425     A.U. after    9 cycles
 SCF Done:  E(RB3LYP) =  -963.414571878     A.U. after   11 cycles
 SCF Done:  E(RB3LYP) =  -963.414859230     A.U. after   13 cycles
 SCF Done:  E(RB3LYP) =  -963.415073907     A.U. after   11 cycles
 SCF Done:  E(RB3LYP) =  -963.415120748     A.U. after   10 cycles
 SCF Done:  E(RB3LYP) =  -963.415211979     A.U. after    9 cycles
 SCF Done:  E(RB3LYP) =  -963.415215156     A.U. after    8 cycles
 SCF Done:  E(RB3LYP) =  -963.415216050     A.U. after    7 cycles
 SCF Done:  E(RB3LYP) =  -963.415216867     A.U. after    7 cycles
 SCF Done:  E(RB3LYP) =  -963.415217020     A.U. after    6 cycles
 Optimization completed.
    -- Stationary point found.
 Normal termination of Gaussian 16 at Mon May 22 22:35:48 2023.

 ----------------------------------------------------------------------
 #N Geom=AllCheck Guess=TCheck SCRF=Check GenChk RB3LYP/6-31G(2df,p) Fr
 eq
 ----------------------------------------------------------------------

 Structure from the checkpoint file:  "CCdCNCC1CCCqCqCrCrCCS1.chk"
 -------------------
 Title Card Required
 -------------------
 Charge =  0 Multiplicity = 1

                         Standard orientation:
 ---------------------------------------------------------------------
 Center     Atomic      Atomic             Coordinates (Angstroms)
 Number     Number       Type             X           Y           Z
 ---------------------------------------------------------------------
      1          6           0       -6.055175   -1.512811   -0.616520
      2          6           0       -4.700441   -0.907847   -0.839769
      3          6           0       -3.894578   -0.492289    0.142518
      4          7           0       -2.587925   -0.030171    0.010905
      5          6           0       -2.120929    1.011167    0.915152
      6          6           0       -0.589134    1.141885    0.923160
      7          6           0        0.095371   -0.155386    1.372278
      8          6           0        1.634240   -0.173763    1.405423
      9          6           0        2.321728   -0.271600    0.018415
     10          6           0        3.536974   -1.241116    0.050702
     11          6           0        3.089361   -2.696361    0.267874
     12          6           0        4.403606   -1.178401   -1.218154
     13          6           0        2.708506    1.114260   -0.538054
     14          6           0        1.668202    2.229442   -0.364332
     15         16           0       -0.068380    1.782726   -0.731093
     16          1           0       -6.841459   -0.958973   -1.146151
     17          1           0       -6.315444   -1.522271    0.447085
     18          1           0       -6.108753   -2.549048   -0.976930
     19          1           0       -4.358864   -0.830819   -1.871465
     20          1           0       -4.225414   -0.550590    1.179094
     21          1           0       -2.308078    0.124188   -0.949822
     22          1           0       -2.444810    0.736075    1.926851
     23          1           0       -2.562656    1.996155    0.693760
     24          1           0       -0.342870    1.945479    1.627961
     25          1           0       -0.265265   -0.975876    0.743793
     26          1           0       -0.275148   -0.363014    2.386756
     27          1           0        1.925572   -1.035793    2.012667
     28          1           0        2.013657    0.699646    1.953174
     29          1           0        1.592703   -0.702870   -0.680447
     30          1           0        4.169791   -0.945771    0.901876
     31          1           0        2.501533   -3.048036   -0.588562
     32          1           0        2.475819   -2.825841    1.163463
     33          1           0        3.956243   -3.357895    0.366620
     34          1           0        3.806208   -1.392201   -2.113000
     35          1           0        5.200227   -1.928129   -1.170568
     36          1           0        4.878995   -0.204488   -1.356979
     37          1           0        2.936704    1.017871   -1.603638
     38          1           0        3.634233    1.459651   -0.053863
     39          1           0        1.902318    3.061475   -1.034057
     40          1           0        1.677937    2.635571    0.651371
 ---------------------------------------------------------------------

 SCF Done:  E(RB3LYP) =  -963.415217020     A.U. after    1 cycles

 The electronic state is 1-A.
 Alpha  occ. eigenvalues --  -88.85953 -14.32712 -10.21651 -10.21577 -10.21028
 Alpha  occ. eigenvalues --  -10.19653 -10.18531 -10.18195 -10.18117 -10.18041
 Alpha  occ. eigenvalues --  -10.17823 -10.16971 -10.16930 -10.16857 -10.15599
 Alpha  occ. eigenvalues --   -7.92301  -5.88770  -5.88442  -5.87839  -0.91843
 Alpha  occ. eigenvalues --   -0.83601  -0.80370  -0.77488  -0.75914  -0.74430
 Alpha  occ. eigenvalues --   -0.69641  -0.67881  -0.65420  -0.65070  -0.61998
 Alpha  occ. eigenvalues --   -0.57949  -0.56813  -0.55590  -0.53940  -0.48516
 Alpha  occ. eigenvalues --   -0.48046  -0.46189  -0.45301  -0.44888  -0.44567
 Alpha  occ. eigenvalues --   -0.43027  -0.41229  -0.40642  -0.39803  -0.39609
 Alpha  occ. eigenvalues --   -0.39310  -0.38843  -0.38022  -0.37347  -0.36523
 Alpha  occ. eigenvalues --   -0.36134  -0.34980  -0.34458  -0.34085  -0.33301
 Alpha  occ. eigenvalues --   -0.32804  -0.31202  -0.30931  -0.30297  -0.29280
 Alpha  occ. eigenvalues --   -0.28777  -0.21796  -0.18489
 Alpha virt. eigenvalues --    0.03674   0.05247   0.06602   0.08571   0.08674
 Alpha virt. eigenvalues --    0.10319   0.10964   0.11611   0.11993   0.12749
 Alpha virt. eigenvalues --    0.13200   0.13537   0.14191   0.14758   0.15612

 Mulliken charges:
               1
     1  C   -0.412518
     2  C   -0.132245
     3  C    0.069209
     4  N   -0.300836
     5  C   -0.168456
     6  C   -0.008403
     7  C   -0.187755
     8  C   -0.241140
     9  C    0.079283
    10  C    0.020260
    11  C   -0.394053
    12  C   -0.398947
    13  C   -0.217675
    14  C   -0.226932
    15  S   -0.191751
    16  H    0.114955
    17  H    0.109807
    18  H    0.115471
    19  H    0.062266
    20  H    0.084327
    21  H    0.246763
    22  H    0.107535
    23  H    0.107346
    24  H    0.098048
    25  H    0.122009
    26  H    0.089274
    27  H    0.095931
    28  H    0.084218
    29  H    0.084171
    30  H    0.066471
    31  H    0.113952
    32  H    0.113224
    33  H    0.109910
    34  H    0.113404
    35  H    0.107320
    36  H    0.112473
    37  H    0.107996
    38  H    0.094685
    39  H    0.126493
    40  H    0.123913
 Sum of Mulliken charges =  -0.00000

 Dipole moment (field-independent basis, Debye):
    X=              1.6326    Y=              0.4648    Z=              1.3806  Tot=              2.1880
 Quadrupole moment (field-independent basis, Debye-Ang):
   XX=           -103.5663   YY=           -104.8761   ZZ=           -100.2230
   XY=              1.2684   XZ=             -1.7771   YZ=              2.0559

  Exact polarizability: 213.306  12.958 152.549   2.533   0.248 147.912
 Approx polarizability: 261.988  21.722 218.697  11.102   3.501 243.785

                      1                      2                      3
                      A                      A                      A
 Frequencies --     26.0662                34.6474                63.0984
 Red. masses --      4.0974                 3.2277                 2.4471
 Frc consts  --      0.0016                 0.0023                 0.0057
 IR Inten    --      0.0303                 0.1761                 0.1883

                      4                      5                      6
                      A                      A                      A
 Frequencies --     80.2216                82.4291               112.3721
 Red. masses --      3.0739                 1.8826                 4.4017
 Frc consts  --      0.0117                 0.0075                 0.0327
 IR Inten    --      1.5408                 0.1942                 1.4649

                      7                      8                      9
                      A                      A                      A
 Frequencies --    150.3698               154.6642               190.2484
 Red. masses --      2.7821                 3.0503                 3.3108
 Frc consts  --      0.0371                 0.0430                 0.0706
 IR Inten    --      3.1167                 0.5541                 0.4281

                     10                     11                     12
                      A                      A                      A
 Frequencies --    208.3521               215.3996               228.8266
 Red. masses --      1.3816                 1.0589                 1.9170
 Frc consts  --      0.0353                 0.0289                 0.0591
 IR Inten    --      0.9600                 0.0156                 1.2276

                     13                     14                     15
                      A                      A                      A
 Frequencies --    243.1252               261.9354               276.5473
 Red. masses --      2.9627                 2.1945                 1.7893
 Frc consts  --      0.1032                 0.0887                 0.0806
 IR Inten    --      0.4281                 0.7482                 4.3712

                     16                     17                     18
                      A                      A                      A
 Frequencies --    281.2759               306.6744               330.1108
 Red. masses --      1.8024                 2.6555                 2.7975
 Frc consts  --      0.0840                 0.1471                 0.1796
 IR Inten    --      2.9393                 2.0761                 0.8608

                     19                     20                     21
                      A                      A                      A
 Frequencies --    363.6662               390.9121               406.7967
 Red. masses --      2.2181                 2.3694                 2.6830
 Frc consts  --      0.1728                 0.2133                 0.2616
 IR Inten    --      0.1537                 0.1623                 4.6535

                     22                     23                     24
                      A                      A                      A
 Frequencies --    418.4793               447.7861               473.8169
 Red. masses --      2.6176                 2.3978                 2.6434
 Frc consts  --      0.2701                 0.2833                 0.3497
 IR Inten    --      2.9845                 0.7931                 1.4324

                     25                     26                     27
                      A                      A                      A
 Frequencies --    514.7409               521.3670               601.0921
 Red. masses --      2.5402                 2.8938                 3.5610
 Frc consts  --      0.3966                 0.4634                 0.7581
 IR Inten    --      0.6925                 1.2244                 5.4055

                     28                     29                     30
                      A                      A                      A
 Frequencies --    654.6506               681.9215               693.9609
 Red. masses --      1.5325                 4.8193                 2.0174
 Frc consts  --      0.3870                 1.3204                 0.5724
 IR Inten    --     66.8588                 3.8421                30.8017

                     31                     32                     33
                      A                      A                      A
 Frequencies --    761.3385               803.5272               810.1543
 Red. masses --      1.8816                 2.0900                 1.8357
 Frc consts  --      0.6426                 0.7950                 0.7099
 IR Inten    --      0.1379                 0.2998                19.3791

                     34                     35                     36
                      A                      A                      A
 Frequencies --    849.4966               873.4135               915.7235
 Red. masses --      1.7312                 2.4543                 1.8892
 Frc consts  --      0.7361                 1.1031                 0.9334
 IR Inten    --      4.5665                 2.0947                 0.5636

                     37                     38                     39
                      A                      A                      A
 Frequencies --    928.7025               943.6897               949.9583
 Red. masses --      1.1751                 1.7565                 1.7100
 Frc consts  --      0.5971                 0.9216                 0.9092
 IR Inten    --      0.4753                 3.9830                 5.8336

                     40                     41                     42
                      A                      A                      A
 Frequencies --    961.3653               965.2229               980.2772
 Red. masses --      1.6697                 1.4619                 2.1218
 Frc consts  --      0.9092                 0.8025                 1.2013
 IR Inten    --      1.1976                 2.0315                 2.2350

                     43                     44                     45
                      A                      A                      A
 Frequencies --    989.2179              1011.7372              1034.3556
 Red. masses --      1.1766                 1.8762                 2.1319
 Frc consts  --      0.6784                 1.1315                 1.3439
 IR Inten    --     29.2479                12.1532                 6.6788

                     46                     47                     48
                      A                      A                      A
 Frequencies --   1047.8229              1062.3242              1076.3925
 Red. masses --      2.3363                 1.4276                 2.6952
 Frc consts  --      1.5113                 0.9493                 1.8398
 IR Inten    --      5.6135                 1.1724                 3.6060

                     49                     50                     51
                      A                      A                      A
 Frequencies --   1098.9298              1110.8071              1130.5084
 Red. masses --      2.5147                 2.0419                 1.7051
 Frc consts  --      1.7893                 1.4845                 1.2839
 IR Inten    --      1.0534                23.8069                 0.8321

                     52                     53                     54
                      A                      A                      A
 Frequencies --   1151.3485              1159.3589              1168.9867
 Red. masses --      2.2074                 2.5315                 1.2146
 Frc consts  --      1.7241                 2.0047                 0.9779
 IR Inten    --     11.6043                 9.3925                10.0236

                     55                     56                     57
                      A                      A                      A
 Frequencies --   1190.1775              1209.9605              1227.6625
 Red. masses --      1.7369                 1.4582                 1.6941
 Frc consts  --      1.4496                 1.2578                 1.5044
 IR Inten    --      5.4552                41.5957                88.1885

                     58                     59                     60
                      A                      A                      A
 Frequencies --   1240.8524              1252.4178              1275.1424
 Red. masses --      1.4028                 1.2254                 1.6192
 Frc consts  --      1.2726                 1.1325                 1.5512
 IR Inten    --      2.5318                 3.7998                68.4572

                     61                     62                     63
                      A                      A                      A
 Frequencies --   1287.8402              1296.5531              1315.3830
 Red. masses --      1.2819                 1.2814                 1.3452
 Frc consts  --      1.2526                 1.2691                 1.3714
 IR Inten    --     22.0634                 8.0110                 4.5447

                     64                     65                     66
                      A                      A                      A
 Frequencies --   1317.6592              1334.1182              1345.4700
 Red. masses --      1.2449                 1.2710                 1.2992
 Frc consts  --      1.2735                 1.3328                 1.3857
 IR Inten    --     20.0780                 5.6209                 6.7971

                     67                     68                     69
                      A                      A                      A
 Frequencies --   1351.4181              1356.1615              1368.5101
 Red. masses --      1.2113                 1.2306                 1.3290
 Frc consts  --      1.3034                 1.3335                 1.4665
 IR Inten    --      7.2164                10.3046                 5.3471

                     70                     71                     72
                      A                      A                      A
 Frequencies --   1379.4004              1382.8852              1394.2112
 Red. masses --      1.4540                 1.3847                 1.3638
 Frc consts  --      1.6300                 1.5602                 1.5619
 IR Inten    --      0.8963                 1.1174                21.3357

                     73                     74                     75
                      A                      A                      A
 Frequencies --   1402.4063              1407.0127              1416.8220
 Red. masses --      1.2557                 1.3680                 1.2420
 Frc consts  --      1.4550                 1.5956                 1.4689
 IR Inten    --      3.7593                10.6277                11.8582

                     76                     77                     78
                      A                      A                      A
 Frequencies --   1422.8602              1461.4680              1478.2013
 Red. masses --      1.2188                 1.0818                 1.0453
 Frc consts  --      1.4538                 1.3614                 1.3457
 IR Inten    --      5.3053                 2.2480                 3.3927

                     79                     80                     81
                      A                      A                      A
 Frequencies --   1481.2752              1482.0729              1486.6245
 Red. masses --      1.0829                 1.0834                 1.2283
 Frc consts  --      1.3999                 1.4021                 1.5995
 IR Inten    --      1.7362                 4.3899                17.7297

                     82                     83                     84
                      A                      A                      A
 Frequencies --   1487.4883              1489.8966              1500.3565
 Red. masses --      1.0666                 1.0518                 1.0793
 Frc consts  --      1.3904                 1.3756                 1.4314
 IR Inten    --      3.2452                 0.2035                28.8273

                     85                     86                     87
                      A                      A                      A
 Frequencies --   1503.4352              1509.4492              1511.5301
 Red. masses --      1.0591                 1.1556                 1.0683
 Frc consts  --      1.4105                 1.5513                 1.4381
 IR Inten    --      0.7774                50.4645                 4.8473

                     88                     89                     90
                      A                      A                      A
 Frequencies --   1516.8539              1747.1402              2967.0940
 Red. masses --      1.0479                 5.2443                 1.0692
 Frc consts  --      1.4205                 9.4318                 5.5461
 IR Inten    --     13.1460               153.5164                57.2643

                     91                     92                     93
                      A                      A                      A
 Frequencies --   2982.6608              2997.6389              3000.6916
 Red. masses --      1.0812                 1.0692                 1.0698
 Frc consts  --      5.6671                 5.6608                 5.6755
 IR Inten    --     13.6941                28.9268                24.7535

                     94                     95                     96
                      A                      A                      A
 Frequencies --   3004.9045              3012.8033              3021.4240
 Red. masses --      1.0379                 1.0750                 1.0769
 Frc consts  --      5.5215                 5.7491                 5.7924
 IR Inten    --     75.5749                 7.3511                30.4129

                     97                     98                     99
                      A                      A                      A
 Frequencies --   3025.6437              3026.0312              3031.1967
 Red. masses --      1.0383                 1.0832                 1.0392
 Frc consts  --      5.6002                 5.8439                 5.6259
 IR Inten    --     19.1997                32.4815                26.8233

                    100                    101                    102
                      A                      A                      A
 Frequencies --   3043.2588              3044.8169              3052.1708
 Red. masses --      1.0905                 1.0991                 1.0608
 Frc consts  --      5.9503                 6.0034                 5.8226
 IR Inten    --     27.0013                32.3856                22.0771

                    103                    104                    105
                      A                      A                      A
 Frequencies --   3071.5707              3073.4615              3083.6769
 Red. masses --      1.0912                 1.0934                 1.0925
 Frc consts  --      6.0654                 6.0853                 6.1208
 IR Inten    --     25.6654                17.0444                29.0181

                    106                    107                    108
                      A                      A                      A
 Frequencies --   3087.2523              3089.2297              3094.4418
 Red. masses --      1.0999                 1.0971                 1.0992
 Frc consts  --      6.1767                 6.1689                 6.2014
 IR Inten    --      3.6347                19.0821                72.4485

                    109                    110                    111
                      A                      A                      A
 Frequencies --   3101.8122              3108.9213              3114.5717
 Red. masses --      1.1037                 1.0985                 1.0987
 Frc consts  --      6.2567                 6.2558                 6.2796
 IR Inten    --     21.0056                37.0369                28.3825

                    112                    113                    114
                      A                      A                      A
 Frequencies --   3128.0079              3136.4308              3561.1144
 Red. masses --      1.0900                 1.0865                 1.0741
 Frc consts  --      6.2835                 6.2970                 8.0256
 IR Inten    --     15.2831                34.4379                 6.4972

 - Thermochemistry -
 -------------------
 Temperature   298.150 Kelvin.  Pressure   1.00000 Atm.
 Atom     1 has atomic number  6 and mass  12.00000

 Molecular mass:   227.17077 amu.
 Principal axes and moments of inertia in atomic units:
                           1         2         3
     Eigenvalues --  2179.780338036.620179038.34754
           X            1.00000  -0.00080  -0.00242
           Y            0.00086   0.99974   0.02277
           Z            0.00240  -0.02278   0.99974
 This molecule is an asymmetric top.
 Rotational symmetry number  1.
 Warning -- assumption of classical behavior for rotation
           may cause significant error
 Rotational temperatures (Kelvin)      0.03974     0.01078     0.00958
 Rotational constants (GHZ):           0.82795     0.22456     0.19968
 Zero-point vibrational energy     950383.8 (Joules/Mol)
                                  227.14717 (Kcal/Mol)
 Warning -- explicit consideration of  27 degrees of freedom as
           vibrations may cause significant error
 Vibrational temperatures:     37.50    49.85    90.78   115.42   118.60
          (Kelvin)            161.68   216.35   222.53   273.73   299.77
                              309.91   329.23   349.80   376.87   397.89
                              404.69   441.24   474.96   523.23   562.44
                              585.29   602.10   644.26   681.72   740.60
                              750.13   864.84   941.90   981.13   998.45
                             1095.40  1156.10  1165.63  1222.24  1256.65
                             1317.52  1336.20  1357.76  1366.78  1383.19
                             1388.74  1410.40  1423.26  1455.66  1488.21
                             1507.58  1528.45  1548.69  1581.11  1598.20
                             1626.55  1656.53  1668.06  1681.91  1712.40
                             1740.86  1766.33  1785.31  1801.95  1834.65
                             1852.91  1865.45  1892.54  1895.82  1919.50
                             1935.83  1944.39  1951.21  1968.98  1984.65
                             1989.66  2005.96  2017.75  2024.38  2038.49
                             2047.18  2102.73  2126.80  2131.22  2132.37
                             2138.92  2140.16  2143.63  2158.68  2163.11
                             2171.76  2174.75  2182.41  2513.75  4268.99
                             4291.38  4312.93  4317.33  4323.39  4334.75
                             4347.16  4353.23  4353.78  4361.22  4378.57
                             4380.81  4391.39  4419.31  4422.03  4436.72
                             4441.87  4444.71  4452.21  4462.82  4473.04
                             4481.17  4500.51  4512.62  5123.65

 Zero-point correction=                           0.361982 (Hartree/Particle)
 Thermal correction to Energy=                    0.379758
 Thermal correction to Enthalpy=                  0.380702
 Thermal correction to Gibbs Free Energy=         0.315802
 Sum of electronic and zero-point Energies=           -963.053235
 Sum of electronic and thermal Energies=              -963.035459
 Sum of electronic and thermal Enthalpies=            -963.034515
 Sum of electronic and thermal Free Energies=         -963.099415

                     E (Thermal)             CV                S
                      KCal/Mol        Cal/Mol-Kelvin    Cal/Mol-Kelvin
 Total                  238.302             67.469            136.594
 Electronic               0.000              0.000              0.000
 Translational            0.889              2.981             42.164
 Rotational               0.889              2.981             33.426
 Vibrational            236.524             61.507             61.004
 Vibration     1          0.593              1.985              6.108
 Vibration     2          0.594              1.983              5.544
 Vibration     3          0.597              1.972              4.358
 Vibration     4          0.600              1.963              3.885
 Vibration     5          0.600              1.961              3.832
 Vibration     6          0.607              1.939              3.228
 Vibration     7          0.618              1.902              2.668
 Vibration     8          0.620              1.897              2.614
 Vibration     9          0.634              1.853              2.225
 Vibration    10          0.642              1.828              2.058
 Vibration    11          0.645              1.818              1.997
 Vibration    12          0.652              1.797              1.888
 Vibration    13          0.659              1.774              1.780
 Vibration    14          0.669              1.742              1.649
 Vibration    15          0.678              1.717              1.555
 Vibration    16          0.681              1.708              1.526
 Vibration    17          0.697              1.661              1.380
 Vibration    18          0.713              1.615              1.260
 Vibration    19          0.737              1.547              1.106
 Vibration    20          0.759              1.490              0.997
 Vibration    21          0.772              1.455              0.938
 Vibration    22          0.781              1.430              0.897
 Vibration    23          0.807              1.366              0.802
 Vibration    24          0.831              1.308              0.727
 Vibration    25          0.870              1.217              0.622
 Vibration    26          0.876              1.203              0.607
 Vibration    27          0.959              1.029              0.448

 Optimization completed.
    -- Stationary point found.
 Normal termination of Gaussian 16 at Tue May 23 02:16:59 2023.
