 Gaussian 16, Revision A.03,
 Gaussian 16:  ES64L-G16RevA.03 25-Dec-2016

 -----------------------------
 # opt freq b3lyp/6-31g(2df,p)
 -----------------------------

 -------------------
 Title Card Required
 -------------------
 Symbolic Z-matrix:
 Charge =  0 Multiplicity = 1

 SCF Done:  E(RB3LYP) =  -468.338196577     A.U. after   13 cycles
 SCF Done:  E(RB3LYP) =  -468.344643709     A.U. after   11 cycles
 SCF Done:  E(RB3LYP) =  -468.345433655     A.U. after   10 cycles
 SCF Done:  E(RB3LYP) =  -468.345616781     A.U. after   10 cycles
 SCF Done:  E(RB3LYP) =  -468.345769372     A.U. after   10 cycles
 SCF Done:  E(RB3LYP) =  -468.345893991     A.U. after   10 cycles
 SCF Done:  E(RB3LYP) =  -468.346196321     A.U. after   11 cycles
 SCF Done:  E(RB3LYP) =  -468.346348979     A.U. after   11 cycles
 SCF Done:  E(RB3LYP) =  -468.346610993     A.U. after   11 cycles
 SCF Done:  E(RB3LYP) =  -468.311571998     A.U. after   12 cycles
 SCF Done:  E(RB3LYP) =  -468.351056415     A.U. after   11 cycles
 SCF Done:  E(RB3LYP) =  -468.349823651     A.U. after   11 cycles
 SCF Done:  E(RB3LYP) =  -468.351056459     A.U. after   10 cycles
 SCF Done:  E(RB3LYP) =  -468.351218149     A.U. after   11 cycles
 SCF Done:  E(RB3LYP) =  -468.351331093     A.U. after   10 cycles
 SCF Done:  E(RB3LYP) =  -468.351335226     A.U. after    8 cycles
 SCF Done:  E(RB3LYP) =  -468.351337296     A.U. after    8 cycles
 SCF Done:  E(RB3LYP) =  -468.351337468     A.U. after    7 cycles
 SCF Done:  E(RB3LYP) =  -468.351337534     A.U. after    6 cycles
 Optimization completed.
    -- Stationary point found.
 Normal termination of Gaussian 16 at Tue May 23 22:11:47 2023.

 ----------------------------------------------------------------------
 #N Geom=AllCheck Guess=TCheck SCRF=Check GenChk RB3LYP/6-31G(2df,p) Fr
 eq
 ----------------------------------------------------------------------

 Structure from the checkpoint file:  "CCdCCqCrqCOrCCCC.chk"
 -------------------
 Title Card Required
 -------------------
 Charge =  0 Multiplicity = 1

                         Standard orientation:
 ---------------------------------------------------------------------
 Center     Atomic      Atomic             Coordinates (Angstroms)
 Number     Number       Type             X           Y           Z
 ---------------------------------------------------------------------
      1          6           0        3.914310   -1.665039   -0.205332
      2          6           0        2.813533   -0.650130   -0.312873
      3          6           0        1.657340   -0.724590    0.343189
      4          6           0        0.477048    0.229623    0.298328
      5          6           0        0.341509    0.892003    1.688696
      6          6           0        0.630369    1.312972   -0.791005
      7          8           0        1.730016    2.195982   -0.616282
      8          6           0       -0.781198   -0.630678   -0.026415
      9          6           0       -2.158622    0.044705    0.047376
     10          6           0       -3.298148   -0.924346   -0.294382
     11          6           0       -4.683063   -0.276161   -0.218571
     12          1           0        4.146289   -2.104569   -1.183848
     13          1           0        3.650161   -2.478737    0.477137
     14          1           0        4.843927   -1.206269    0.154856
     15          1           0        3.010232    0.199557   -0.960362
     16          1           0        1.504458   -1.572716    1.014897
     17          1           0        1.268228    1.405309    1.964227
     18          1           0        0.151199    0.140275    2.461963
     19          1           0       -0.479374    1.616665    1.719752
     20          1           0       -0.304523    1.886591   -0.865145
     21          1           0        0.794655    0.829665   -1.759674
     22          1           0        1.585278    2.696295    0.192116
     23          1           0       -0.784538   -1.486680    0.661648
     24          1           0       -0.646884   -1.059704   -1.028697
     25          1           0       -2.209198    0.900769   -0.636934
     26          1           0       -2.328305    0.447836    1.053651
     27          1           0       -3.257416   -1.784340    0.387315
     28          1           0       -3.137566   -1.330531   -1.301791
     29          1           0       -4.886209    0.108437    0.787240
     30          1           0       -5.473593   -0.991348   -0.466709
     31          1           0       -4.765416    0.565482   -0.915449
 ---------------------------------------------------------------------

 SCF Done:  E(RB3LYP) =  -468.351337534     A.U. after    1 cycles

 The electronic state is 1-A.
 Alpha  occ. eigenvalues --  -19.13179 -10.21878 -10.19307 -10.17856 -10.17751
 Alpha  occ. eigenvalues --  -10.17707 -10.17606 -10.17209 -10.17193 -10.16909
 Alpha  occ. eigenvalues --  -10.16662  -1.01215  -0.82487  -0.78555  -0.75906
 Alpha  occ. eigenvalues --   -0.70904  -0.68249  -0.66828  -0.63419  -0.58480
 Alpha  occ. eigenvalues --   -0.55727  -0.53007  -0.50143  -0.47077  -0.45022
 Alpha  occ. eigenvalues --   -0.44516  -0.43282  -0.41660  -0.40472  -0.40125
 Alpha  occ. eigenvalues --   -0.39661  -0.39020  -0.38357  -0.36998  -0.35604
 Alpha  occ. eigenvalues --   -0.34941  -0.34135  -0.33778  -0.32487  -0.31964
 Alpha  occ. eigenvalues --   -0.31914  -0.30175  -0.25806  -0.23247
 Alpha virt. eigenvalues --    0.03505   0.07339   0.08913   0.10673   0.11363
 Alpha virt. eigenvalues --    0.12264   0.12461   0.13538   0.14036   0.15478
 Alpha virt. eigenvalues --    0.16450   0.16669   0.17328   0.17997   0.18222

 Mulliken charges:
               1
     1  C   -0.429421
     2  C   -0.066886
     3  C   -0.056546
     4  C    0.199421
     5  C   -0.435192
     6  C   -0.112262
     7  O   -0.422975
     8  C   -0.201192
     9  C   -0.190484
    10  C   -0.159696
    11  C   -0.382092
    12  H    0.121432
    13  H    0.113307
    14  H    0.122360
    15  H    0.107342
    16  H    0.066244
    17  H    0.113866
    18  H    0.115572
    19  H    0.110727
    20  H    0.086818
    21  H    0.109664
    22  H    0.283775
    23  H    0.090573
    24  H    0.096158
    25  H    0.096923
    26  H    0.095399
    27  H    0.094309
    28  H    0.095510
    29  H    0.112638
    30  H    0.111325
    31  H    0.113381
 Sum of Mulliken charges =  -0.00000

 Dipole moment (field-independent basis, Debye):
    X=             -1.0560    Y=             -0.1028    Z=              0.9236  Tot=              1.4067
 Quadrupole moment (field-independent basis, Debye-Ang):
   XX=            -73.1821   YY=            -70.3995   ZZ=            -70.8571
   XY=             -1.7761   XZ=              1.4802   YZ=              2.5540

  Exact polarizability: 146.624  -5.413 103.836  -6.473   0.545  97.874
 Approx polarizability: 177.676  -1.906 150.014 -14.749  -1.789 152.059

                      1                      2                      3
                      A                      A                      A
 Frequencies --     40.1483                57.9520                69.5036
 Red. masses --      1.7407                 2.2083                 3.1581
 Frc consts  --      0.0017                 0.0044                 0.0090
 IR Inten    --      0.0443                 0.0218                 0.1130

                      4                      5                      6
                      A                      A                      A
 Frequencies --    111.3956               124.4502               141.9793
 Red. masses --      1.8016                 2.4710                 2.2598
 Frc consts  --      0.0132                 0.0225                 0.0268
 IR Inten    --      0.2551                 1.8723                 1.4602

                      7                      8                      9
                      A                      A                      A
 Frequencies --    170.3599               174.2200               212.2012
 Red. masses --      2.5253                 2.7119                 1.3081
 Frc consts  --      0.0432                 0.0485                 0.0347
 IR Inten    --      0.2803                 2.7971                 0.4176

                     10                     11                     12
                      A                      A                      A
 Frequencies --    236.8216               239.0117               255.4052
 Red. masses --      1.7189                 1.1160                 1.5506
 Frc consts  --      0.0568                 0.0376                 0.0596
 IR Inten    --     20.5549                10.2808                 5.4980

                     13                     14                     15
                      A                      A                      A
 Frequencies --    292.6784               298.1799               310.3886
 Red. masses --      2.5599                 1.7762                 1.8296
 Frc consts  --      0.1292                 0.0930                 0.1039
 IR Inten    --     29.4474                10.0298                29.1564

                     16                     17                     18
                      A                      A                      A
 Frequencies --    334.6206               353.2179               423.6072
 Red. masses --      2.2094                 2.6911                 2.9775
 Frc consts  --      0.1458                 0.1978                 0.3148
 IR Inten    --      8.6912                 0.4072                 0.0956

                     19                     20                     21
                      A                      A                      A
 Frequencies --    443.7012               516.9529               629.1899
 Red. masses --      2.4690                 2.7245                 3.1787
 Frc consts  --      0.2864                 0.4290                 0.7414
 IR Inten    --      4.1123                 1.1067                 1.2366

                     22                     23                     24
                      A                      A                      A
 Frequencies --    732.0723               775.4773               786.0615
 Red. masses --      1.0906                 2.3899                 1.3310
 Frc consts  --      0.3444                 0.8468                 0.4845
 IR Inten    --      3.5510                 3.2676                 0.3913

                     25                     26                     27
                      A                      A                      A
 Frequencies --    818.0977               879.4107               902.1808
 Red. masses --      1.6402                 2.1409                 1.8778
 Frc consts  --      0.6468                 0.9755                 0.9005
 IR Inten    --      0.7379                 2.8194                 1.5742

                     28                     29                     30
                      A                      A                      A
 Frequencies --    914.1391               949.7384               965.1327
 Red. masses --      1.3874                 1.5179                 1.6627
 Frc consts  --      0.6831                 0.8067                 0.9125
 IR Inten    --      1.7649                 5.3991                11.5601

                     31                     32                     33
                      A                      A                      A
 Frequencies --    994.5408              1025.4663              1027.4606
 Red. masses --      1.7317                 1.2858                 2.2987
 Frc consts  --      1.0092                 0.7967                 1.4298
 IR Inten    --     24.3109                13.5349                 4.1142

                     34                     35                     36
                      A                      A                      A
 Frequencies --   1038.1396              1064.1421              1070.1646
 Red. masses --      1.7489                 2.4463                 1.5507
 Frc consts  --      1.1105                 1.6322                 1.0464
 IR Inten    --     25.2145                 0.2387                 0.7094

                     37                     38                     39
                      A                      A                      A
 Frequencies --   1085.7203              1108.0328              1119.1152
 Red. masses --      3.4738                 1.9303                 1.9881
 Frc consts  --      2.4126                 1.3963                 1.4671
 IR Inten    --     69.4477                 1.5797                 0.5723

                     40                     41                     42
                      A                      A                      A
 Frequencies --   1148.9956              1175.2292              1224.9958
 Red. masses --      1.9866                 2.1380                 1.8379
 Frc consts  --      1.5453                 1.7398                 1.6250
 IR Inten    --      5.7320                 6.2665                 4.8626

                     43                     44                     45
                      A                      A                      A
 Frequencies --   1261.2605              1268.6391              1301.5436
 Red. masses --      1.5130                 1.5158                 1.5754
 Frc consts  --      1.4181                 1.4374                 1.5724
 IR Inten    --      5.6744                 1.5730                 2.7184

                     46                     47                     48
                      A                      A                      A
 Frequencies --   1318.8465              1330.2502              1348.2477
 Red. masses --      1.2606                 1.1073                 1.2469
 Frc consts  --      1.2918                 1.1545                 1.3355
 IR Inten    --      2.2301                 0.3925                 0.8417

                     49                     50                     51
                      A                      A                      A
 Frequencies --   1359.9226              1374.8064              1386.0923
 Red. masses --      1.2772                 1.3537                 1.3361
 Frc consts  --      1.3917                 1.5075                 1.5124
 IR Inten    --      0.9832                 3.0272                10.3021

                     52                     53                     54
                      A                      A                      A
 Frequencies --   1397.6573              1407.1027              1410.9467
 Red. masses --      1.3331                 1.2570                 1.2561
 Frc consts  --      1.5343                 1.4663                 1.4733
 IR Inten    --      9.2684                 9.5903                 4.3291

                     55                     56                     57
                      A                      A                      A
 Frequencies --   1413.2766              1423.0991              1478.1445
 Red. masses --      1.2420                 1.2619                 1.0775
 Frc consts  --      1.4616                 1.5058                 1.3871
 IR Inten    --      1.2363                19.1636                 1.4961

                     58                     59                     60
                      A                      A                      A
 Frequencies --   1479.8276              1485.4955              1492.2820
 Red. masses --      1.0460                 1.0664                 1.0510
 Frc consts  --      1.3496                 1.3865                 1.3789
 IR Inten    --      4.7694                 0.9780                 8.5863

                     61                     62                     63
                      A                      A                      A
 Frequencies --   1493.7283              1497.8996              1499.7516
 Red. masses --      1.0626                 1.0676                 1.0404
 Frc consts  --      1.3969                 1.4113                 1.3788
 IR Inten    --      1.5000                 0.5623                 5.0755

                     64                     65                     66
                      A                      A                      A
 Frequencies --   1501.8828              1510.6514              1512.8045
 Red. masses --      1.0696                 1.0604                 1.0882
 Frc consts  --      1.4215                 1.4257                 1.4673
 IR Inten    --      0.4516                 6.5739                 2.3575

                     67                     68                     69
                      A                      A                      A
 Frequencies --   1738.3924              2996.8192              3006.1181
 Red. masses --      6.1529                 1.0664                 1.0593
 Frc consts  --     10.9554                 5.6426                 5.6398
 IR Inten    --      0.7632                52.5255                 8.2637

                     70                     71                     72
                      A                      A                      A
 Frequencies --   3011.9818              3014.8836              3023.0446
 Red. masses --      1.0579                 1.0369                 1.0524
 Frc consts  --      5.6546                 5.5530                 5.6664
 IR Inten    --     11.0314                43.9983                19.2855

                     73                     74                     75
                      A                      A                      A
 Frequencies --   3027.3359              3029.8102              3033.8880
 Red. masses --      1.0364                 1.0428                 1.0968
 Frc consts  --      5.5960                 5.6400                 5.9481
 IR Inten    --     11.1277                80.6285                 2.6209

                     76                     77                     78
                      A                      A                      A
 Frequencies --   3040.5399              3061.2092              3068.9543
 Red. masses --      1.1025                 1.0986                 1.1038
 Frc consts  --      6.0052                 6.0657                 6.1253
 IR Inten    --      0.2298                21.8239                51.2543

                     79                     80                     81
                      A                      A                      A
 Frequencies --   3074.8026              3092.5441              3094.5036
 Red. masses --      1.0963                 1.0899                 1.1020
 Frc consts  --      6.1067                 6.1417                 6.2175
 IR Inten    --     24.4543                 3.5250                64.1878

                     82                     83                     84
                      A                      A                      A
 Frequencies --   3096.6919              3098.2441              3099.7713
 Red. masses --      1.0993                 1.1008                 1.0983
 Frc consts  --      6.2112                 6.2259                 6.2175
 IR Inten    --     31.0675                33.4085                39.8966

                     85                     86                     87
                      A                      A                      A
 Frequencies --   3100.2289              3176.5507              3829.6927
 Red. masses --      1.1008                 1.0884                 1.0659
 Frc consts  --      6.2339                 6.4709                 9.2110
 IR Inten    --     39.1136                 6.3458                17.5637

 - Thermochemistry -
 -------------------
 Temperature   298.150 Kelvin.  Pressure   1.00000 Atm.
 Atom     1 has atomic number  6 and mass  12.00000

 Molecular mass:   156.15142 amu.
 Principal axes and moments of inertia in atomic units:
                           1         2         3
     Eigenvalues --  1038.268173878.270934340.92617
           X            0.99994  -0.01108   0.00224
           Y            0.01101   0.99955   0.02802
           Z           -0.00255  -0.02799   0.99960
 This molecule is an asymmetric top.
 Rotational symmetry number  1.
 Warning -- assumption of classical behavior for rotation
           may cause significant error
 Rotational temperatures (Kelvin)      0.08342     0.02233     0.01995
 Rotational constants (GHZ):           1.73822     0.46535     0.41575
 Zero-point vibrational energy     741149.2 (Joules/Mol)
                                  177.13890 (Kcal/Mol)
 Warning -- explicit consideration of  20 degrees of freedom as
           vibrations may cause significant error
 Vibrational temperatures:     57.76    83.38   100.00   160.27   179.06
          (Kelvin)            204.28   245.11   250.66   305.31   340.73
                              343.88   367.47   421.10   429.01   446.58
                              481.44   508.20   609.48   638.39   743.78
                              905.26  1053.29  1115.74  1130.97  1177.06
                             1265.28  1298.04  1315.24  1366.46  1388.61
                             1430.92  1475.42  1478.29  1493.65  1531.06
                             1539.73  1562.11  1594.21  1610.16  1653.15
                             1690.89  1762.50  1814.67  1825.29  1872.63
                             1897.53  1913.93  1939.83  1956.63  1978.04
                             1994.28  2010.92  2024.51  2030.04  2033.39
                             2047.52  2126.72  2129.14  2137.30  2147.06
                             2149.14  2155.14  2157.81  2160.87  2173.49
                             2176.59  2501.16  4311.75  4325.13  4333.57
                             4337.75  4349.49  4355.66  4359.22  4365.09
                             4374.66  4404.40  4415.54  4423.96  4449.48
                             4452.30  4455.45  4457.68  4459.88  4460.54
                             4570.35  5510.07

 Zero-point correction=                           0.282289 (Hartree/Particle)
 Thermal correction to Energy=                    0.296888
 Thermal correction to Enthalpy=                  0.297832
 Thermal correction to Gibbs Free Energy=         0.241008
 Sum of electronic and zero-point Energies=           -468.069049
 Sum of electronic and thermal Energies=              -468.054449
 Sum of electronic and thermal Enthalpies=            -468.053505
 Sum of electronic and thermal Free Energies=         -468.110329

                     E (Thermal)             CV                S
                      KCal/Mol        Cal/Mol-Kelvin    Cal/Mol-Kelvin
 Total                  186.300             52.898            119.596
 Electronic               0.000              0.000              0.000
 Translational            0.889              2.981             41.046
 Rotational               0.889              2.981             31.236
 Vibrational            184.523             46.936             47.313
 Vibration     1          0.594              1.981              5.252
 Vibration     2          0.596              1.974              4.526
 Vibration     3          0.598              1.969              4.167
 Vibration     4          0.607              1.940              3.244
 Vibration     5          0.610              1.929              3.030
 Vibration     6          0.615              1.911              2.777
 Vibration     7          0.625              1.879              2.432
 Vibration     8          0.627              1.874              2.389
 Vibration     9          0.643              1.822              2.025
 Vibration    10          0.656              1.784              1.827
 Vibration    11          0.657              1.781              1.810
 Vibration    12          0.666              1.754              1.693
 Vibration    13          0.688              1.687              1.458
 Vibration    14          0.691              1.677              1.427
 Vibration    15          0.699              1.654              1.360
 Vibration    16          0.716              1.606              1.238
 Vibration    17          0.729              1.569              1.152
 Vibration    18          0.786              1.419              0.880
 Vibration    19          0.803              1.375              0.815
 Vibration    20          0.872              1.212              0.617

                           ! Non-Optimized Parameters !
 Normal termination of Gaussian 16 at Tue May 23 23:24:58 2023.
