 Gaussian 16, Revision A.03,
 Gaussian 16:  ES64L-G16RevA.03 25-Dec-2016

 -----------------------------
 # opt freq b3lyp/6-31g(2df,p)
 -----------------------------

 -------------------
 Title Card Required
 -------------------
 Symbolic Z-matrix:
 Charge =  0 Multiplicity = 1

 SCF Done:  E(RB3LYP) =  -779.419509865     A.U. after   12 cycles
 SCF Done:  E(RB3LYP) =  -779.441442298     A.U. after   12 cycles
 SCF Done:  E(RB3LYP) =  -779.452024833     A.U. after   11 cycles
 SCF Done:  E(RB3LYP) =  -779.456324284     A.U. after   10 cycles
 SCF Done:  E(RB3LYP) =  -779.457285400     A.U. after   10 cycles
 SCF Done:  E(RB3LYP) =  -779.457728751     A.U. after   10 cycles
 SCF Done:  E(RB3LYP) =  -779.457955195     A.U. after   10 cycles
 SCF Done:  E(RB3LYP) =  -779.458503393     A.U. after   12 cycles
 SCF Done:  E(RB3LYP) =  -779.459111094     A.U. after   13 cycles
 SCF Done:  E(RB3LYP) =  -779.459760461     A.U. after   13 cycles
 SCF Done:  E(RB3LYP) =  -779.468668913     A.U. after   11 cycles
 SCF Done:  E(RB3LYP) =  -779.469088715     A.U. after   10 cycles
 SCF Done:  E(RB3LYP) =  -779.469222608     A.U. after   11 cycles
 SCF Done:  E(RB3LYP) =  -779.469256674     A.U. after    9 cycles
 SCF Done:  E(RB3LYP) =  -779.469260701     A.U. after    9 cycles
 SCF Done:  E(RB3LYP) =  -779.469262146     A.U. after    8 cycles
 SCF Done:  E(RB3LYP) =  -779.469262379     A.U. after    6 cycles
 SCF Done:  E(RB3LYP) =  -779.469262436     A.U. after    6 cycles
 SCF Done:  E(RB3LYP) =  -779.469262461     A.U. after    6 cycles
 Optimization completed.
    -- Stationary point found.
 Normal termination of Gaussian 16 at Sun May 28 11:27:27 2023.

 ----------------------------------------------------------------------
 #N Geom=AllCheck Guess=TCheck SCRF=Check GenChk RB3LYP/6-31G(2df,p) Fr
 eq
 ----------------------------------------------------------------------

 Structure from the checkpoint file:  "CCdCCCCCCCCOCqCCCrCCO.chk"
 -------------------
 Title Card Required
 -------------------
 Charge =  0 Multiplicity = 1

                         Standard orientation:
 ---------------------------------------------------------------------
 Center     Atomic      Atomic             Coordinates (Angstroms)
 Number     Number       Type             X           Y           Z
 ---------------------------------------------------------------------
      1          6           0        9.510794    0.765549   -0.339132
      2          6           0        8.234552    0.347203    0.329078
      3          6           0        7.251065   -0.340291   -0.247614
      4          6           0        5.967541   -0.751061    0.415311
      5          6           0        4.721101   -0.151016   -0.260323
      6          6           0        3.406413   -0.606450    0.381216
      7          6           0        2.163147   -0.010810   -0.287773
      8          6           0        0.847795   -0.466151    0.353886
      9          6           0       -0.391007    0.133260   -0.318925
     10          6           0       -1.693590   -0.325964    0.323611
     11          8           0       -2.770071    0.285410   -0.358785
     12          6           0       -4.067201   -0.003294    0.155030
     13          6           0       -4.965546    1.173316   -0.234024
     14          6           0       -4.533103    2.507408    0.383182
     15          6           0       -5.416770    3.679683   -0.050418
     16          6           0       -4.573090   -1.353728   -0.381111
     17          6           0       -5.844206   -1.876929    0.293276
     18          8           0       -6.163321   -3.202574   -0.104651
     19          1           0        9.631639    1.856157   -0.321286
     20          1           0        9.543721    0.438600   -1.382701
     21          1           0       10.386138    0.348261    0.174661
     22          1           0        8.126241    0.637594    1.374754
     23          1           0        7.357177   -0.629725   -1.294674
     24          1           0        5.988035   -0.460829    1.473231
     25          1           0        5.877817   -1.847550    0.396584
     26          1           0        4.720835   -0.422727   -1.324953
     27          1           0        4.789288    0.944138   -0.227631
     28          1           0        3.409653   -0.337296    1.446838
     29          1           0        3.347047   -1.703495    0.348089
     30          1           0        2.158859   -0.280134   -1.353082
     31          1           0        2.222184    1.085863   -0.254425
     32          1           0        0.853156   -0.197121    1.419438
     33          1           0        0.789547   -1.563069    0.319793
     34          1           0       -0.411602   -0.138830   -1.381386
     35          1           0       -0.349171    1.228707   -0.279436
     36          1           0       -1.714300   -0.046923    1.391268
     37          1           0       -1.765207   -1.425049    0.278812
     38          1           0       -4.009997   -0.058308    1.256972
     39          1           0       -5.997940    0.949558    0.061643
     40          1           0       -4.962702    1.254156   -1.329396
     41          1           0       -3.492012    2.699495    0.105295
     42          1           0       -4.550778    2.420990    1.478172
     43          1           0       -5.392712    3.812171   -1.137933
     44          1           0       -5.085968    4.618312    0.405238
     45          1           0       -6.462151    3.520775    0.238357
     46          1           0       -3.795809   -2.112648   -0.241193
     47          1           0       -4.735197   -1.261809   -1.464028
     48          1           0       -6.692681   -1.199324    0.113582
     49          1           0       -5.698517   -1.925640    1.378746
     50          1           0       -6.324829   -3.191337   -1.053469
 ---------------------------------------------------------------------

 SCF Done:  E(RB3LYP) =  -779.469262461     A.U. after    1 cycles

 The electronic state is 1-A.
 Alpha  occ. eigenvalues --  -19.13247 -19.13173 -10.22953 -10.22554 -10.22188
 Alpha  occ. eigenvalues --  -10.17832 -10.17797 -10.17652 -10.17596 -10.17589
 Alpha  occ. eigenvalues --  -10.17565 -10.17541 -10.17538 -10.17533 -10.17520
 Alpha  occ. eigenvalues --  -10.17342 -10.17211 -10.16945  -1.02570  -1.01238
 Alpha  occ. eigenvalues --   -0.81251  -0.80415  -0.79102  -0.76753  -0.75926
 Alpha  occ. eigenvalues --   -0.73186  -0.70216  -0.68228  -0.64745  -0.63377
 Alpha  occ. eigenvalues --   -0.60355  -0.58794  -0.57933  -0.57363  -0.56791
 Alpha  occ. eigenvalues --   -0.54046  -0.50561  -0.49185  -0.48449  -0.46789
 Alpha  occ. eigenvalues --   -0.45192  -0.44840  -0.44661  -0.44240  -0.43026
 Alpha  occ. eigenvalues --   -0.42935  -0.41464  -0.40570  -0.40466  -0.39941
 Alpha  occ. eigenvalues --   -0.38996  -0.38434  -0.38074  -0.37302  -0.36784
 Alpha  occ. eigenvalues --   -0.35978  -0.35501  -0.34528  -0.34098  -0.33608
 Alpha  occ. eigenvalues --   -0.33042  -0.32643  -0.32531  -0.32344  -0.32184
 Alpha  occ. eigenvalues --   -0.31904  -0.31819  -0.30538  -0.30058  -0.26966
 Alpha  occ. eigenvalues --   -0.24373  -0.23584
 Alpha virt. eigenvalues --    0.03320   0.07797   0.08702   0.09020   0.10004
 Alpha virt. eigenvalues --    0.10402   0.10724   0.11250   0.11741   0.12077
 Alpha virt. eigenvalues --    0.12366   0.12855   0.13122   0.13466   0.14701

 Mulliken charges:
               1
     1  C   -0.422729
     2  C   -0.032149
     3  C   -0.026455
     4  C   -0.240779
     5  C   -0.169689
     6  C   -0.178942
     7  C   -0.181312
     8  C   -0.183136
     9  C   -0.198015
    10  C   -0.067360
    11  O   -0.261711
    12  C    0.113500
    13  C   -0.178517
    14  C   -0.168509
    15  C   -0.381718
    16  C   -0.229317
    17  C   -0.061196
    18  O   -0.418240
    19  H    0.122454
    20  H    0.117105
    21  H    0.122537
    22  H    0.074121
    23  H    0.072747
    24  H    0.093059
    25  H    0.098195
    26  H    0.091805
    27  H    0.097182
    28  H    0.091573
    29  H    0.091050
    30  H    0.092988
    31  H    0.093612
    32  H    0.093137
    33  H    0.093711
    34  H    0.102919
    35  H    0.102374
    36  H    0.083394
    37  H    0.086764
    38  H    0.059611
    39  H    0.093226
    40  H    0.099621
    41  H    0.112888
    42  H    0.087526
    43  H    0.113764
    44  H    0.110272
    45  H    0.109898
    46  H    0.108277
    47  H    0.089788
    48  H    0.090058
    49  H    0.110372
    50  H    0.280246
 Sum of Mulliken charges =  -0.00000

 Dipole moment (field-independent basis, Debye):
    X=              0.3183    Y=              0.6285    Z=             -0.2961  Tot=              0.7642
 Quadrupole moment (field-independent basis, Debye-Ang):
   XX=           -115.4478   YY=           -122.4153   ZZ=           -112.5921
   XY=             -4.1923   XZ=              4.7813   YZ=              5.0791

  Exact polarizability: 244.322  11.115 173.310   2.496   3.662 155.011
 Approx polarizability: 266.018  16.566 244.486   7.231   8.263 247.481

                      1                      2                      3
                      A                      A                      A
 Frequencies --     12.6697                18.7697                27.2442
 Red. masses --      3.4816                 2.9421                 2.6377
 Frc consts  --      0.0003                 0.0006                 0.0012
 IR Inten    --      0.0232                 0.0347                 0.1146

                      4                      5                      6
                      A                      A                      A
 Frequencies --     35.2755                52.3897                58.4770
 Red. masses --      3.8698                 2.2587                 1.9301
 Frc consts  --      0.0028                 0.0037                 0.0039
 IR Inten    --      0.0540                 1.3129                 1.5690

                      7                      8                      9
                      A                      A                      A
 Frequencies --     70.3221                70.5676                75.3004
 Red. masses --      2.5539                 2.4636                 2.4853
 Frc consts  --      0.0074                 0.0072                 0.0083
 IR Inten    --      0.1676                 0.1435                 1.8346

                     10                     11                     12
                      A                      A                      A
 Frequencies --     81.4158                97.5201               114.8178
 Red. masses --      2.3211                 2.5386                 1.8415
 Frc consts  --      0.0091                 0.0142                 0.0143
 IR Inten    --      0.1585                 0.4077                 0.1989

                     13                     14                     15
                      A                      A                      A
 Frequencies --    123.0624               148.8238               154.3538
 Red. masses --      2.6530                 2.7132                 1.8451
 Frc consts  --      0.0237                 0.0354                 0.0259
 IR Inten    --      0.1711                 0.1145                 0.1528

                     16                     17                     18
                      A                      A                      A
 Frequencies --    163.8421               172.5435               184.2163
 Red. masses --      2.3860                 3.1735                 2.8071
 Frc consts  --      0.0377                 0.0557                 0.0561
 IR Inten    --      0.0573                 1.3753                 2.7489

                     19                     20                     21
                      A                      A                      A
 Frequencies --    217.0461               220.3658               245.7610
 Red. masses --      1.5803                 2.4948                 1.8171
 Frc consts  --      0.0439                 0.0714                 0.0647
 IR Inten    --      1.2138                 4.1447                 1.3057

                     22                     23                     24
                      A                      A                      A
 Frequencies --    250.0923               285.5743               296.0627
 Red. masses --      1.5243                 2.2607                 1.5729
 Frc consts  --      0.0562                 0.1086                 0.0812
 IR Inten    --      0.0871                 0.9688                52.1911

                     25                     26                     27
                      A                      A                      A
 Frequencies --    315.5081               322.0773               339.6847
 Red. masses --      2.1872                 3.2451                 3.6190
 Frc consts  --      0.1283                 0.1983                 0.2460
 IR Inten    --     49.0990                 3.9818                15.7021

                     28                     29                     30
                      A                      A                      A
 Frequencies --    383.3218               423.9266               467.4986
 Red. masses --      3.3269                 3.3962                 2.8614
 Frc consts  --      0.2880                 0.3596                 0.3685
 IR Inten    --      2.4393                 0.5090                 1.5225

                     31                     32                     33
                      A                      A                      A
 Frequencies --    520.2691               530.8816               548.0758
 Red. masses --      3.1000                 2.7572                 2.8349
 Frc consts  --      0.4944                 0.4578                 0.5017
 IR Inten    --      0.7882                 5.4683                 0.4969

                     34                     35                     36
                      A                      A                      A
 Frequencies --    552.0423               732.2598               741.4026
 Red. masses --      3.0011                 1.0631                 1.0936
 Frc consts  --      0.5389                 0.3359                 0.3542
 IR Inten    --      2.5265                 3.9674                 0.1016

                     37                     38                     39
                      A                      A                      A
 Frequencies --    746.3678               767.8821               780.1113
 Red. masses --      1.1506                 1.1846                 1.2051
 Frc consts  --      0.3777                 0.4115                 0.4321
 IR Inten    --      0.9929                 0.3954                 2.2981

                     40                     41                     42
                      A                      A                      A
 Frequencies --    791.9371               836.4079               847.3792
 Red. masses --      1.3677                 1.3000                 1.5245
 Frc consts  --      0.5054                 0.5358                 0.6450
 IR Inten    --      0.0841                 0.5947                 6.3706

                     43                     44                     45
                      A                      A                      A
 Frequencies --    896.3970               902.7983               931.3590
 Red. masses --      1.6474                 1.5826                 1.3836
 Frc consts  --      0.7799                 0.7600                 0.7071
 IR Inten    --      4.3549                 0.8691                 2.4332

                     46                     47                     48
                      A                      A                      A
 Frequencies --    939.5370               976.6142               994.2098
 Red. masses --      1.9754                 2.6573                 4.1578
 Frc consts  --      1.0274                 1.4933                 2.4214
 IR Inten    --      3.4925                12.4311                 2.0966

                     49                     50                     51
                      A                      A                      A
 Frequencies --   1003.2182              1015.7996              1017.5527
 Red. masses --      1.3033                 1.7883                 1.7967
 Frc consts  --      0.7728                 1.0872                 1.0961
 IR Inten    --      1.9774                 3.3274                46.3792

                     52                     53                     54
                      A                      A                      A
 Frequencies --   1020.3904              1044.4489              1048.2408
 Red. masses --      1.7835                 3.1699                 2.1987
 Frc consts  --      1.0941                 2.0374                 1.4235
 IR Inten    --      7.8351                 2.6033                 2.1893

                     55                     56                     57
                      A                      A                      A
 Frequencies --   1057.6193              1063.9614              1068.2949
 Red. masses --      2.1135                 2.3688                 1.9312
 Frc consts  --      1.3929                 1.5799                 1.2986
 IR Inten    --      4.7581                27.4180                 0.9844

                     58                     59                     60
                      A                      A                      A
 Frequencies --   1068.7778              1072.4630              1073.9839
 Red. masses --      1.6531                 1.8650                 4.1719
 Frc consts  --      1.1126                 1.2638                 2.8352
 IR Inten    --      0.5109                 3.8716                76.3224

                     61                     62                     63
                      A                      A                      A
 Frequencies --   1088.9851              1090.9431              1113.2926
 Red. masses --      2.1783                 2.5084                 3.5996
 Frc consts  --      1.5220                 1.7589                 2.6286
 IR Inten    --     37.1129                 1.7954                 1.7287

                     64                     65                     66
                      A                      A                      A
 Frequencies --   1125.5925              1143.7097              1157.0511
 Red. masses --      3.0093                 2.2938                 2.0580
 Frc consts  --      2.2464                 1.7678                 1.6233
 IR Inten    --    122.4167               112.0156                24.6441

                     67                     68                     69
                      A                      A                      A
 Frequencies --   1179.7843              1199.5647              1208.3445
 Red. masses --      2.0226                 1.5545                 1.6936
 Frc consts  --      1.6587                 1.3179                 1.4570
 IR Inten    --      0.3936                 2.7136                 7.6453

                     70                     71                     72
                      A                      A                      A
 Frequencies --   1230.8612              1245.0442              1268.1949
 Red. masses --      1.2876                 1.4108                 1.3159
 Frc consts  --      1.1493                 1.2885                 1.2469
 IR Inten    --      4.9554                 0.4424                 7.8724

                     73                     74                     75
                      A                      A                      A
 Frequencies --   1277.1856              1283.5392              1288.3797
 Red. masses --      1.3266                 1.2765                 1.2587
 Frc consts  --      1.2750                 1.2390                 1.2310
 IR Inten    --      3.1707                 2.3351                 1.4287

                     76                     77                     78
                      A                      A                      A
 Frequencies --   1295.0555              1311.4312              1316.6637
 Red. masses --      1.3112                 1.1443                 1.1800
 Frc consts  --      1.2957                 1.1595                 1.2053
 IR Inten    --      6.1410                 0.4032                 4.0235

                     79                     80                     81
                      A                      A                      A
 Frequencies --   1319.2972              1322.4779              1329.5505
 Red. masses --      1.1588                 1.2083                 1.0976
 Frc consts  --      1.1883                 1.2451                 1.1431
 IR Inten    --      6.0613                 1.7635                 0.9586

                     82                     83                     84
                      A                      A                      A
 Frequencies --   1331.8291              1333.3833              1339.9057
 Red. masses --      1.1154                 1.1361                 1.1957
 Frc consts  --      1.1657                 1.1901                 1.2648
 IR Inten    --      0.2304                 0.2212                 0.3218

                     85                     86                     87
                      A                      A                      A
 Frequencies --   1347.9441              1370.3407              1371.5812
 Red. masses --      1.2835                 1.3009                 1.3281
 Frc consts  --      1.3740                 1.4393                 1.4720
 IR Inten    --      0.2802                14.2294                24.1461

                     88                     89                     90
                      A                      A                      A
 Frequencies --   1379.8345              1395.0045              1398.4529
 Red. masses --      1.3964                 1.4961                 1.5066
 Frc consts  --      1.5664                 1.7154                 1.7359
 IR Inten    --     12.9374                 4.0418                17.5465

                     91                     92                     93
                      A                      A                      A
 Frequencies --   1402.8367              1406.5825              1412.3544
 Red. masses --      1.6408                 1.3951                 1.2643
 Frc consts  --      1.9025                 1.6263                 1.4859
 IR Inten    --      0.3659                 5.4466                 2.0325

                     94                     95                     96
                      A                      A                      A
 Frequencies --   1413.6497              1423.9117              1441.1362
 Red. masses --      1.2572                 1.2679                 1.4527
 Frc consts  --      1.4802                 1.5146                 1.7776
 IR Inten    --      3.4857                46.6381                 4.6209

                     97                     98                     99
                      A                      A                      A
 Frequencies --   1472.4942              1477.0916              1480.2012
 Red. masses --      1.0849                 1.0845                 1.0452
 Frc consts  --      1.3860                 1.3942                 1.3492
 IR Inten    --      0.8368                 0.9035                 4.3334

                    100                    101                    102
                      A                      A                      A
 Frequencies --   1482.9495              1485.0725              1486.9186
 Red. masses --      1.0732                 1.0776                 1.0889
 Frc consts  --      1.3905                 1.4002                 1.4184
 IR Inten    --      0.0504                 0.0398                 2.7277

                    103                    104                    105
                      A                      A                      A
 Frequencies --   1492.1748              1493.2622              1494.7311
 Red. masses --      1.0851                 1.0564                 1.0529
 Frc consts  --      1.4235                 1.3878                 1.3859
 IR Inten    --      0.5136                 6.5416                 0.7482

                    106                    107                    108
                      A                      A                      A
 Frequencies --   1500.2707              1502.9160              1510.9584
 Red. masses --      1.0406                 1.0971                 1.0845
 Frc consts  --      1.3800                 1.4600                 1.4588
 IR Inten    --      5.1128                 0.1419                 1.3786

                    109                    110                    111
                      A                      A                      A
 Frequencies --   1513.2227              1514.5039              1527.7515
 Red. masses --      1.0984                 1.0913                 1.0903
 Frc consts  --      1.4818                 1.4748                 1.4993
 IR Inten    --      2.9147                 0.0463                 3.7797

                    112                    113                    114
                      A                      A                      A
 Frequencies --   1746.9858              2939.2867              2953.0561
 Red. masses --      6.1369                 1.0778                 1.0597
 Frc consts  --     11.0351                 5.4861                 5.4447
 IR Inten    --      0.4479                12.9260                51.4386

                    115                    116                    117
                      A                      A                      A
 Frequencies --   2980.7144              2985.7155              2993.5786
 Red. masses --      1.1015                 1.0685                 1.0637
 Frc consts  --      5.7659                 5.6120                 5.6164
 IR Inten    --     33.2447                55.1270                17.6501

                    118                    119                    120
                      A                      A                      A
 Frequencies --   2999.9249              3001.2485              3007.9454
 Red. masses --      1.0579                 1.0577                 1.0599
 Frc consts  --      5.6092                 5.6130                 5.6502
 IR Inten    --      1.2841                 5.2986                 5.7595

                    121                    122                    123
                      A                      A                      A
 Frequencies --   3012.8949              3015.4646              3015.9871
 Red. masses --      1.0647                 1.0618                 1.0391
 Frc consts  --      5.6943                 5.6884                 5.5687
 IR Inten    --      9.1078                66.2868                53.0048

                    124                    125                    126
                      A                      A                      A
 Frequencies --   3016.6930              3021.4368              3022.2030
 Red. masses --      1.0661                 1.0965                 1.0585
 Frc consts  --      5.7160                 5.8975                 5.6963
 IR Inten    --      7.3050                 3.5431                35.6097

                    127                    128                    129
                      A                      A                      A
 Frequencies --   3027.3102              3028.4225              3029.6498
 Red. masses --      1.0398                 1.0969                 1.0602
 Frc consts  --      5.6148                 5.9272                 5.7337
 IR Inten    --     48.6780                 0.2503                57.0282

                    130                    131                    132
                      A                      A                      A
 Frequencies --   3039.3080              3051.2317              3056.0824
 Red. masses --      1.0959                 1.1031                 1.0896
 Frc consts  --      5.9645                 6.0508                 5.9960
 IR Inten    --      8.2392                 2.3102                34.6267

                    133                    134                    135
                      A                      A                      A
 Frequencies --   3057.9966              3061.7473              3065.5831
 Red. masses --      1.0950                 1.0987                 1.1044
 Frc consts  --      6.0332                 6.0685                 6.1149
 IR Inten    --      4.3766                23.1547                53.7579

                    136                    137                    138
                      A                      A                      A
 Frequencies --   3075.0991              3075.7455              3079.7145
 Red. masses --      1.1047                 1.0980                 1.1008
 Frc consts  --      6.1550                 6.1198                 6.1515
 IR Inten    --    105.8426                 5.9649                54.8561

                    139                    140                    141
                      A                      A                      A
 Frequencies --   3097.9036              3099.8638              3100.3464
 Red. masses --      1.1019                 1.0998                 1.0966
 Frc consts  --      6.2307                 6.2264                 6.2103
 IR Inten    --     59.0332                45.5554                 6.6743

                    142                    143                    144
                      A                      A                      A
 Frequencies --   3112.0798              3125.0986              3814.6793
 Red. masses --      1.0893                 1.0890                 1.0661
 Frc consts  --      6.2158                 6.2664                 9.1406
 IR Inten    --     14.3670                52.5997                16.8604

 - Thermochemistry -
 -------------------
 Temperature   298.150 Kelvin.  Pressure   1.00000 Atm.
 Atom     1 has atomic number  6 and mass  12.00000

 Molecular mass:   256.24023 amu.
 Principal axes and moments of inertia in atomic units:
                           1         2         3
     Eigenvalues --  2385.65615********************
           X            0.99998  -0.00546  -0.00068
           Y            0.00546   0.99998   0.00112
           Z            0.00067  -0.00112   1.00000
 This molecule is an asymmetric top.
 Rotational symmetry number  1.
 Warning -- assumption of classical behavior for rotation
           may cause significant error
 Rotational temperatures (Kelvin)      0.03631     0.00350     0.00323
 Rotational constants (GHZ):           0.75650     0.07284     0.06739
 Zero-point vibrational energy    1200622.6 (Joules/Mol)
                                  286.95569 (Kcal/Mol)
 Warning -- explicit consideration of  34 degrees of freedom as
           vibrations may cause significant error
 Vibrational temperatures:     18.23    27.01    39.20    50.75    75.38
          (Kelvin)             84.14   101.18   101.53   108.34   117.14
                              140.31   165.20   177.06   214.12   222.08
                              235.73   248.25   265.05   312.28   317.06
                              353.60   359.83   410.88   425.97   453.95
                              463.40   488.73   551.51   609.94   672.63
                              748.55   763.82   788.56   794.27  1053.56
                             1066.71  1073.86  1104.81  1122.41  1139.42
                             1203.40  1219.19  1289.72  1298.93  1340.02
                             1351.78  1405.13  1430.45  1443.41  1461.51
                             1464.03  1468.11  1502.73  1508.18  1521.68
                             1530.80  1537.04  1537.73  1543.03  1545.22
                             1566.81  1569.62  1601.78  1619.48  1645.54
                             1664.74  1697.45  1725.91  1738.54  1770.93
                             1791.34  1824.65  1837.59  1846.73  1853.69
                             1863.30  1886.86  1894.39  1898.17  1902.75
                             1912.93  1916.20  1918.44  1927.83  1939.39
                             1971.61  1973.40  1985.27  2007.10  2012.06
                             2018.37  2023.76  2032.06  2033.93  2048.69
                             2073.47  2118.59  2125.21  2129.68  2133.63
                             2136.69  2139.34  2146.91  2148.47  2150.58
                             2158.55  2162.36  2173.93  2177.19  2179.03
                             2198.09  2513.52  4228.98  4248.79  4288.58
                             4295.78  4307.09  4316.22  4318.13  4327.76
                             4334.88  4338.58  4339.33  4340.35  4347.17
                             4348.28  4355.62  4357.22  4358.99  4372.89
                             4390.04  4397.02  4399.78  4405.17  4410.69
                             4424.38  4425.31  4431.02  4457.19  4460.01
                             4460.71  4477.59  4496.32  5488.47

 Zero-point correction=                           0.457293 (Hartree/Particle)
 Thermal correction to Energy=                    0.481295
 Thermal correction to Enthalpy=                  0.482239
 Thermal correction to Gibbs Free Energy=         0.398807
 Sum of electronic and zero-point Energies=           -779.011969
 Sum of electronic and thermal Energies=              -778.987968
 Sum of electronic and thermal Enthalpies=            -778.987023
 Sum of electronic and thermal Free Energies=         -779.070456

                     E (Thermal)             CV                S
                      KCal/Mol        Cal/Mol-Kelvin    Cal/Mol-Kelvin
 Total                  302.017             84.332            175.598
 Electronic               0.000              0.000              0.000
 Translational            0.889              2.981             42.523
 Rotational               0.889              2.981             35.713
 Vibrational            300.240             78.370             97.361
 Vibration     1          0.593              1.987              7.541
 Vibration     2          0.593              1.986              6.760
 Vibration     3          0.593              1.984              6.021
 Vibration     4          0.594              1.982              5.508
 Vibration     5          0.596              1.977              4.725
 Vibration     6          0.596              1.974              4.508
 Vibration     7          0.598              1.968              4.144
 Vibration     8          0.598              1.968              4.137
 Vibration     9          0.599              1.965              4.010
 Vibration    10          0.600              1.962              3.856
 Vibration    11          0.603              1.951              3.503
 Vibration    12          0.608              1.937              3.186
 Vibration    13          0.610              1.930              3.052
 Vibration    14          0.618              1.904              2.687
 Vibration    15          0.620              1.898              2.618
 Vibration    16          0.623              1.887              2.505
 Vibration    17          0.626              1.876              2.408
 Vibration    18          0.631              1.861              2.285
 Vibration    19          0.646              1.815              1.984
 Vibration    20          0.647              1.810              1.956
 Vibration    21          0.660              1.770              1.761
 Vibration    22          0.663              1.763              1.730
 Vibration    23          0.683              1.700              1.500
 Vibration    24          0.690              1.681              1.439
 Vibration    25          0.703              1.644              1.333
 Vibration    26          0.707              1.631              1.300
 Vibration    27          0.720              1.596              1.214
 Vibration    28          0.753              1.506              1.026
 Vibration    29          0.786              1.418              0.879
 Vibration    30          0.825              1.322              0.745
 Vibration    31          0.875              1.205              0.609
 Vibration    32          0.886              1.182              0.585
 Vibration    33          0.903              1.144              0.548
 Vibration    34          0.907              1.135              0.540

                           ! Non-Optimized Parameters !
 Normal termination of Gaussian 16 at Sun May 28 16:17:16 2023.
