 Gaussian 16, Revision A.03,
 Gaussian 16:  ES64L-G16RevA.03 25-Dec-2016

 -----------------------------
 # opt freq b3lyp/6-31g(2df,p)
 -----------------------------

 -------------------
 Title Card Required
 -------------------
 Symbolic Z-matrix:
 Charge =  0 Multiplicity = 1

 SCF Done:  E(RB3LYP) =  -613.671609952     A.U. after   15 cycles
 SCF Done:  E(RB3LYP) =  -613.677555950     A.U. after   12 cycles
 SCF Done:  E(RB3LYP) =  -613.680755872     A.U. after   11 cycles
 SCF Done:  E(RB3LYP) =  -613.680989984     A.U. after   10 cycles
 SCF Done:  E(RB3LYP) =  -613.681003058     A.U. after    8 cycles
 SCF Done:  E(RB3LYP) =  -613.681004417     A.U. after    7 cycles
 SCF Done:  E(RB3LYP) =  -613.681004672     A.U. after    7 cycles
 Optimization completed.
    -- Stationary point found.
 Normal termination of Gaussian 16 at Mon May 22 17:29:41 2023.

 ----------------------------------------------------------------------
 #N Geom=AllCheck Guess=TCheck SCRF=Check GenChk RB3LYP/6-31G(2df,p) Fr
 eq
 ----------------------------------------------------------------------

 Structure from the checkpoint file:  "CCdCCCCCCOCNNdO.chk"
 -------------------
 Title Card Required
 -------------------
 Charge =  0 Multiplicity = 1

                         Standard orientation:
 ---------------------------------------------------------------------
 Center     Atomic      Atomic             Coordinates (Angstroms)
 Number     Number       Type             X           Y           Z
 ---------------------------------------------------------------------
      1          6           0        7.363545   -0.759316    0.000009
      2          6           0        6.140848    0.127886    0.000013
      3          6           0        4.882714   -0.305443   -0.000011
      4          6           0        3.652076    0.575577   -0.000009
      5          6           0        2.342452   -0.221991   -0.000006
      6          6           0        1.092949    0.663470   -0.000005
      7          6           0       -0.211712   -0.139854   -0.000002
      8          6           0       -1.445636    0.749693   -0.000000
      9          8           0       -2.599559   -0.077750    0.000001
     10          6           0       -3.793874    0.644678    0.000003
     11          7           0       -4.840412   -0.359310    0.000005
     12          7           0       -6.114441   -0.001651    0.000003
     13          8           0       -6.898122   -0.937055    0.000000
     14          1           0        8.283628   -0.169364    0.000032
     15          1           0        7.393125   -1.410121   -0.881222
     16          1           0        7.393104   -1.410157    0.881215
     17          1           0        6.321925    1.202617    0.000038
     18          1           0        4.698640   -1.381068   -0.000036
     19          1           0        3.667262    1.239966   -0.875049
     20          1           0        3.667266    1.239967    0.875029
     21          1           0        2.321078   -0.882811    0.877255
     22          1           0        2.321075   -0.882811   -0.877267
     23          1           0        1.117248    1.324381   -0.877621
     24          1           0        1.117251    1.324381    0.877612
     25          1           0       -0.252381   -0.793798    0.879391
     26          1           0       -0.252384   -0.793798   -0.879395
     27          1           0       -1.453607    1.403713   -0.887532
     28          1           0       -1.453604    1.403713    0.887531
     29          1           0       -3.880761    1.285964   -0.892885
     30          1           0       -3.880758    1.285964    0.892891
     31          1           0       -4.602863   -1.349760    0.000000
 ---------------------------------------------------------------------

 SCF Done:  E(RB3LYP) =  -613.681004672     A.U. after    1 cycles

 The electronic state is 1-A.
 Alpha  occ. eigenvalues --  -19.16783 -19.14627 -14.44843 -14.38892 -10.28596
 Alpha  occ. eigenvalues --  -10.24614 -10.19241 -10.19150 -10.18676 -10.18599
 Alpha  occ. eigenvalues --  -10.17919 -10.17895 -10.17706  -1.14252  -1.06957
 Alpha  occ. eigenvalues --   -0.94636  -0.82000  -0.79561  -0.76450  -0.72939
 Alpha  occ. eigenvalues --   -0.69090  -0.65556  -0.64819  -0.60547  -0.58862
 Alpha  occ. eigenvalues --   -0.54519  -0.52792  -0.51906  -0.51215  -0.48743
 Alpha  occ. eigenvalues --   -0.48541  -0.46018  -0.44748  -0.43786  -0.43318
 Alpha  occ. eigenvalues --   -0.41492  -0.40943  -0.39882  -0.38876  -0.38381
 Alpha  occ. eigenvalues --   -0.37343  -0.35570  -0.35478  -0.34288  -0.33435
 Alpha  occ. eigenvalues --   -0.33395  -0.32373  -0.28773  -0.26473  -0.23820
 Alpha  occ. eigenvalues --   -0.22352
 Alpha virt. eigenvalues --   -0.03217   0.01622   0.06816   0.07996   0.10514
 Alpha virt. eigenvalues --    0.10898   0.11104   0.11261   0.11703   0.12784
 Alpha virt. eigenvalues --    0.13263   0.14233   0.15029   0.16242   0.17167

 Mulliken charges:
               1
     1  C   -0.426752
     2  C   -0.067114
     3  C   -0.019046
     4  C   -0.231990
     5  C   -0.185261
     6  C   -0.189273
     7  C   -0.201984
     8  C   -0.059051
     9  O   -0.258611
    10  C    0.022478
    11  N   -0.176031
    12  N    0.093034
    13  O   -0.330655
    14  H    0.119504
    15  H    0.129430
    16  H    0.129430
    17  H    0.078478
    18  H    0.075827
    19  H    0.107520
    20  H    0.107520
    21  H    0.099351
    22  H    0.099351
    23  H    0.097471
    24  H    0.097472
    25  H    0.109800
    26  H    0.109800
    27  H    0.097085
    28  H    0.097085
    29  H    0.114054
    30  H    0.114054
    31  H    0.247026
 Sum of Mulliken charges =  -0.00000

 Dipole moment (field-independent basis, Debye):
    X=              4.7959    Y=              1.2170    Z=             -0.0000  Tot=              4.9479
 Quadrupole moment (field-independent basis, Debye-Ang):
   XX=           -120.6754   YY=            -77.7988   ZZ=            -79.3797
   XY=             -5.3093   XZ=              0.0000   YZ=              0.0000

  Exact polarizability: 188.404   3.837 106.493   0.000   0.000  86.699
 Approx polarizability: 216.848  14.497 163.347   0.001   0.000 135.445

 ******    3 imaginary frequencies (negative Signs) ******

                      1                      2                      3
                      A                      A                      A
 Frequencies --   -228.3431              -160.7854              -106.6199
 Red. masses --      1.1576                 2.3814                 1.5588
 Frc consts  --      0.0356                 0.0363                 0.0104
 IR Inten    --      0.1021                28.6396                 0.0481

                      4                      5                      6
                      A                      A                      A
 Frequencies --     22.0092                33.2766                38.9124
 Red. masses --      3.5951                 5.1203                 3.0221
 Frc consts  --      0.0010                 0.0033                 0.0027
 IR Inten    --      0.4195                 1.0494                 0.2079

                      7                      8                      9
                      A                      A                      A
 Frequencies --     70.7404                85.4185                89.9615
 Red. masses --      2.7777                 2.9042                 4.6808
 Frc consts  --      0.0082                 0.0125                 0.0223
 IR Inten    --      0.4858                 0.2196                 1.5752

                     10                     11                     12
                      A                      A                      A
 Frequencies --    118.4159               136.6066               158.3220
 Red. masses --      3.0262                 2.1969                 2.6742
 Frc consts  --      0.0250                 0.0242                 0.0395
 IR Inten    --      0.5600                 0.2405                 0.0582

                     13                     14                     15
                      A                      A                      A
 Frequencies --    163.9584               195.3498               254.1106
 Red. masses --      4.3075                 6.0380                 2.4941
 Frc consts  --      0.0682                 0.1358                 0.0949
 IR Inten    --      0.9769                 1.5843                 2.6463

                     16                     17                     18
                      A                      A                      A
 Frequencies --    263.9835               360.3851               377.0479
 Red. masses --      4.0972                 4.0817                 4.6491
 Frc consts  --      0.1682                 0.3123                 0.3894
 IR Inten    --      3.9979                 3.1662                 2.4849

                     19                     20                     21
                      A                      A                      A
 Frequencies --    472.1337               502.8444               551.6670
 Red. masses --      3.1505                 4.3263                 3.3067
 Frc consts  --      0.4138                 0.6445                 0.5929
 IR Inten    --      0.6931                 2.0659                 2.7670

                     22                     23                     24
                      A                      A                      A
 Frequencies --    608.4998               685.1675               710.3625
 Red. masses --      1.5116                 3.7440                 1.2083
 Frc consts  --      0.3298                 1.0356                 0.3592
 IR Inten    --     53.6185                10.7024                 0.9507

                     25                     26                     27
                      A                      A                      A
 Frequencies --    745.7626               786.0211               853.9188
 Red. masses --      1.1201                 1.2443                 1.2714
 Frc consts  --      0.3670                 0.4530                 0.5462
 IR Inten    --      2.7170                 0.1440                 0.1337

                     28                     29                     30
                      A                      A                      A
 Frequencies --    946.3256               969.5009              1004.1087
 Red. masses --      1.9001                 1.2400                 4.9005
 Frc consts  --      1.0026                 0.6867                 2.9111
 IR Inten    --      2.0339                 0.7691                19.6523

                     31                     32                     33
                      A                      A                      A
 Frequencies --   1007.4110              1010.0975              1046.4750
 Red. masses --      1.0748                 4.0902                 3.5416
 Frc consts  --      0.6426                 2.4588                 2.2851
 IR Inten    --     20.8541                 2.4049                 6.1642

                     34                     35                     36
                      A                      A                      A
 Frequencies --   1053.3810              1065.4775              1083.3852
 Red. masses --      1.4648                 2.4286                 2.5182
 Frc consts  --      0.9576                 1.6244                 1.7414
 IR Inten    --      0.1779                 8.2745                 5.8817

                     37                     38                     39
                      A                      A                      A
 Frequencies --   1086.5492              1123.7105              1131.6055
 Red. masses --      2.6651                 1.4534                 2.6626
 Frc consts  --      1.8538                 1.0813                 2.0088
 IR Inten    --      2.7047                 0.2331                48.4268

                     40                     41                     42
                      A                      A                      A
 Frequencies --   1134.3801              1144.1307              1192.9125
 Red. masses --      1.4276                 3.4929                 5.3290
 Frc consts  --      1.0824                 2.6939                 4.4680
 IR Inten    --      4.7266               350.6654                86.9474

                     43                     44                     45
                      A                      A                      A
 Frequencies --   1206.9660              1214.4028              1234.7173
 Red. masses --      1.4004                 5.5184                 1.0909
 Frc consts  --      1.2020                 4.7950                 0.9799
 IR Inten    --      2.4499               126.1424                 5.8678

                     46                     47                     48
                      A                      A                      A
 Frequencies --   1241.1905              1268.1489              1289.3266
 Red. masses --      1.3605                 1.2926                 1.2795
 Frc consts  --      1.2349                 1.2248                 1.2532
 IR Inten    --     32.9955                 1.3908                 1.0132

                     49                     50                     51
                      A                      A                      A
 Frequencies --   1310.6994              1324.5836              1333.5265
 Red. masses --      1.1191                 1.1078                 1.0780
 Frc consts  --      1.1328                 1.1451                 1.1294
 IR Inten    --      0.5745                 0.2257                 0.0647

                     52                     53                     54
                      A                      A                      A
 Frequencies --   1334.3410              1346.3545              1377.1301
 Red. masses --      1.3206                 1.2583                 1.4100
 Frc consts  --      1.3854                 1.3439                 1.5755
 IR Inten    --      0.3267                 0.6139                23.5892

                     55                     56                     57
                      A                      A                      A
 Frequencies --   1389.2000              1404.3477              1408.9822
 Red. masses --      1.5220                 1.6157                 1.2317
 Frc consts  --      1.7306                 1.8774                 1.4407
 IR Inten    --      8.3462                 0.1817                 4.2860

                     58                     59                     60
                      A                      A                      A
 Frequencies --   1425.1377              1477.4554              1479.5907
 Red. masses --      1.5787                 1.0765                 1.5126
 Frc consts  --      1.8892                 1.3844                 1.9511
 IR Inten    --     88.1943                 1.2103                90.8097

                     61                     62                     63
                      A                      A                      A
 Frequencies --   1486.2036              1492.0340              1492.1191
 Red. masses --      1.0791                 1.0441                 1.0495
 Frc consts  --      1.4044                 1.3694                 1.3766
 IR Inten    --      1.4983                 4.4343                 3.0040

                     64                     65                     66
                      A                      A                      A
 Frequencies --   1494.6278              1509.2810              1525.4203
 Red. masses --      1.0906                 1.0985                 1.0977
 Frc consts  --      1.4355                 1.4743                 1.5050
 IR Inten    --      0.2290                 1.1604                 3.6046

                     67                     68                     69
                      A                      A                      A
 Frequencies --   1554.6527              1590.0443              1734.0060
 Red. masses --      1.1163                 7.1952                 6.5624
 Frc consts  --      1.5896                10.7179                11.6256
 IR Inten    --      1.9738               190.4077                 0.8535

                     70                     71                     72
                      A                      A                      A
 Frequencies --   2952.5225              2965.5675              2982.0817
 Red. masses --      1.0519                 1.0541                 1.1097
 Frc consts  --      5.4029                 5.4620                 5.8141
 IR Inten    --     11.9960                65.6311                60.1833

                     73                     74                     75
                      A                      A                      A
 Frequencies --   2992.0488              3001.8612              3003.2023
 Red. masses --      1.1057                 1.0585                 1.0577
 Frc consts  --      5.8323                 5.6197                 5.6203
 IR Inten    --     30.3944                 1.9890                 5.6667

                     76                     77                     78
                      A                      A                      A
 Frequencies --   3013.9537              3022.1875              3029.8618
 Red. masses --      1.0594                 1.0990                 1.0379
 Frc consts  --      5.6698                 5.9140                 5.6138
 IR Inten    --     51.0351                 5.0143                30.2258

                     79                     80                     81
                      A                      A                      A
 Frequencies --   3031.4615              3033.5271              3056.6347
 Red. masses --      1.1018                 1.0587                 1.1051
 Frc consts  --      5.9657                 5.7399                 6.0833
 IR Inten    --      0.1792                42.4292                36.0267

                     82                     83                     84
                      A                      A                      A
 Frequencies --   3079.6130              3080.6870              3107.9619
 Red. masses --      1.1052                 1.1000                 1.0962
 Frc consts  --      6.1756                 6.1509                 6.2389
 IR Inten    --     66.7285                24.6830                12.8210

                     85                     86                     87
                      A                      A                      A
 Frequencies --   3112.3624              3131.0192              3489.9855
 Red. masses --      1.0888                 1.0900                 1.0756
 Frc consts  --      6.2138                 6.2958                 7.7185
 IR Inten    --     12.8841                38.4840                11.3326

 - Thermochemistry -
 -------------------
 Temperature   298.150 Kelvin.  Pressure   1.00000 Atm.
 Atom     1 has atomic number  6 and mass  12.00000

 Molecular mass:   186.13683 amu.
 Principal axes and moments of inertia in atomic units:
                           1         2         3
     Eigenvalues --   295.88819********************
           X            0.99999  -0.00525   0.00000
           Y            0.00525   0.99999   0.00000
           Z           -0.00000  -0.00000   1.00000
 This molecule is an asymmetric top.
 Rotational symmetry number  1.
 Rotational temperatures (Kelvin)      0.29273     0.00623     0.00613
 Rotational constants (GHZ):           6.09940     0.12983     0.12783
    3 imaginary frequencies ignored.
 Zero-point vibrational energy     701701.7 (Joules/Mol)
                                  167.71072 (Kcal/Mol)
 Warning -- explicit consideration of  19 degrees of freedom as
           vibrations may cause significant error
 Vibrational temperatures:     31.67    47.88    55.99   101.78   122.90
          (Kelvin)            129.43   170.37   196.55   227.79   235.90
                              281.06   365.61   379.81   518.51   542.49
                              679.30   723.48   793.73   875.50   985.80
                             1022.05  1072.99  1130.91  1228.60  1361.55
                             1394.90  1444.69  1449.44  1453.30  1505.64
                             1515.58  1532.98  1558.75  1563.30  1616.77
                             1628.13  1632.12  1646.15  1716.34  1736.55
                             1747.25  1776.48  1785.80  1824.58  1855.05
                             1885.80  1905.78  1918.65  1919.82  1937.10
                             1981.38  1998.75  2020.54  2027.21  2050.46
                             2125.73  2128.80  2138.32  2146.70  2146.83
                             2150.44  2171.52  2194.74  2236.80  2287.72
                             2494.85  4248.02  4266.79  4290.55  4304.89
                             4319.01  4320.94  4336.41  4348.25  4359.30
                             4361.60  4364.57  4397.82  4430.88  4432.42
                             4471.66  4478.00  4504.84  5021.31

 Zero-point correction=                           0.267264 (Hartree/Particle)
 Thermal correction to Energy=                    0.281787
 Thermal correction to Enthalpy=                  0.282731
 Thermal correction to Gibbs Free Energy=         0.222417
 Sum of electronic and zero-point Energies=           -613.413741
 Sum of electronic and thermal Energies=              -613.399218
 Sum of electronic and thermal Enthalpies=            -613.398274
 Sum of electronic and thermal Free Energies=         -613.458588

                     E (Thermal)             CV                S
                      KCal/Mol        Cal/Mol-Kelvin    Cal/Mol-Kelvin
 Total                  176.824             49.964            126.942
 Electronic               0.000              0.000              0.000
 Translational            0.889              2.981             41.570
 Rotational               0.889              2.981             32.429
 Vibrational            175.046             44.002             52.943
 Vibration     1          0.593              1.985              6.444
 Vibration     2          0.594              1.983              5.624
 Vibration     3          0.594              1.981              5.314
 Vibration     4          0.598              1.968              4.133
 Vibration     5          0.601              1.959              3.762
 Vibration     6          0.602              1.956              3.661
 Vibration     7          0.609              1.934              3.126
 Vibration     8          0.614              1.917              2.851
 Vibration     9          0.621              1.893              2.570
 Vibration    10          0.623              1.887              2.504
 Vibration    11          0.636              1.846              2.176
 Vibration    12          0.665              1.756              1.702
 Vibration    13          0.671              1.739              1.635
 Vibration    14          0.735              1.554              1.120
 Vibration    15          0.748              1.519              1.051
 Vibration    16          0.829              1.312              0.732
 Vibration    17          0.858              1.244              0.651
 Vibration    18          0.907              1.136              0.541
 Vibration    19          0.967              1.014              0.435

 Optimization completed.
    -- Stationary point found.
 Normal termination of Gaussian 16 at Mon May 22 18:31:14 2023.
