 Gaussian 16, Revision A.03,
 Gaussian 16:  ES64L-G16RevA.03 25-Dec-2016

 -----------------------------
 # opt freq b3lyp/6-31g(2df,p)
 -----------------------------

 -------------------
 Title Card Required
 -------------------
 Symbolic Z-matrix:
 Charge =  0 Multiplicity = 1

 SCF Done:  E(RB3LYP) =  -574.977094609     A.U. after   26 cycles
 SCF Done:  E(RB3LYP) =  -575.068902605     A.U. after   18 cycles
 SCF Done:  E(RB3LYP) =  -575.159980524     A.U. after   20 cycles
 SCF Done:  E(RB3LYP) =  -575.254428203     A.U. after   16 cycles
 SCF Done:  E(RB3LYP) =  -575.334017173     A.U. after   15 cycles
 SCF Done:  E(RB3LYP) =  -575.389083629     A.U. after   15 cycles
 SCF Done:  E(RB3LYP) =  -575.435339210     A.U. after   14 cycles
 SCF Done:  E(RB3LYP) =  -575.496125928     A.U. after   14 cycles
 SCF Done:  E(RB3LYP) =  -575.514539861     A.U. after   13 cycles
 SCF Done:  E(RB3LYP) =  -575.523996338     A.U. after   13 cycles
 SCF Done:  E(RB3LYP) =  -575.535524496     A.U. after   12 cycles
 SCF Done:  E(RB3LYP) =  -575.535513883     A.U. after   10 cycles
 SCF Done:  E(RB3LYP) =  -575.535528504     A.U. after   10 cycles
 SCF Done:  E(RB3LYP) =  -575.535500540     A.U. after   11 cycles
 SCF Done:  E(RB3LYP) =  -575.535532239     A.U. after   11 cycles
 SCF Done:  E(RB3LYP) =  -575.535519671     A.U. after   10 cycles
 SCF Done:  E(RB3LYP) =  -575.535532603     A.U. after   10 cycles
 SCF Done:  E(RB3LYP) =  -575.535531695     A.U. after    9 cycles
 SCF Done:  E(RB3LYP) =  -575.535532941     A.U. after    9 cycles
 Optimization completed.
    -- Stationary point found.
 Normal termination of Gaussian 16 at Wed May 24 12:17:09 2023.

 ----------------------------------------------------------------------
 #N Geom=AllCheck Guess=TCheck SCRF=Check GenChk RB3LYP/6-31G(2df,p) Fr
 eq
 ----------------------------------------------------------------------

 Structure from the checkpoint file:  "CCdC1CdCdCCdCCdC1CqdOrO.chk"
 -------------------
 Title Card Required
 -------------------
 Charge =  0 Multiplicity = 1

                         Standard orientation:
 ---------------------------------------------------------------------
 Center     Atomic      Atomic             Coordinates (Angstroms)
 Number     Number       Type             X           Y           Z
 ---------------------------------------------------------------------
      1          6           0        3.396204   -0.046478   -0.607786
      2          6           0        2.435902   -1.030937   -0.023863
      3          6           0        1.104890   -0.901064    0.021006
      4          6           0        0.185618   -1.970182    0.541248
      5          6           0       -1.044276   -1.625989    0.859983
      6          6           0       -2.168204   -0.941812    0.931114
      7          6           0       -2.814124   -0.282469   -0.228915
      8          6           0       -2.130666    0.232505   -1.281354
      9          6           0       -0.688439   -0.080027   -1.350659
     10          6           0        0.256213    0.244727   -0.441040
     11          6           0        0.291052    1.498538    0.379986
     12          8           0        1.278424    1.827917    0.987689
     13          8           0       -0.798464    2.297020    0.376964
     14          1           0        4.033229   -0.523704   -1.363200
     15          1           0        4.063699    0.342164    0.170625
     16          1           0        2.882603    0.803173   -1.059516
     17          1           0        2.871010   -1.935578    0.399650
     18          1           0        0.530595   -3.000825    0.550814
     19          1           0       -2.598764   -0.712234    1.905910
     20          1           0       -3.891934   -0.140856   -0.183471
     21          1           0       -2.668409    0.693280   -2.106373
     22          1           0       -0.470445   -0.957221   -1.962929
     23          1           0       -1.536299    1.851433   -0.067058
 ---------------------------------------------------------------------

 SCF Done:  E(RB3LYP) =  -575.535532941     A.U. after    1 cycles

 The electronic state is 1-A.
 Alpha  occ. eigenvalues --  -19.16950 -19.11169 -10.30009 -10.22776 -10.22113
 Alpha  occ. eigenvalues --  -10.21377 -10.21214 -10.20910 -10.20857 -10.20784
 Alpha  occ. eigenvalues --  -10.20515 -10.19550 -10.17868  -1.08531  -1.00318
 Alpha  occ. eigenvalues --   -0.86918  -0.82088  -0.79128  -0.76393  -0.71142
 Alpha  occ. eigenvalues --   -0.68151  -0.63856  -0.60366  -0.58608  -0.55228
 Alpha  occ. eigenvalues --   -0.52523  -0.50784  -0.48274  -0.47295  -0.45904
 Alpha  occ. eigenvalues --   -0.44115  -0.43076  -0.42451  -0.41746  -0.40983
 Alpha  occ. eigenvalues --   -0.39377  -0.38452  -0.37566  -0.34599  -0.32455
 Alpha  occ. eigenvalues --   -0.30792  -0.30176  -0.27544  -0.26250  -0.25134
 Alpha  occ. eigenvalues --   -0.21417
 Alpha virt. eigenvalues --   -0.06985  -0.05005  -0.02341   0.04107   0.05330
 Alpha virt. eigenvalues --    0.08524   0.10497   0.11566   0.13075   0.13172
 Alpha virt. eigenvalues --    0.13911   0.14836   0.16109   0.16253   0.17540

 Mulliken charges:
               1
     1  C   -0.432156
     2  C   -0.132197
     3  C    0.282954
     4  C   -0.331574
     5  C    0.284881
     6  C   -0.288328
     7  C   -0.021883
     8  C   -0.227653
     9  C   -0.145281
    10  C   -0.060572
    11  C    0.384027
    12  O   -0.327804
    13  O   -0.380859
    14  H    0.118499
    15  H    0.144631
    16  H    0.132974
    17  H    0.089871
    18  H    0.122626
    19  H    0.128995
    20  H    0.116665
    21  H    0.119811
    22  H    0.125039
    23  H    0.297333
 Sum of Mulliken charges =  -0.00000

 Dipole moment (field-independent basis, Debye):
    X=             -2.2727    Y=             -2.9355    Z=             -2.2765  Tot=              4.3549
 Quadrupole moment (field-independent basis, Debye-Ang):
   XX=            -64.6631   YY=            -80.3762   ZZ=            -74.4231
   XY=             -6.2002   XZ=             -1.1409   YZ=             -4.5110

  Exact polarizability: 181.858  -7.747 102.660  -0.270  -5.266  92.707
 Approx polarizability: 309.197 -11.638 166.298   6.370  -8.727 169.905

                      1                      2                      3
                      A                      A                      A
 Frequencies --     58.2233                73.0707               113.7157
 Red. masses --      7.2850                 4.1766                 2.6007
 Frc consts  --      0.0146                 0.0131                 0.0198
 IR Inten    --      4.2836                 0.7224                 1.0522

                      4                      5                      6
                      A                      A                      A
 Frequencies --    126.3445               167.2472               192.4771
 Red. masses --      2.0385                 1.9837                 4.7753
 Frc consts  --      0.0192                 0.0327                 0.1042
 IR Inten    --      1.1146                 1.4400                 2.6981

                      7                      8                      9
                      A                      A                      A
 Frequencies --    223.9843               265.9023               300.6474
 Red. masses --      2.9067                 3.2479                 4.1282
 Frc consts  --      0.0859                 0.1353                 0.2198
 IR Inten    --      0.2216                 1.4647                 8.8034

                     10                     11                     12
                      A                      A                      A
 Frequencies --    339.4711               353.7225               424.5633
 Red. masses --      4.1288                 3.2615                 4.2229
 Frc consts  --      0.2803                 0.2404                 0.4485
 IR Inten    --      4.8217                 1.8617                 0.5746

                     13                     14                     15
                      A                      A                      A
 Frequencies --    450.6104               470.7201               504.5892
 Red. masses --      4.3885                 3.4248                 5.0701
 Frc consts  --      0.5250                 0.4471                 0.7606
 IR Inten    --      1.3678                 9.6285                 1.0644

                     16                     17                     18
                      A                      A                      A
 Frequencies --    545.9634               561.4696               593.9143
 Red. masses --      4.0423                 1.3517                 2.7057
 Frc consts  --      0.7099                 0.2511                 0.5623
 IR Inten    --      9.7436                32.5189                 4.1304

                     19                     20                     21
                      A                      A                      A
 Frequencies --    639.9229               685.1037               709.0269
 Red. masses --      3.7480                 3.5154                 2.3156
 Frc consts  --      0.9043                 0.9722                 0.6859
 IR Inten    --     17.2797                 8.4313                39.1363

                     22                     23                     24
                      A                      A                      A
 Frequencies --    761.6193               794.7309               827.4326
 Red. masses --      4.2907                 2.3799                 2.5949
 Frc consts  --      1.4664                 0.8856                 1.0467
 IR Inten    --      6.2315                 6.5220                17.3724

                     25                     26                     27
                      A                      A                      A
 Frequencies --    840.1733               868.5388               883.3949
 Red. masses --      3.5650                 1.2605                 1.9063
 Frc consts  --      1.4827                 0.5602                 0.8765
 IR Inten    --      7.3656                 8.4116                 9.9274

                     28                     29                     30
                      A                      A                      A
 Frequencies --    898.0930               923.6684               933.8811
 Red. masses --      1.6723                 2.1083                 2.2127
 Frc consts  --      0.7947                 1.0598                 1.1370
 IR Inten    --     31.3142                 5.5269                22.4540

                     31                     32                     33
                      A                      A                      A
 Frequencies --    997.1684              1024.7291              1043.9432
 Red. masses --      1.4002                 3.0649                 2.8858
 Frc consts  --      0.8203                 1.8962                 1.8530
 IR Inten    --     11.3309                 4.4196                 7.7195

                     34                     35                     36
                      A                      A                      A
 Frequencies --   1061.5231              1082.2106              1120.8444
 Red. masses --      1.5662                 3.0067                 1.5048
 Frc consts  --      1.0398                 2.0748                 1.1139
 IR Inten    --      1.8132                 5.8408                 0.3160

                     37                     38                     39
                      A                      A                      A
 Frequencies --   1177.0141              1196.6513              1216.5877
 Red. masses --      2.6619                 1.1208                 2.1572
 Frc consts  --      2.1727                 0.9456                 1.8812
 IR Inten    --     17.3335                 1.7924                23.9838

                     40                     41                     42
                      A                      A                      A
 Frequencies --   1268.7003              1323.5574              1361.7298
 Red. masses --      1.2835                 1.2883                 1.4732
 Frc consts  --      1.2172                 1.3297                 1.6095
 IR Inten    --      0.9247               169.6630                25.3064

                     43                     44                     45
                      A                      A                      A
 Frequencies --   1385.9630              1393.1968              1407.3233
 Red. masses --      1.8314                 1.6490                 1.3721
 Frc consts  --      2.0727                 1.8858                 1.6011
 IR Inten    --     97.4198                26.1100                 3.7017

                     46                     47                     48
                      A                      A                      A
 Frequencies --   1421.8018              1467.9592              1479.6550
 Red. masses --      2.1303                 1.0449                 1.0728
 Frc consts  --      2.5373                 1.3267                 1.3838
 IR Inten    --      0.1691                 4.6122                 8.7868

                     49                     50                     51
                      A                      A                      A
 Frequencies --   1585.3399              1624.9185              1711.5048
 Red. masses --      6.0773                 8.4131                 7.3857
 Frc consts  --      8.9992                13.0878                12.7467
 IR Inten    --      4.9152                10.7749                14.9670

                     52                     53                     54
                      A                      A                      A
 Frequencies --   1816.6465              1955.5957              3023.1527
 Red. masses --     10.1919                10.5034                 1.0406
 Frc consts  --     19.8175                23.6666                 5.6036
 IR Inten    --    224.6511                26.4569                28.6579

                     55                     56                     57
                      A                      A                      A
 Frequencies --   3071.5801              3092.9470              3114.6346
 Red. masses --      1.0973                 1.0851                 1.0851
 Frc consts  --      6.0995                 6.1161                 6.2022
 IR Inten    --     12.8254                 5.7765                 6.6249

                     58                     59                     60
                      A                      A                      A
 Frequencies --   3127.8431              3145.0200              3145.3923
 Red. masses --      1.0894                 1.0949                 1.0839
 Frc consts  --      6.2793                 6.3806                 6.3181
 IR Inten    --      3.6942                20.7654                 5.0572

                     61                     62                     63
                      A                      A                      A
 Frequencies --   3156.2357              3165.1967              3677.1253
 Red. masses --      1.0895                 1.0949                 1.0658
 Frc consts  --      6.3949                 6.4627                 8.4909
 IR Inten    --      6.9938                32.6193               124.9641

 - Thermochemistry -
 -------------------
 Temperature   298.150 Kelvin.  Pressure   1.00000 Atm.
 Atom     1 has atomic number  6 and mass  12.00000

 Molecular mass:   174.06808 amu.
 Principal axes and moments of inertia in atomic units:
                           1         2         3
     Eigenvalues --  1444.565352415.235273097.11439
           X            0.99959  -0.02751  -0.00846
           Y            0.02736   0.99947  -0.01760
           Z            0.00894   0.01736   0.99981
 This molecule is an asymmetric top.
 Rotational symmetry number  1.
 Warning -- assumption of classical behavior for rotation
           may cause significant error
 Rotational temperatures (Kelvin)      0.05996     0.03586     0.02797
 Rotational constants (GHZ):           1.24933     0.74723     0.58272
 Zero-point vibrational energy     468792.1 (Joules/Mol)
                                  112.04399 (Kcal/Mol)
 Warning -- explicit consideration of  18 degrees of freedom as
           vibrations may cause significant error
 Vibrational temperatures:     83.77   105.13   163.61   181.78   240.63
          (Kelvin)            276.93   322.26   382.57   432.56   488.42
                              508.93   610.85   648.33   677.26   725.99
                              785.52   807.83   854.51   920.71   985.71
                             1020.13  1095.80  1143.44  1190.49  1208.82
                             1249.63  1271.01  1292.16  1328.95  1343.65
                             1434.70  1474.36  1502.00  1527.30  1557.06
                             1612.65  1693.46  1721.71  1750.40  1825.38
                             1904.30  1959.23  1994.09  2004.50  2024.82
                             2045.66  2112.07  2128.89  2280.95  2337.90
                             2462.47  2613.75  2813.67  4349.64  4419.32
                             4450.06  4481.26  4500.27  4524.98  4525.52
                             4541.12  4554.01  5290.56

 Zero-point correction=                           0.178553 (Hartree/Particle)
 Thermal correction to Energy=                    0.190524
 Thermal correction to Enthalpy=                  0.191469
 Thermal correction to Gibbs Free Energy=         0.140724
 Sum of electronic and zero-point Energies=           -575.356979
 Sum of electronic and thermal Energies=              -575.345009
 Sum of electronic and thermal Enthalpies=            -575.344064
 Sum of electronic and thermal Free Energies=         -575.394809

                     E (Thermal)             CV                S
                      KCal/Mol        Cal/Mol-Kelvin    Cal/Mol-Kelvin
 Total                  119.556             45.939            106.801
 Electronic               0.000              0.000              0.000
 Translational            0.889              2.981             41.370
 Rotational               0.889              2.981             30.758
 Vibrational            117.778             39.978             34.673
 Vibration     1          0.596              1.974              4.517
 Vibration     2          0.599              1.967              4.069
 Vibration     3          0.607              1.938              3.204
 Vibration     4          0.611              1.927              3.001
 Vibration     5          0.624              1.883              2.466
 Vibration     6          0.634              1.850              2.204
 Vibration     7          0.649              1.805              1.927
 Vibration     8          0.672              1.736              1.623
 Vibration     9          0.693              1.672              1.413
 Vibration    10          0.719              1.597              1.215
 Vibration    11          0.730              1.568              1.150
 Vibration    12          0.787              1.417              0.877
 Vibration    13          0.809              1.360              0.794
 Vibration    14          0.828              1.315              0.736
 Vibration    15          0.860              1.240              0.647
 Vibration    16          0.901              1.149              0.553
 Vibration    17          0.917              1.115              0.521
 Vibration    18          0.952              1.045              0.460

 Optimization completed.
    -- Stationary point found.
 Normal termination of Gaussian 16 at Wed May 24 13:39:13 2023.
