 Gaussian 16, Revision A.03,
 Gaussian 16:  ES64L-G16RevA.03 25-Dec-2016

 -----------------------------
 # opt freq b3lyp/6-31g(2df,p)
 -----------------------------

 -------------------
 Title Card Required
 -------------------
 Symbolic Z-matrix:
 Charge =  0 Multiplicity = 1

 SCF Done:  E(RB3LYP) =  -586.268360416     A.U. after   13 cycles
 SCF Done:  E(RB3LYP) =  -586.275939585     A.U. after   11 cycles
 SCF Done:  E(RB3LYP) =  -586.278871083     A.U. after   10 cycles
 SCF Done:  E(RB3LYP) =  -586.281297558     A.U. after   11 cycles
 SCF Done:  E(RB3LYP) =  -586.282552195     A.U. after   11 cycles
 SCF Done:  E(RB3LYP) =  -586.285166225     A.U. after   13 cycles
 SCF Done:  E(RB3LYP) =  -586.286037475     A.U. after   11 cycles
 SCF Done:  E(RB3LYP) =  -586.285057270     A.U. after   13 cycles
 SCF Done:  E(RB3LYP) =  -586.286623075     A.U. after   11 cycles
 SCF Done:  E(RB3LYP) =  -586.286539942     A.U. after   10 cycles
 SCF Done:  E(RB3LYP) =  -586.286846860     A.U. after    9 cycles
 SCF Done:  E(RB3LYP) =  -586.286895964     A.U. after    9 cycles
 SCF Done:  E(RB3LYP) =  -586.286878476     A.U. after    9 cycles
 SCF Done:  E(RB3LYP) =  -586.286898097     A.U. after    9 cycles
 SCF Done:  E(RB3LYP) =  -586.286898628     A.U. after    7 cycles
 SCF Done:  E(RB3LYP) =  -586.286898962     A.U. after    8 cycles
 SCF Done:  E(RB3LYP) =  -586.286899095     A.U. after    6 cycles
 SCF Done:  E(RB3LYP) =  -586.286899160     A.U. after    6 cycles
 SCF Done:  E(RB3LYP) =  -586.286899170     A.U. after    6 cycles
 Optimization completed.
    -- Stationary point found.
 Normal termination of Gaussian 16 at Tue May 23 04:36:48 2023.

 ----------------------------------------------------------------------
 #N Geom=AllCheck Guess=TCheck SCRF=Check GenChk RB3LYP/6-31G(2df,p) Fr
 eq
 ----------------------------------------------------------------------

 Structure from the checkpoint file:  "CCdCCCqCCCrCqCrCCOC.chk"
 -------------------
 Title Card Required
 -------------------
 Charge =  0 Multiplicity = 1

                         Standard orientation:
 ---------------------------------------------------------------------
 Center     Atomic      Atomic             Coordinates (Angstroms)
 Number     Number       Type             X           Y           Z
 ---------------------------------------------------------------------
      1          6           0       -5.360405   -1.188743   -0.350726
      2          6           0       -4.093383   -0.883409    0.392127
      3          6           0       -2.863548   -1.163522   -0.034561
      4          6           0       -1.585360   -0.902648    0.713942
      5          6           0       -0.475824   -0.164708   -0.095382
      6          6           0       -0.529172    1.358547    0.138840
      7          6           0       -1.855781    2.039469   -0.223987
      8          6           0       -1.788790    3.561559   -0.064143
      9          6           0        0.917807   -0.793887    0.218040
     10          6           0        1.023715   -2.189196   -0.425758
     11          6           0        2.107367    0.087596   -0.207221
     12          6           0        3.475793   -0.517362    0.092077
     13          8           0        4.451914    0.479468   -0.132713
     14          6           0        5.762453    0.021243    0.086262
     15          1           0       -6.015848   -1.848720    0.231711
     16          1           0       -5.156316   -1.675851   -1.308926
     17          1           0       -5.936753   -0.276311   -0.549706
     18          1           0       -4.213774   -0.393677    1.359248
     19          1           0       -2.746562   -1.654811   -1.002327
     20          1           0       -1.191022   -1.871668    1.046566
     21          1           0       -1.800173   -0.343590    1.633182
     22          1           0       -0.666098   -0.335411   -1.166013
     23          1           0        0.258619    1.842143   -0.448652
     24          1           0       -0.292687    1.568598    1.193002
     25          1           0       -2.670311    1.644362    0.390529
     26          1           0       -2.118072    1.790611   -1.260799
     27          1           0       -1.556715    3.841630    0.969809
     28          1           0       -2.740036    4.033553   -0.329964
     29          1           0       -1.011350    3.995401   -0.703256
     30          1           0        0.977981   -0.915587    1.310768
     31          1           0        1.114286   -2.101072   -1.515326
     32          1           0        0.145615   -2.807215   -0.219386
     33          1           0        1.895562   -2.741367   -0.063584
     34          1           0        2.074113    1.047853    0.314238
     35          1           0        2.048058    0.309948   -1.281039
     36          1           0        3.681336   -1.392436   -0.545075
     37          1           0        3.520327   -0.865408    1.140399
     38          1           0        6.440375    0.855471   -0.111604
     39          1           0        6.023501   -0.814196   -0.583682
     40          1           0        5.911395   -0.317625    1.124532
 ---------------------------------------------------------------------

 SCF Done:  E(RB3LYP) =  -586.286899170     A.U. after    1 cycles

 The electronic state is 1-A.
 Alpha  occ. eigenvalues --  -19.13339 -10.22057 -10.21959 -10.18499 -10.18161
 Alpha  occ. eigenvalues --  -10.17685 -10.17638 -10.17542 -10.17338 -10.17201
 Alpha  occ. eigenvalues --  -10.17085 -10.16962 -10.16939 -10.16594  -1.02679
 Alpha  occ. eigenvalues --   -0.82589  -0.79012  -0.77534  -0.74620  -0.71921
 Alpha  occ. eigenvalues --   -0.69515  -0.66686  -0.64548  -0.62339  -0.59017
 Alpha  occ. eigenvalues --   -0.57156  -0.55104  -0.53947  -0.48483  -0.47580
 Alpha  occ. eigenvalues --   -0.46481  -0.45238  -0.44397  -0.44127  -0.43328
 Alpha  occ. eigenvalues --   -0.41865  -0.41039  -0.40467  -0.40173  -0.39258
 Alpha  occ. eigenvalues --   -0.38154  -0.37271  -0.36266  -0.35970  -0.35624
 Alpha  occ. eigenvalues --   -0.34593  -0.34026  -0.33364  -0.32764  -0.31966
 Alpha  occ. eigenvalues --   -0.31118  -0.30918  -0.30623  -0.29279  -0.24961
 Alpha  occ. eigenvalues --   -0.23332
 Alpha virt. eigenvalues --    0.03034   0.08790   0.09507   0.09824   0.10653
 Alpha virt. eigenvalues --    0.11586   0.12431   0.12874   0.13616   0.14098
 Alpha virt. eigenvalues --    0.14624   0.14876   0.15350   0.15626   0.16399

 Mulliken charges:
               1
     1  C   -0.425126
     2  C   -0.036577
     3  C   -0.017906
     4  C   -0.257884
     5  C    0.023035
     6  C   -0.185675
     7  C   -0.176591
     8  C   -0.380611
     9  C    0.009409
    10  C   -0.401518
    11  C   -0.216814
    12  C   -0.066632
    13  O   -0.231290
    14  C   -0.226094
    15  H    0.122314
    16  H    0.116896
    17  H    0.123075
    18  H    0.074673
    19  H    0.073817
    20  H    0.103918
    21  H    0.090930
    22  H    0.062689
    23  H    0.098439
    24  H    0.086339
    25  H    0.103400
    26  H    0.091558
    27  H    0.110726
    28  H    0.107928
    29  H    0.111953
    30  H    0.067942
    31  H    0.112435
    32  H    0.113443
    33  H    0.115853
    34  H    0.112397
    35  H    0.098812
    36  H    0.085333
    37  H    0.080388
    38  H    0.124467
    39  H    0.100371
    40  H    0.100179
 Sum of Mulliken charges =  -0.00000

 Dipole moment (field-independent basis, Debye):
    X=              0.0213    Y=             -1.0229    Z=              0.2892  Tot=              1.0632
 Quadrupole moment (field-independent basis, Debye-Ang):
   XX=            -85.8917   YY=            -93.1220   ZZ=            -90.0539
   XY=             -3.6950   XZ=              1.1224   YZ=              0.7863

  Exact polarizability: 197.110  -0.962 138.508  -0.561   3.181 119.148
 Approx polarizability: 230.555  -3.846 189.704  -5.846   5.021 194.228

                      1                      2                      3
                      A                      A                      A
 Frequencies --     19.1506                45.1701                58.7721
 Red. masses --      3.2992                 3.4593                 2.2871
 Frc consts  --      0.0007                 0.0042                 0.0047
 IR Inten    --      0.0198                 0.0456                 1.1405

                      4                      5                      6
                      A                      A                      A
 Frequencies --     72.6985                82.2498                87.3025
 Red. masses --      2.0574                 3.0287                 1.6851
 Frc consts  --      0.0064                 0.0121                 0.0076
 IR Inten    --      0.8623                 0.2714                 0.3650

                      7                      8                      9
                      A                      A                      A
 Frequencies --     95.6221               105.2700               137.4871
 Red. masses --      2.0291                 2.2616                 2.3456
 Frc consts  --      0.0109                 0.0148                 0.0261
 IR Inten    --      1.1163                 0.3548                 0.3712

                     10                     11                     12
                      A                      A                      A
 Frequencies --    159.7633               163.4207               214.8699
 Red. masses --      2.3539                 2.2517                 1.5452
 Frc consts  --      0.0354                 0.0354                 0.0420
 IR Inten    --      0.2939                 0.0966                 1.5332

                     13                     14                     15
                      A                      A                      A
 Frequencies --    217.9760               230.6045               236.5665
 Red. masses --      2.1212                 1.2083                 1.9421
 Frc consts  --      0.0594                 0.0379                 0.0640
 IR Inten    --      0.0862                 1.1804                 0.7058

                     16                     17                     18
                      A                      A                      A
 Frequencies --    244.6202               251.7209               279.3843
 Red. masses --      1.7729                 1.1994                 2.4267
 Frc consts  --      0.0625                 0.0448                 0.1116
 IR Inten    --      1.2978                 0.2603                 1.3363

                     19                     20                     21
                      A                      A                      A
 Frequencies --    302.4832               331.3980               352.0303
 Red. masses --      2.6256                 3.0653                 2.6456
 Frc consts  --      0.1415                 0.1983                 0.1932
 IR Inten    --      0.6784                 1.1155                 1.1776

                     22                     23                     24
                      A                      A                      A
 Frequencies --    370.1687               435.0076               481.4479
 Red. masses --      2.2762                 2.7294                 2.5325
 Frc consts  --      0.1838                 0.3043                 0.3459
 IR Inten    --      0.3516                 0.6819                 0.4395

                     25                     26                     27
                      A                      A                      A
 Frequencies --    512.0479               536.1889               561.4120
 Red. masses --      2.5899                 2.6664                 2.4811
 Frc consts  --      0.4001                 0.4517                 0.4607
 IR Inten    --      0.4295                 1.3685                 0.1528

                     28                     29                     30
                      A                      A                      A
 Frequencies --    747.7336               761.5161               803.6950
 Red. masses --      1.1197                 1.4624                 1.2894
 Frc consts  --      0.3689                 0.4996                 0.4907
 IR Inten    --      1.8511                 1.1998                 0.1885

                     31                     32                     33
                      A                      A                      A
 Frequencies --    840.4114               866.6979               896.1217
 Red. masses --      1.6690                 1.7695                 1.7256
 Frc consts  --      0.6945                 0.7831                 0.8165
 IR Inten    --      0.4712                 2.0423                 0.3763

                     34                     35                     36
                      A                      A                      A
 Frequencies --    910.0704               928.6368               942.7658
 Red. masses --      1.9308                 2.0977                 1.5484
 Frc consts  --      0.9422                 1.0658                 0.8108
 IR Inten    --      0.8299                 8.5857                 2.7193

                     37                     38                     39
                      A                      A                      A
 Frequencies --    971.3802               981.5910               998.0907
 Red. masses --      1.2687                 3.2545                 1.8076
 Frc consts  --      0.7053                 1.8475                 1.0609
 IR Inten    --      0.4023                17.3023                 8.6268

                     40                     41                     42
                      A                      A                      A
 Frequencies --   1018.4689              1030.7026              1054.7922
 Red. masses --      1.1700                 2.7417                 2.7832
 Frc consts  --      0.7150                 1.7161                 1.8244
 IR Inten    --     17.4535                 2.4076                 1.5570

                     43                     44                     45
                      A                      A                      A
 Frequencies --   1064.4950              1068.9491              1070.4228
 Red. masses --      2.3397                 1.5390                 1.6624
 Frc consts  --      1.5621                 1.0361                 1.1223
 IR Inten    --      5.2387                 0.5467                 1.8690

                     46                     47                     48
                      A                      A                      A
 Frequencies --   1088.9382              1099.0867              1126.0775
 Red. masses --      2.7649                 1.7533                 2.6081
 Frc consts  --      1.9317                 1.2479                 1.9485
 IR Inten    --      3.7395                 4.7522                 0.7028

                     49                     50                     51
                      A                      A                      A
 Frequencies --   1148.1887              1161.8212              1175.2506
 Red. masses --      2.1126                 5.3542                 1.6380
 Frc consts  --      1.6410                 4.2582                 1.3330
 IR Inten    --      4.8086               194.1508                 2.8918

                     52                     53                     54
                      A                      A                      A
 Frequencies --   1178.1220              1188.5241              1225.5615
 Red. masses --      2.2207                 1.5140                 1.5334
 Frc consts  --      1.8160                 1.2600                 1.3570
 IR Inten    --      2.7074                 3.3046                37.8173

                     55                     56                     57
                      A                      A                      A
 Frequencies --   1229.4026              1241.8216              1266.7134
 Red. masses --      1.4094                 1.3192                 1.3235
 Frc consts  --      1.2551                 1.1987                 1.2512
 IR Inten    --      2.0813                 4.2846                 6.0328

                     58                     59                     60
                      A                      A                      A
 Frequencies --   1280.4340              1302.8360              1315.8169
 Red. masses --      1.2354                 1.2562                 1.1666
 Frc consts  --      1.1934                 1.2563                 1.1901
 IR Inten    --      0.3338                 6.6627                 0.4186

                     61                     62                     63
                      A                      A                      A
 Frequencies --   1320.0510              1330.7910              1335.4603
 Red. masses --      1.2086                 1.2285                 1.2177
 Frc consts  --      1.2408                 1.2818                 1.2795
 IR Inten    --      2.5014                 3.2544                 1.1974

                     64                     65                     66
                      A                      A                      A
 Frequencies --   1336.5207              1356.6215              1371.6622
 Red. masses --      1.2728                 1.2398                 1.3845
 Frc consts  --      1.3396                 1.3444                 1.5348
 IR Inten    --      0.4222                 1.3133                 2.3126

                     67                     68                     69
                      A                      A                      A
 Frequencies --   1374.4685              1379.3869              1401.5202
 Red. masses --      1.3660                 1.3634                 1.4734
 Frc consts  --      1.5205                 1.5284                 1.7052
 IR Inten    --      0.8623                 0.6543                 7.4831

                     70                     71                     72
                      A                      A                      A
 Frequencies --   1411.4249              1412.7461              1413.8414
 Red. masses --      1.2319                 1.2576                 1.2415
 Frc consts  --      1.4459                 1.4789                 1.4622
 IR Inten    --      3.7674                 2.2716                 2.4875

                     73                     74                     75
                      A                      A                      A
 Frequencies --   1426.4007              1473.5844              1480.1434
 Red. masses --      1.3762                 1.0795                 1.0450
 Frc consts  --      1.6498                 1.3811                 1.3488
 IR Inten    --     35.3768                 2.1337                 4.9089

                     76                     77                     78
                      A                      A                      A
 Frequencies --   1481.2173              1483.2159              1485.0746
 Red. masses --      1.1642                 1.0680                 1.0474
 Frc consts  --      1.5050                 1.3843                 1.3610
 IR Inten    --      1.0591                 2.8604                 5.0807

                     79                     80                     81
                      A                      A                      A
 Frequencies --   1489.2732              1493.1773              1494.0434
 Red. masses --      1.0774                 1.0522                 1.0712
 Frc consts  --      1.4079                 1.3823                 1.4088
 IR Inten    --      0.0493                 6.2986                 0.7602

                     82                     83                     84
                      A                      A                      A
 Frequencies --   1499.8117              1503.0916              1505.9462
 Red. masses --      1.0409                 1.0609                 1.0632
 Frc consts  --      1.3796                 1.4121                 1.4207
 IR Inten    --      5.0790                 0.2239                14.5519

                     85                     86                     87
                      A                      A                      A
 Frequencies --   1509.7828              1510.5487              1533.6909
 Red. masses --      1.0622                 1.0682                 1.0925
 Frc consts  --      1.4266                 1.4360                 1.5140
 IR Inten    --      5.5232                 4.0497                 0.4305

                     88                     89                     90
                      A                      A                      A
 Frequencies --   1743.4584              2936.3210              2963.5996
 Red. masses --      6.1310                 1.0620                 1.0413
 Frc consts  --     10.9801                 5.3949                 5.3887
 IR Inten    --      0.8485                37.7413                76.6844

                     91                     92                     93
                      A                      A                      A
 Frequencies --   2976.4846              2982.8456              2987.0654
 Red. masses --      1.0794                 1.0909                 1.0795
 Frc consts  --      5.6343                 5.7185                 5.6748
 IR Inten    --      1.8137                48.9488                10.4660

                     94                     95                     96
                      A                      A                      A
 Frequencies --   2998.5812              3004.2943              3013.8206
 Red. masses --      1.0702                 1.1028                 1.0618
 Frc consts  --      5.6698                 5.8647                 5.6822
 IR Inten    --     22.7813                59.0129                29.7962

                     97                     98                     99
                      A                      A                      A
 Frequencies --   3015.6435              3024.1256              3025.5857
 Red. masses --      1.0373                 1.0583                 1.0617
 Frc consts  --      5.5582                 5.7022                 5.7264
 IR Inten    --     41.6841                26.8077                19.6488

                    100                    101                    102
                      A                      A                      A
 Frequencies --   3026.5994              3031.4266              3047.7131
 Red. masses --      1.0455                 1.0442                 1.0985
 Frc consts  --      5.6425                 5.6539                 6.0115
 IR Inten    --     55.1500                26.1803                23.5767

                    103                    104                    105
                      A                      A                      A
 Frequencies --   3057.7817              3061.4438              3076.5371
 Red. masses --      1.0903                 1.0988                 1.0966
 Frc consts  --      6.0063                 6.0675                 6.1151
 IR Inten    --     19.3605                21.6699                 4.4352

                    106                    107                    108
                      A                      A                      A
 Frequencies --   3094.5214              3096.4780              3097.4019
 Red. masses --      1.0959                 1.1011                 1.0966
 Frc consts  --      6.1832                 6.2201                 6.1988
 IR Inten    --     31.1628                50.6510                25.3860

                    109                    110                    111
                      A                      A                      A
 Frequencies --   3099.7795              3101.2403              3108.8763
 Red. masses --      1.0963                 1.0991                 1.0970
 Frc consts  --      6.2063                 6.2283                 6.2471
 IR Inten    --      8.7051                52.5461                56.0632

                    112                    113                    114
                      A                      A                      A
 Frequencies --   3109.2470              3109.9915              3123.2673
 Red. masses --      1.0950                 1.0925                 1.0893
 Frc consts  --      6.2369                 6.2258                 6.2609
 IR Inten    --     16.7722                18.1100                48.9239

 - Thermochemistry -
 -------------------
 Temperature   298.150 Kelvin.  Pressure   1.00000 Atm.
 Atom     1 has atomic number  6 and mass  12.00000

 Molecular mass:   198.19837 amu.
 Principal axes and moments of inertia in atomic units:
                           1         2         3
     Eigenvalues --  1734.406077290.434788751.20981
           X            0.99996  -0.00897   0.00268
           Y            0.00896   0.99994   0.00579
           Z           -0.00274  -0.00577   0.99998
 This molecule is an asymmetric top.
 Rotational symmetry number  1.
 Warning -- assumption of classical behavior for rotation
           may cause significant error
 Rotational temperatures (Kelvin)      0.04994     0.01188     0.00990
 Rotational constants (GHZ):           1.04055     0.24755     0.20623
 Zero-point vibrational energy     964773.9 (Joules/Mol)
                                  230.58649 (Kcal/Mol)
 Warning -- explicit consideration of  27 degrees of freedom as
           vibrations may cause significant error
 Vibrational temperatures:     27.55    64.99    84.56   104.60   118.34
          (Kelvin)            125.61   137.58   151.46   197.81   229.86
                              235.13   309.15   313.62   331.79   340.37
                              351.95   362.17   401.97   435.21   476.81
                              506.49   532.59   625.88   692.70   736.72
                              771.46   807.75  1075.82  1095.65  1156.34
                             1209.16  1246.98  1289.32  1309.39  1336.10
                             1356.43  1397.60  1412.29  1436.03  1465.35
                             1482.95  1517.61  1531.57  1537.98  1540.10
                             1566.74  1581.34  1620.17  1651.99  1671.60
                             1690.92  1695.05  1710.02  1763.31  1768.84
                             1786.70  1822.52  1842.26  1874.49  1893.17
                             1899.26  1914.71  1921.43  1922.96  1951.88
                             1973.52  1977.55  1984.63  2016.48  2030.73
                             2032.63  2034.20  2052.27  2120.16  2129.60
                             2131.14  2134.02  2136.69  2142.73  2148.35
                             2149.60  2157.89  2162.61  2166.72  2172.24
                             2173.34  2206.64  2508.45  4224.71  4263.96
                             4282.50  4291.65  4297.72  4314.29  4322.51
                             4336.22  4338.84  4351.04  4353.14  4354.60
                             4361.55  4384.98  4399.47  4404.73  4426.45
                             4452.33  4455.14  4456.47  4459.89  4461.99
                             4472.98  4473.51  4474.58  4493.68

 Zero-point correction=                           0.367463 (Hartree/Particle)
 Thermal correction to Energy=                    0.386011
 Thermal correction to Enthalpy=                  0.386955
 Thermal correction to Gibbs Free Energy=         0.319604
 Sum of electronic and zero-point Energies=           -585.919436
 Sum of electronic and thermal Energies=              -585.900889
 Sum of electronic and thermal Enthalpies=            -585.899944
 Sum of electronic and thermal Free Energies=         -585.967295

                     E (Thermal)             CV                S
                      KCal/Mol        Cal/Mol-Kelvin    Cal/Mol-Kelvin
 Total                  242.225             66.411            141.752
 Electronic               0.000              0.000              0.000
 Translational            0.889              2.981             41.757
 Rotational               0.889              2.981             33.070
 Vibrational            240.448             60.450             66.925
 Vibration     1          0.593              1.986              6.720
 Vibration     2          0.595              1.979              5.018
 Vibration     3          0.596              1.974              4.498
 Vibration     4          0.599              1.967              4.079
 Vibration     5          0.600              1.961              3.836
 Vibration     6          0.601              1.958              3.720
 Vibration     7          0.603              1.952              3.542
 Vibration     8          0.605              1.945              3.354
 Vibration     9          0.614              1.916              2.839
 Vibration    10          0.622              1.892              2.553
 Vibration    11          0.623              1.887              2.510
 Vibration    12          0.645              1.818              2.002
 Vibration    13          0.646              1.814              1.976
 Vibration    14          0.652              1.794              1.874
 Vibration    15          0.655              1.785              1.829
 Vibration    16          0.660              1.772              1.769
 Vibration    17          0.664              1.760              1.718
 Vibration    18          0.680              1.712              1.537
 Vibration    19          0.694              1.669              1.403
 Vibration    20          0.714              1.613              1.253
 Vibration    21          0.729              1.571              1.157
 Vibration    22          0.742              1.533              1.079
 Vibration    23          0.796              1.394              0.842
 Vibration    24          0.838              1.291              0.706
 Vibration    25          0.867              1.223              0.629
 Vibration    26          0.891              1.170              0.574
 Vibration    27          0.917              1.115              0.521

 Optimization completed.
    -- Stationary point found.
 Normal termination of Gaussian 16 at Tue May 23 07:29:01 2023.
