 Gaussian 16, Revision A.03,
 Gaussian 16:  ES64L-G16RevA.03 25-Dec-2016

 -----------------------------
 # opt freq b3lyp/6-31g(2df,p)
 -----------------------------

 -------------------
 Title Card Required
 -------------------
 Symbolic Z-matrix:
 Charge =  0 Multiplicity = 1

 SCF Done:  E(RB3LYP) =  -626.548403768     A.U. after   13 cycles
 SCF Done:  E(RB3LYP) =  -626.560969265     A.U. after   12 cycles
 SCF Done:  E(RB3LYP) =  -626.564313437     A.U. after   11 cycles
 SCF Done:  E(RB3LYP) =  -626.565623434     A.U. after   11 cycles
 SCF Done:  E(RB3LYP) =  -626.566565980     A.U. after    9 cycles
 SCF Done:  E(RB3LYP) =  -626.568357220     A.U. after   11 cycles
 SCF Done:  E(RB3LYP) =  -626.568908289     A.U. after   11 cycles
 SCF Done:  E(RB3LYP) =  -626.569375714     A.U. after   11 cycles
 SCF Done:  E(RB3LYP) =  -626.569366486     A.U. after   11 cycles
 SCF Done:  E(RB3LYP) =  -626.571274900     A.U. after   10 cycles
 SCF Done:  E(RB3LYP) =  -626.580806600     A.U. after   10 cycles
 SCF Done:  E(RB3LYP) =  -626.581066876     A.U. after   11 cycles
 SCF Done:  E(RB3LYP) =  -626.581116129     A.U. after    9 cycles
 SCF Done:  E(RB3LYP) =  -626.581138587     A.U. after    9 cycles
 SCF Done:  E(RB3LYP) =  -626.581152426     A.U. after    9 cycles
 SCF Done:  E(RB3LYP) =  -626.581153394     A.U. after    7 cycles
 SCF Done:  E(RB3LYP) =  -626.581153803     A.U. after    7 cycles
 SCF Done:  E(RB3LYP) =  -626.581153940     A.U. after    6 cycles
 SCF Done:  E(RB3LYP) =  -626.581153995     A.U. after    6 cycles
 Optimization completed.
    -- Stationary point found.
 Normal termination of Gaussian 16 at Thu May 25 05:33:37 2023.

 ----------------------------------------------------------------------
 #N Geom=AllCheck Guess=TCheck SCRF=Check GenChk RB3LYP/6-31G(2df,p) Fr
 eq
 ----------------------------------------------------------------------

 Structure from the checkpoint file:  "CCdCCCCdC1CCCCCCCCC1.chk"
 -------------------
 Title Card Required
 -------------------
 Charge =  0 Multiplicity = 1

                         Standard orientation:
 ---------------------------------------------------------------------
 Center     Atomic      Atomic             Coordinates (Angstroms)
 Number     Number       Type             X           Y           Z
 ---------------------------------------------------------------------
      1          6           0        6.804364    0.398791   -0.396921
      2          6           0        5.498832   -0.053048    0.187558
      3          6           0        4.490580   -0.588038   -0.497933
      4          6           0        3.179186   -1.031174    0.083143
      5          6           0        1.971751   -0.259606   -0.502583
      6          6           0        0.655655   -0.787875   -0.003439
      7          6           0       -0.281543   -0.145204    0.704286
      8          6           0       -0.152399    1.305279    1.135877
      9          6           0       -0.760884    2.366023    0.179875
     10          6           0       -2.292295    2.329837    0.022775
     11          6           0       -2.812598    1.207378   -0.903443
     12          6           0       -4.164724    0.591436   -0.480383
     13          6           0       -4.331327   -0.898680   -0.839603
     14          6           0       -3.682548   -1.923644    0.117087
     15          6           0       -2.142204   -1.921511    0.205998
     16          6           0       -1.555942   -0.847515    1.156689
     17          1           0        6.979955    1.464853   -0.204382
     18          1           0        6.836215    0.240674   -1.479052
     19          1           0        7.649700   -0.140115    0.049530
     20          1           0        5.389773    0.072320    1.265430
     21          1           0        4.596650   -0.711526   -1.577318
     22          1           0        3.191197   -0.913813    1.172886
     23          1           0        3.029583   -2.103151   -0.112349
     24          1           0        2.006086   -0.351391   -1.598278
     25          1           0        2.089719    0.805888   -0.285933
     26          1           0        0.479048   -1.834574   -0.251290
     27          1           0        0.902488    1.558768    1.279669
     28          1           0       -0.626338    1.422643    2.120205
     29          1           0       -0.286713    2.274788   -0.805902
     30          1           0       -0.471558    3.350033    0.569453
     31          1           0       -2.635718    3.302775   -0.348607
     32          1           0       -2.740366    2.225813    1.020161
     33          1           0       -2.057256    0.423029   -0.964281
     34          1           0       -2.896558    1.591276   -1.927462
     35          1           0       -4.981349    1.162746   -0.938136
     36          1           0       -4.303643    0.707011    0.602743
     37          1           0       -3.954484   -1.070245   -1.857770
     38          1           0       -5.403385   -1.129148   -0.876301
     39          1           0       -4.004844   -2.918764   -0.213839
     40          1           0       -4.105558   -1.793925    1.123349
     41          1           0       -1.731158   -1.789647   -0.801164
     42          1           0       -1.808136   -2.913319    0.530647
     43          1           0       -1.372048   -1.301297    2.141459
     44          1           0       -2.314716   -0.086375    1.352623
 ---------------------------------------------------------------------

 SCF Done:  E(RB3LYP) =  -626.581153995     A.U. after    1 cycles

 The electronic state is 1-A.
 Alpha  occ. eigenvalues --  -10.17801 -10.17710 -10.17690 -10.17575 -10.17575
 Alpha  occ. eigenvalues --  -10.17555 -10.17514 -10.17421 -10.17379 -10.17282
 Alpha  occ. eigenvalues --  -10.17268 -10.17223 -10.17177 -10.17141 -10.16732
 Alpha  occ. eigenvalues --  -10.16435  -0.82301  -0.80198  -0.78774  -0.78015
 Alpha  occ. eigenvalues --   -0.75653  -0.72037  -0.71186  -0.68847  -0.64543
 Alpha  occ. eigenvalues --   -0.62259  -0.60866  -0.58856  -0.56435  -0.55211
 Alpha  occ. eigenvalues --   -0.54110  -0.50446  -0.47903  -0.46418  -0.44724
 Alpha  occ. eigenvalues --   -0.44308  -0.43784  -0.42683  -0.42432  -0.41944
 Alpha  occ. eigenvalues --   -0.40581  -0.40517  -0.39867  -0.38866  -0.37373
 Alpha  occ. eigenvalues --   -0.37124  -0.36571  -0.35816  -0.35563  -0.34822
 Alpha  occ. eigenvalues --   -0.34076  -0.33673  -0.33163  -0.32179  -0.32014
 Alpha  occ. eigenvalues --   -0.31577  -0.31447  -0.30801  -0.29604  -0.28334
 Alpha  occ. eigenvalues --   -0.23919  -0.21985
 Alpha virt. eigenvalues --    0.02669   0.03565   0.08617   0.09151   0.09988
 Alpha virt. eigenvalues --    0.11473   0.11681   0.12103   0.12306   0.12717
 Alpha virt. eigenvalues --    0.13675   0.14087   0.14592   0.15196   0.15724

 Mulliken charges:
               1
     1  C   -0.422736
     2  C   -0.033009
     3  C   -0.025660
     4  C   -0.229963
     5  C   -0.250520
     6  C   -0.124510
     7  C    0.282373
     8  C   -0.303107
     9  C   -0.189296
    10  C   -0.187950
    11  C   -0.179034
    12  C   -0.183658
    13  C   -0.187134
    14  C   -0.198485
    15  C   -0.181043
    16  C   -0.277579
    17  H    0.122421
    18  H    0.117089
    19  H    0.122676
    20  H    0.074937
    21  H    0.072550
    22  H    0.098272
    23  H    0.099388
    24  H    0.098703
    25  H    0.101929
    26  H    0.073668
    27  H    0.100604
    28  H    0.092459
    29  H    0.098425
    30  H    0.088671
    31  H    0.090571
    32  H    0.089865
    33  H    0.118531
    34  H    0.087312
    35  H    0.089020
    36  H    0.090909
    37  H    0.090841
    38  H    0.088229
    39  H    0.089061
    40  H    0.090706
    41  H    0.102336
    42  H    0.090704
    43  H    0.104644
    44  H    0.106792
 Sum of Mulliken charges =  -0.00000

 Dipole moment (field-independent basis, Debye):
    X=             -0.0750    Y=              0.1537    Z=              0.0737  Tot=              0.1862
 Quadrupole moment (field-independent basis, Debye-Ang):
   XX=           -101.2617   YY=           -102.4229   ZZ=           -101.4321
   XY=              1.1800   XZ=             -0.4439   YZ=              0.6846

  Exact polarizability: 228.821   7.581 160.457  -0.447   4.195 142.076
 Approx polarizability: 268.998   4.506 231.441  -5.855  14.801 234.638

                      1                      2                      3
                      A                      A                      A
 Frequencies --     24.2080                31.6811                43.5513
 Red. masses --      3.2635                 3.5546                 2.3591
 Frc consts  --      0.0011                 0.0021                 0.0026
 IR Inten    --      0.0040                 0.0090                 0.0064

                      4                      5                      6
                      A                      A                      A
 Frequencies --     72.1671                79.9058                99.5998
 Red. masses --      2.6308                 3.0634                 2.4810
 Frc consts  --      0.0081                 0.0115                 0.0145
 IR Inten    --      0.1089                 0.2051                 0.0320

                      7                      8                      9
                      A                      A                      A
 Frequencies --    135.1020               163.9131               177.9286
 Red. masses --      2.0275                 2.5140                 2.8229
 Frc consts  --      0.0218                 0.0398                 0.0527
 IR Inten    --      0.0294                 0.2494                 0.1891

                     10                     11                     12
                      A                      A                      A
 Frequencies --    207.9994               210.6287               216.7436
 Red. masses --      2.3126                 2.1076                 1.3531
 Frc consts  --      0.0589                 0.0551                 0.0375
 IR Inten    --      0.1136                 1.1911                 0.3862

                     13                     14                     15
                      A                      A                      A
 Frequencies --    232.1509               266.6460               283.5462
 Red. masses --      2.8370                 2.6543                 2.3913
 Frc consts  --      0.0901                 0.1112                 0.1133
 IR Inten    --      0.2635                 0.4714                 0.6775

                     16                     17                     18
                      A                      A                      A
 Frequencies --    301.7421               310.6257               334.2111
 Red. masses --      1.8176                 1.9027                 2.5388
 Frc consts  --      0.0975                 0.1082                 0.1671
 IR Inten    --      0.0343                 0.0407                 0.2282

                     19                     20                     21
                      A                      A                      A
 Frequencies --    367.9398               379.2362               399.7983
 Red. masses --      2.3020                 2.7678                 3.3923
 Frc consts  --      0.1836                 0.2345                 0.3195
 IR Inten    --      0.1539                 3.3152                 0.9358

                     22                     23                     24
                      A                      A                      A
 Frequencies --    422.3675               450.9776               470.5606
 Red. masses --      2.5854                 1.9118                 1.9435
 Frc consts  --      0.2717                 0.2291                 0.2536
 IR Inten    --      0.4488                 0.1726                 0.7890

                     25                     26                     27
                      A                      A                      A
 Frequencies --    537.1701               563.4612               574.3176
 Red. masses --      2.5672                 2.4034                 2.5720
 Frc consts  --      0.4365                 0.4496                 0.4998
 IR Inten    --      0.7387                 0.6292                 4.8831

                     28                     29                     30
                      A                      A                      A
 Frequencies --    720.4429               749.5736               761.2700
 Red. masses --      1.4513                 1.4386                 1.6667
 Frc consts  --      0.4438                 0.4762                 0.5691
 IR Inten    --      3.3012                 1.9601                 2.3466

                     31                     32                     33
                      A                      A                      A
 Frequencies --    770.0922               806.7062               820.0867
 Red. masses --      1.8292                 1.5249                 1.7192
 Frc consts  --      0.6391                 0.5847                 0.6812
 IR Inten    --      0.6135                 0.7451                 1.2632

                     34                     35                     36
                      A                      A                      A
 Frequencies --    824.3200               837.4499               868.8886
 Red. masses --      1.6549                 1.4738                 1.6469
 Frc consts  --      0.6626                 0.6090                 0.7326
 IR Inten    --      0.7819                 0.4126                 5.3123

                     37                     38                     39
                      A                      A                      A
 Frequencies --    882.5378               909.5965               923.0747
 Red. masses --      1.7801                 1.8530                 2.0732
 Frc consts  --      0.8169                 0.9033                 1.0408
 IR Inten    --      3.4000                 1.2400                 1.8183

                     40                     41                     42
                      A                      A                      A
 Frequencies --    926.7974               961.7140               976.9786
 Red. masses --      1.9789                 2.3751                 1.8092
 Frc consts  --      1.0015                 1.2942                 1.0174
 IR Inten    --      1.3323                 1.1002                 7.8916

                     43                     44                     45
                      A                      A                      A
 Frequencies --   1002.3640              1012.2101              1016.3515
 Red. masses --      1.6305                 2.6813                 1.6343
 Frc consts  --      0.9652                 1.6186                 0.9947
 IR Inten    --      6.8043                 1.6765                 8.9062

                     46                     47                     48
                      A                      A                      A
 Frequencies --   1019.4900              1032.5125              1050.7730
 Red. masses --      1.5438                 1.8743                 2.1276
 Frc consts  --      0.9454                 1.1773                 1.3840
 IR Inten    --     17.0514                 0.8227                 4.1828

                     49                     50                     51
                      A                      A                      A
 Frequencies --   1068.6042              1073.5303              1083.4988
 Red. masses --      1.5472                 2.3664                 3.0900
 Frc consts  --      1.0409                 1.6068                 2.1373
 IR Inten    --      0.6998                 0.7964                 2.8201

                     52                     53                     54
                      A                      A                      A
 Frequencies --   1087.8381              1093.6112              1102.8562
 Red. masses --      2.4925                 2.3634                 2.2026
 Frc consts  --      1.7379                 1.6654                 1.5784
 IR Inten    --      1.6319                 0.3268                 0.4919

                     55                     56                     57
                      A                      A                      A
 Frequencies --   1106.6321              1132.8726              1140.7918
 Red. masses --      1.7399                 2.2618                 1.3674
 Frc consts  --      1.2554                 1.7103                 1.0485
 IR Inten    --      0.4187                 0.8044                 0.5996

                     58                     59                     60
                      A                      A                      A
 Frequencies --   1172.4831              1188.5286              1211.6151
 Red. masses --      1.5675                 1.3145                 1.3612
 Frc consts  --      1.2696                 1.0940                 1.1774
 IR Inten    --      1.5198                 2.2274                 1.2103

                     61                     62                     63
                      A                      A                      A
 Frequencies --   1225.0784              1238.8489              1264.0708
 Red. masses --      1.4624                 1.2234                 1.2441
 Frc consts  --      1.2931                 1.1063                 1.1713
 IR Inten    --      9.2078                 0.3167                 8.4682

                     64                     65                     66
                      A                      A                      A
 Frequencies --   1268.7181              1279.3706              1300.7434
 Red. masses --      1.2328                 1.3078                 1.1744
 Frc consts  --      1.1691                 1.2612                 1.1707
 IR Inten    --      0.8374                 1.7574                 0.0714

                     67                     68                     69
                      A                      A                      A
 Frequencies --   1305.2243              1311.9222              1324.6450
 Red. masses --      1.1640                 1.1661                 1.1431
 Frc consts  --      1.1683                 1.1825                 1.1818
 IR Inten    --      0.9811                 2.2156                 1.1087

                     70                     71                     72
                      A                      A                      A
 Frequencies --   1326.7414              1331.9702              1335.3738
 Red. masses --      1.1855                 1.2310                 1.2790
 Frc consts  --      1.2295                 1.2868                 1.3437
 IR Inten    --      2.3353                 4.1413                 0.5625

                     73                     74                     75
                      A                      A                      A
 Frequencies --   1340.6508              1354.0424              1363.2197
 Red. masses --      1.2596                 1.2394                 1.3912
 Frc consts  --      1.3339                 1.3388                 1.5233
 IR Inten    --      1.3541                 3.8239                 5.7632

                     76                     77                     78
                      A                      A                      A
 Frequencies --   1370.6109              1379.7449              1380.4303
 Red. masses --      1.4324                 1.3914                 1.3286
 Frc consts  --      1.5854                 1.5607                 1.4917
 IR Inten    --      0.5579                 3.7920                 0.9069

                     79                     80                     81
                      A                      A                      A
 Frequencies --   1383.4611              1389.6860              1396.7619
 Red. masses --      1.3703                 1.3977                 1.4208
 Frc consts  --      1.5453                 1.5904                 1.6332
 IR Inten    --      0.7110                 5.6993                 3.1504

                     82                     83                     84
                      A                      A                      A
 Frequencies --   1411.9734              1412.2594              1470.2801
 Red. masses --      1.3848                 1.3199                 1.0960
 Frc consts  --      1.6266                 1.5511                 1.3959
 IR Inten    --      0.7216                 2.0753                 0.5124

                     85                     86                     87
                      A                      A                      A
 Frequencies --   1480.1326              1481.8823              1483.9889
 Red. masses --      1.0449                 1.0838                 1.0922
 Frc consts  --      1.3488                 1.4023                 1.4172
 IR Inten    --      4.7739                 3.9193                 3.1268

                     88                     89                     90
                      A                      A                      A
 Frequencies --   1486.2495              1486.3637              1491.4347
 Red. masses --      1.0996                 1.0939                 1.0769
 Frc consts  --      1.4312                 1.4239                 1.4114
 IR Inten    --      1.8577                 2.3288                 2.6993

                     91                     92                     93
                      A                      A                      A
 Frequencies --   1492.7930              1493.1468              1502.1037
 Red. masses --      1.0783                 1.0588                 1.0729
 Frc consts  --      1.4157                 1.3908                 1.4263
 IR Inten    --      0.7517                 6.8945                 0.1782

                     94                     95                     96
                      A                      A                      A
 Frequencies --   1505.6114              1507.5443              1518.6614
 Red. masses --      1.0867                 1.0848                 1.0835
 Frc consts  --      1.4515                 1.4526                 1.4723
 IR Inten    --      8.0821                 5.7817                 2.2715

                     97                     98                     99
                      A                      A                      A
 Frequencies --   1726.1126              1746.3649              2998.5077
 Red. masses --      6.8202                 6.1420                 1.0660
 Frc consts  --     11.9724                11.0364                 5.6471
 IR Inten    --      1.4499                 0.5832                13.6338

                    100                    101                    102
                      A                      A                      A
 Frequencies --   3000.4877              3001.3407              3005.4130
 Red. masses --      1.0704                 1.0752                 1.0617
 Frc consts  --      5.6776                 5.7066                 5.6499
 IR Inten    --     28.2567                24.1424                20.5105

                    103                    104                    105
                      A                      A                      A
 Frequencies --   3005.9525              3009.3634              3011.9375
 Red. masses --      1.0663                 1.0628                 1.0684
 Frc consts  --      5.6765                 5.6707                 5.7103
 IR Inten    --     15.8664                 2.7395                18.9920

                    106                    107                    108
                      A                      A                      A
 Frequencies --   3014.2824              3015.8418              3016.2469
 Red. masses --      1.0610                 1.0376                 1.0635
 Frc consts  --      5.6797                 5.5605                 5.7006
 IR Inten    --     24.2977                44.2123                29.0876

                    109                    110                    111
                      A                      A                      A
 Frequencies --   3026.7126              3028.6909              3045.1318
 Red. masses --      1.0806                 1.0672                 1.0969
 Frc consts  --      5.8325                 5.7675                 5.9931
 IR Inten    --      6.2396                11.2295                 6.0613

                    112                    113                    114
                      A                      A                      A
 Frequencies --   3048.6182              3050.9664              3056.2008
 Red. masses --      1.0940                 1.0971                 1.0950
 Frc consts  --      5.9908                 6.0170                 6.0260
 IR Inten    --     68.8954                64.6477                44.8477

                    115                    116                    117
                      A                      A                      A
 Frequencies --   3057.5472              3058.3127              3061.6546
 Red. masses --      1.0909                 1.0963                 1.0987
 Frc consts  --      6.0086                 6.0413                 6.0681
 IR Inten    --     20.4808                84.2468                23.1070

                    118                    119                    120
                      A                      A                      A
 Frequencies --   3066.8928              3069.0535              3086.7935
 Red. masses --      1.0997                 1.0959                 1.0903
 Frc consts  --      6.0944                 6.0817                 6.1211
 IR Inten    --     53.2122                43.1974                22.2020

                    121                    122                    123
                      A                      A                      A
 Frequencies --   3093.4816              3100.3815              3111.3615
 Red. masses --      1.0853                 1.0967                 1.0893
 Frc consts  --      6.1195                 6.2111                 6.2128
 IR Inten    --     35.5257                 6.8458                15.7592

                    124                    125                    126
                      A                      A                      A
 Frequencies --   3120.4893              3123.2806              3125.5811
 Red. masses --      1.0874                 1.0870                 1.0890
 Frc consts  --      6.2384                 6.2472                 6.2684
 IR Inten    --     17.4449                29.7226                49.9347

 - Thermochemistry -
 -------------------
 Temperature   298.150 Kelvin.  Pressure   1.00000 Atm.
 Atom     1 has atomic number  6 and mass  12.00000

 Molecular mass:   220.21910 amu.
 Principal axes and moments of inertia in atomic units:
                           1         2         3
     Eigenvalues --  1771.570569584.32133**********
           X            0.99999   0.00346  -0.00073
           Y           -0.00345   0.99999   0.00394
           Z            0.00075  -0.00394   0.99999
 This molecule is an asymmetric top.
 Rotational symmetry number  1.
 Warning -- assumption of classical behavior for rotation
           may cause significant error
 Rotational temperatures (Kelvin)      0.04889     0.00904     0.00817
 Rotational constants (GHZ):           1.01872     0.18830     0.17024
 Zero-point vibrational energy    1068702.0 (Joules/Mol)
                                  255.42590 (Kcal/Mol)
 Warning -- explicit consideration of  27 degrees of freedom as
           vibrations may cause significant error
 Vibrational temperatures:     34.83    45.58    62.66   103.83   114.97
          (Kelvin)            143.30   194.38   235.83   256.00   299.26
                              303.05   311.85   334.01   383.64   407.96
                              434.14   446.92   480.86   529.38   545.64
                              575.22   607.69   648.86   677.03   772.87
                              810.69   826.31  1036.56  1078.47  1095.30
                             1107.99  1160.67  1179.92  1186.01  1204.90
                             1250.14  1269.78  1308.71  1328.10  1333.45
                             1383.69  1405.65  1442.18  1456.34  1462.30
                             1466.82  1485.56  1511.83  1537.48  1544.57
                             1558.91  1565.16  1573.46  1586.76  1592.20
                             1629.95  1641.34  1686.94  1710.03  1743.24
                             1762.61  1782.43  1818.72  1825.40  1840.73
                             1871.48  1877.93  1887.56  1905.87  1908.88
                             1916.41  1921.31  1928.90  1948.17  1961.37
                             1972.00  1985.15  1986.13  1990.49  1999.45
                             2009.63  2031.51  2031.93  2115.41  2129.58
                             2132.10  2135.13  2138.38  2138.55  2145.84
                             2147.80  2148.31  2161.19  2166.24  2169.02
                             2185.02  2483.49  2512.63  4314.18  4317.03
                             4318.26  4324.12  4324.90  4329.80  4333.51
                             4336.88  4339.12  4339.71  4354.76  4357.61
                             4381.27  4386.28  4389.66  4397.19  4399.13
                             4400.23  4405.04  4412.57  4415.68  4441.21
                             4450.83  4460.76  4476.56  4489.69  4493.70
                             4497.01

 Zero-point correction=                           0.407047 (Hartree/Particle)
 Thermal correction to Energy=                    0.425056
 Thermal correction to Enthalpy=                  0.426000
 Thermal correction to Gibbs Free Energy=         0.360122
 Sum of electronic and zero-point Energies=           -626.174107
 Sum of electronic and thermal Energies=              -626.156098
 Sum of electronic and thermal Enthalpies=            -626.155154
 Sum of electronic and thermal Free Energies=         -626.221032

                     E (Thermal)             CV                S
                      KCal/Mol        Cal/Mol-Kelvin    Cal/Mol-Kelvin
 Total                  266.726             69.236            138.652
 Electronic               0.000              0.000              0.000
 Translational            0.889              2.981             42.071
 Rotational               0.889              2.981             33.553
 Vibrational            264.949             63.274             63.027
 Vibration     1          0.593              1.985              6.255
 Vibration     2          0.594              1.983              5.721
 Vibration     3          0.595              1.980              5.091
 Vibration     4          0.598              1.967              4.093
 Vibration     5          0.600              1.963              3.893
 Vibration     6          0.604              1.949              3.462
 Vibration     7          0.613              1.918              2.872
 Vibration     8          0.623              1.887              2.504
 Vibration     9          0.628              1.869              2.350
 Vibration    10          0.641              1.828              2.061
 Vibration    11          0.643              1.825              2.038
 Vibration    12          0.646              1.816              1.986
 Vibration    13          0.653              1.792              1.862
 Vibration    14          0.672              1.734              1.618
 Vibration    15          0.682              1.704              1.512
 Vibration    16          0.694              1.670              1.407
 Vibration    17          0.699              1.653              1.359
 Vibration    18          0.716              1.607              1.240
 Vibration    19          0.741              1.538              1.088
 Vibration    20          0.749              1.514              1.042
 Vibration    21          0.766              1.471              0.963
 Vibration    22          0.785              1.422              0.884
 Vibration    23          0.810              1.359              0.793
 Vibration    24          0.828              1.315              0.736
 Vibration    25          0.892              1.168              0.571
 Vibration    26          0.919              1.110              0.517
 Vibration    27          0.931              1.087              0.496

 Optimization completed.
    -- Stationary point found.
 Normal termination of Gaussian 16 at Thu May 25 10:38:47 2023.
