 Gaussian 16, Revision A.03,
 Gaussian 16:  ES64L-G16RevA.03 25-Dec-2016

 -----------------------------
 # opt freq b3lyp/6-31g(2df,p)
 -----------------------------

 -------------------
 Title Card Required
 -------------------
 Symbolic Z-matrix:
 Charge =  0 Multiplicity = 1

 SCF Done:  E(RB3LYP) =  -546.937480435     A.U. after   12 cycles
 SCF Done:  E(RB3LYP) =  -546.956131722     A.U. after   12 cycles
 SCF Done:  E(RB3LYP) =  -546.962039329     A.U. after   11 cycles
 SCF Done:  E(RB3LYP) =  -546.965614577     A.U. after   11 cycles
 SCF Done:  E(RB3LYP) =  -546.967074317     A.U. after   11 cycles
 SCF Done:  E(RB3LYP) =  -546.968604326     A.U. after   12 cycles
 SCF Done:  E(RB3LYP) =  -546.969771714     A.U. after   11 cycles
 SCF Done:  E(RB3LYP) =  -546.972016096     A.U. after   12 cycles
 SCF Done:  E(RB3LYP) =  -546.971934282     A.U. after   12 cycles
 SCF Done:  E(RB3LYP) =  -546.973025665     A.U. after   11 cycles
 SCF Done:  E(RB3LYP) =  -546.979110774     A.U. after   10 cycles
 SCF Done:  E(RB3LYP) =  -546.979139460     A.U. after    9 cycles
 SCF Done:  E(RB3LYP) =  -546.979155753     A.U. after    9 cycles
 SCF Done:  E(RB3LYP) =  -546.979159732     A.U. after    9 cycles
 SCF Done:  E(RB3LYP) =  -546.979158863     A.U. after    9 cycles
 SCF Done:  E(RB3LYP) =  -546.979165529     A.U. after    9 cycles
 SCF Done:  E(RB3LYP) =  -546.979165660     A.U. after    7 cycles
 SCF Done:  E(RB3LYP) =  -546.979165698     A.U. after    6 cycles
 SCF Done:  E(RB3LYP) =  -546.979165682     A.U. after    6 cycles
 Optimization completed.
    -- Stationary point found.
 Normal termination of Gaussian 16 at Sat May 27 22:39:38 2023.

 ----------------------------------------------------------------------
 #N Geom=AllCheck Guess=TCheck SCRF=Check GenChk RB3LYP/6-31G(2df,p) Fr
 eq
 ----------------------------------------------------------------------

 Structure from the checkpoint file:  "CCdCCqCOCrCCqCrCCC.chk"
 -------------------
 Title Card Required
 -------------------
 Charge =  0 Multiplicity = 1

                         Standard orientation:
 ---------------------------------------------------------------------
 Center     Atomic      Atomic             Coordinates (Angstroms)
 Number     Number       Type             X           Y           Z
 ---------------------------------------------------------------------
      1          6           0       -1.812713   -3.471860    0.394703
      2          6           0       -1.598957   -2.124651   -0.229030
      3          6           0       -1.304576   -1.007985    0.432175
      4          6           0       -1.096574    0.351149   -0.180575
      5          6           0       -2.178688    1.333093    0.287668
      6          8           0       -3.436569    0.891916   -0.170556
      7          6           0       -4.490125    1.730421    0.231871
      8          6           0        0.295632    0.928485    0.162316
      9          6           0        1.506003    0.101426   -0.313231
     10          6           0        1.568555    0.016408   -1.845367
     11          6           0        2.800881    0.683892    0.286096
     12          6           0        4.062283   -0.163144    0.076782
     13          6           0        5.289580    0.418769    0.784966
     14          1           0       -2.821083   -3.850117    0.184376
     15          1           0       -1.684038   -3.437349    1.480659
     16          1           0       -1.112165   -4.214661   -0.007358
     17          1           0       -1.708726   -2.077515   -1.312513
     18          1           0       -1.202756   -1.049666    1.519202
     19          1           0       -1.202033    0.267353   -1.268412
     20          1           0       -1.962656    2.343279   -0.102136
     21          1           0       -2.174121    1.406176    1.390464
     22          1           0       -5.416075    1.310937   -0.169700
     23          1           0       -4.369781    2.756482   -0.152773
     24          1           0       -4.573514    1.787511    1.329408
     25          1           0        0.359909    1.045786    1.253334
     26          1           0        0.371726    1.941932   -0.256595
     27          1           0        1.386038   -0.918762    0.076872
     28          1           0        1.670425    1.015380   -2.287847
     29          1           0        0.666840   -0.441885   -2.260926
     30          1           0        2.418167   -0.584227   -2.181775
     31          1           0        2.653606    0.822274    1.366270
     32          1           0        2.968366    1.690929   -0.124309
     33          1           0        4.279289   -0.259722   -0.993423
     34          1           0        3.877113   -1.181920    0.443145
     35          1           0        5.516671    1.426507    0.419109
     36          1           0        6.177093   -0.201125    0.622921
     37          1           0        5.126445    0.491061    1.866194
 ---------------------------------------------------------------------

 SCF Done:  E(RB3LYP) =  -546.979165682     A.U. after    1 cycles

 The electronic state is 1-A.
 Alpha  occ. eigenvalues --  -19.13297 -10.22070 -10.21933 -10.18214 -10.17805
 Alpha  occ. eigenvalues --  -10.17468 -10.17428 -10.17379 -10.17373 -10.17052
 Alpha  occ. eigenvalues --  -10.16923 -10.16873 -10.16545  -1.02732  -0.82200
 Alpha  occ. eigenvalues --   -0.79363  -0.76295  -0.74417  -0.69451  -0.67524
 Alpha  occ. eigenvalues --   -0.66880  -0.63703  -0.59443  -0.57181  -0.55294
 Alpha  occ. eigenvalues --   -0.54143  -0.48025  -0.47543  -0.46444  -0.45577
 Alpha  occ. eigenvalues --   -0.44470  -0.43174  -0.42235  -0.41598  -0.40575
 Alpha  occ. eigenvalues --   -0.40228  -0.39135  -0.38247  -0.37611  -0.36578
 Alpha  occ. eigenvalues --   -0.35773  -0.35644  -0.34962  -0.33163  -0.33108
 Alpha  occ. eigenvalues --   -0.31829  -0.31159  -0.31095  -0.30545  -0.29890
 Alpha  occ. eigenvalues --   -0.24978  -0.23387
 Alpha virt. eigenvalues --    0.03321   0.08694   0.09384   0.10404   0.11064
 Alpha virt. eigenvalues --    0.11789   0.12565   0.13051   0.13323   0.14422
 Alpha virt. eigenvalues --    0.15269   0.15922   0.16451   0.16651   0.17115

 Mulliken charges:
               1
     1  C   -0.427691
     2  C   -0.043460
     3  C    0.003169
     4  C   -0.082032
     5  C   -0.057641
     6  O   -0.230541
     7  C   -0.226092
     8  C   -0.203988
     9  C    0.020577
    10  C   -0.392594
    11  C   -0.158948
    12  C   -0.176982
    13  C   -0.378194
    14  H    0.125250
    15  H    0.115792
    16  H    0.121610
    17  H    0.078631
    18  H    0.068514
    19  H    0.081893
    20  H    0.079141
    21  H    0.078353
    22  H    0.124555
    23  H    0.099752
    24  H    0.100717
    25  H    0.086576
    26  H    0.087207
    27  H    0.076205
    28  H    0.106588
    29  H    0.115813
    30  H    0.113026
    31  H    0.084703
    32  H    0.085825
    33  H    0.097894
    34  H    0.093089
    35  H    0.112393
    36  H    0.109070
    37  H    0.111821
 Sum of Mulliken charges =  -0.00000

 Dipole moment (field-independent basis, Debye):
    X=              0.0352    Y=              0.5294    Z=              0.4853  Tot=              0.7191
 Quadrupole moment (field-independent basis, Debye-Ang):
   XX=            -84.3174   YY=            -81.1906   ZZ=            -83.6677
   XY=             -2.5547   XZ=             -1.9031   YZ=              0.4178

  Exact polarizability: 156.509   3.199 143.529   1.692   3.412 117.861
 Approx polarizability: 179.366   7.487 204.385   3.427   9.668 184.331

                      1                      2                      3
                      A                      A                      A
 Frequencies --     24.6581                42.6790                50.8324
 Red. masses --      2.6016                 2.9427                 2.9568
 Frc consts  --      0.0009                 0.0032                 0.0045
 IR Inten    --      0.0450                 0.0152                 0.1096

                      4                      5                      6
                      A                      A                      A
 Frequencies --     63.3026                78.5196                87.6830
 Red. masses --      2.1871                 2.1880                 2.2069
 Frc consts  --      0.0052                 0.0079                 0.0100
 IR Inten    --      0.3559                 0.7120                 0.6058

                      7                      8                      9
                      A                      A                      A
 Frequencies --     94.2667               115.5595               162.0662
 Red. masses --      2.2514                 1.8645                 1.7010
 Frc consts  --      0.0118                 0.0147                 0.0263
 IR Inten    --      2.4502                 0.0334                 0.5355

                     10                     11                     12
                      A                      A                      A
 Frequencies --    165.0832               202.5502               211.1333
 Red. masses --      2.8488                 2.2816                 1.4416
 Frc consts  --      0.0457                 0.0552                 0.0379
 IR Inten    --      0.0455                 0.8899                 1.1108

                     13                     14                     15
                      A                      A                      A
 Frequencies --    231.2271               234.5838               243.0199
 Red. masses --      1.7527                 1.3950                 1.5963
 Frc consts  --      0.0552                 0.0452                 0.0555
 IR Inten    --      0.2132                 1.3014                 1.1195

                     16                     17                     18
                      A                      A                      A
 Frequencies --    251.2943               283.5148               323.1017
 Red. masses --      1.1402                 3.3956                 2.5401
 Frc consts  --      0.0424                 0.1608                 0.1562
 IR Inten    --      0.1039                 0.6500                 0.5080

                     19                     20                     21
                      A                      A                      A
 Frequencies --    349.6406               355.7917               420.4245
 Red. masses --      2.8970                 2.5633                 2.2082
 Frc consts  --      0.2087                 0.1912                 0.2300
 IR Inten    --      1.0911                 0.9799                 0.1581

                     22                     23                     24
                      A                      A                      A
 Frequencies --    460.4754               491.4009               527.8700
 Red. masses --      2.2813                 2.7011                 2.8671
 Frc consts  --      0.2850                 0.3843                 0.4707
 IR Inten    --      0.1435                 1.0054                 2.0985

                     25                     26                     27
                      A                      A                      A
 Frequencies --    579.7745               743.1403               811.7426
 Red. masses --      2.5352                 1.1149                 1.6373
 Frc consts  --      0.5021                 0.3628                 0.6356
 IR Inten    --      4.3827                 1.9956                 1.5083

                     28                     29                     30
                      A                      A                      A
 Frequencies --    827.7629               848.5784               878.9535
 Red. masses --      2.1133                 1.4486                 1.4559
 Frc consts  --      0.8531                 0.6146                 0.6627
 IR Inten    --      0.5602                 1.8766                 0.5283

                     31                     32                     33
                      A                      A                      A
 Frequencies --    898.5496               912.1075               953.9514
 Red. masses --      2.0794                 1.5066                 1.9796
 Frc consts  --      0.9892                 0.7385                 1.0614
 IR Inten    --      1.4088                 0.7600                 8.9191

                     34                     35                     36
                      A                      A                      A
 Frequencies --    966.3841               991.3692              1000.7547
 Red. masses --      1.7943                 2.5086                 1.5691
 Frc consts  --      0.9873                 1.4526                 0.9259
 IR Inten    --     12.9827                 8.7718                 2.2689

                     37                     38                     39
                      A                      A                      A
 Frequencies --   1015.8794              1030.6174              1046.3965
 Red. masses --      1.0969                 2.0778                 2.3505
 Frc consts  --      0.6670                 1.3003                 1.5164
 IR Inten    --     24.0202                 3.0894                 1.2893

                     40                     41                     42
                      A                      A                      A
 Frequencies --   1064.1571              1068.8007              1085.7108
 Red. masses --      2.4589                 1.5366                 2.0131
 Frc consts  --      1.6406                 1.0342                 1.3981
 IR Inten    --      1.1751                 1.0949                 0.9534

                     43                     44                     45
                      A                      A                      A
 Frequencies --   1101.3261              1114.5788              1152.8429
 Red. masses --      2.0712                 2.2548                 2.6974
 Frc consts  --      1.4802                 1.6504                 2.1122
 IR Inten    --      0.9270                 1.6820                41.3031

                     46                     47                     48
                      A                      A                      A
 Frequencies --   1167.6565              1174.2773              1185.1457
 Red. masses --      4.3967                 1.8099                 1.5075
 Frc consts  --      3.5319                 1.4704                 1.2475
 IR Inten    --    112.1985                27.3156                14.0339

                     49                     50                     51
                      A                      A                      A
 Frequencies --   1194.6870              1225.3635              1236.8982
 Red. masses --      1.8497                 1.5916                 1.4155
 Frc consts  --      1.5554                 1.4081                 1.2760
 IR Inten    --      1.2761                32.2896                 3.8046

                     52                     53                     54
                      A                      A                      A
 Frequencies --   1253.4122              1261.9949              1285.8958
 Red. masses --      1.2043                 1.3752                 1.2559
 Frc consts  --      1.1148                 1.2904                 1.2235
 IR Inten    --      4.4319                 0.7684                 1.3388

                     55                     56                     57
                      A                      A                      A
 Frequencies --   1305.4645              1318.0621              1330.4318
 Red. masses --      1.2134                 1.2563                 1.1291
 Frc consts  --      1.2184                 1.2859                 1.1775
 IR Inten    --      3.5242                 5.8360                 0.4631

                     58                     59                     60
                      A                      A                      A
 Frequencies --   1332.8666              1345.4080              1378.1277
 Red. masses --      1.2398                 1.3010                 1.3957
 Frc consts  --      1.2977                 1.3875                 1.5618
 IR Inten    --      1.5704                 1.5302                 0.9915

                     61                     62                     63
                      A                      A                      A
 Frequencies --   1384.7818              1394.0521              1396.2867
 Red. masses --      1.4290                 1.4447                 1.3879
 Frc consts  --      1.6146                 1.6541                 1.5942
 IR Inten    --      1.3250                 3.6523                 0.3844

                     64                     65                     66
                      A                      A                      A
 Frequencies --   1409.7856              1411.6493              1413.6609
 Red. masses --      1.2815                 1.2762                 1.2721
 Frc consts  --      1.5006                 1.4983                 1.4978
 IR Inten    --      9.0786                 3.9989                11.6776

                     67                     68                     69
                      A                      A                      A
 Frequencies --   1418.0721              1474.2675              1479.8396
 Red. masses --      1.2938                 1.0831                 1.1181
 Frc consts  --      1.5328                 1.3869                 1.4426
 IR Inten    --     21.9226                 0.1375                 5.3118

                     70                     71                     72
                      A                      A                      A
 Frequencies --   1480.0598              1485.0323              1485.7505
 Red. masses --      1.0719                 1.0471                 1.0798
 Frc consts  --      1.3835                 1.3605                 1.4044
 IR Inten    --      1.1677                 4.5317                 0.6456

                     73                     74                     75
                      A                      A                      A
 Frequencies --   1492.8902              1493.8604              1497.1293
 Red. masses --      1.0556                 1.0642                 1.0602
 Frc consts  --      1.3862                 1.3992                 1.4002
 IR Inten    --      6.6167                 1.1654                 1.1282

                     76                     77                     78
                      A                      A                      A
 Frequencies --   1499.7461              1502.3860              1507.1350
 Red. masses --      1.0411                 1.0609                 1.0551
 Frc consts  --      1.3796                 1.4109                 1.4120
 IR Inten    --      5.4893                10.4939                 1.6600

                     79                     80                     81
                      A                      A                      A
 Frequencies --   1512.4692              1526.2026              1746.0640
 Red. masses --      1.0712                 1.0926                 6.2221
 Frc consts  --      1.4437                 1.4995                11.1765
 IR Inten    --      6.6443                 0.8043                 3.6053

                     82                     83                     84
                      A                      A                      A
 Frequencies --   2934.1205              2962.9088              2964.7950
 Red. masses --      1.0534                 1.0746                 1.0652
 Frc consts  --      5.3434                 5.5584                 5.5167
 IR Inten    --     35.6511                59.5542                79.8649

                     85                     86                     87
                      A                      A                      A
 Frequencies --   2992.2500              2998.3959              3003.9405
 Red. masses --      1.0592                 1.0609                 1.1027
 Frc consts  --      5.5876                 5.6194                 5.8628
 IR Inten    --      0.8839                39.5467                57.3427

                     88                     89                     90
                      A                      A                      A
 Frequencies --   3008.7200              3016.5544              3017.5206
 Red. masses --      1.0776                 1.0371                 1.0683
 Frc consts  --      5.7474                 5.5603                 5.7310
 IR Inten    --      9.8353                36.4673                36.7021

                     91                     92                     93
                      A                      A                      A
 Frequencies --   3025.4604              3027.1497              3028.2697
 Red. masses --      1.0946                 1.0362                 1.0430
 Frc consts  --      5.9030                 5.5944                 5.6355
 IR Inten    --      1.0750                39.9949                10.5806

                     94                     95                     96
                      A                      A                      A
 Frequencies --   3035.3130              3050.6872              3059.3780
 Red. masses --      1.0926                 1.0895                 1.0994
 Frc consts  --      5.9307                 5.9742                 6.0628
 IR Inten    --     26.2320                32.9947                50.4621

                     97                     98                     99
                      A                      A                      A
 Frequencies --   3063.1349              3094.1131              3097.0878
 Red. masses --      1.0988                 1.1020                 1.0955
 Frc consts  --      6.0741                 6.2161                 6.1913
 IR Inten    --     21.1677                61.5571                13.7876

                    100                    101                    102
                      A                      A                      A
 Frequencies --   3099.1389              3099.6511              3101.3344
 Red. masses --      1.0988                 1.0923                 1.0945
 Frc consts  --      6.2180                 6.1832                 6.2024
 IR Inten    --     38.5311                18.2801                23.4699

                    103                    104                    105
                      A                      A                      A
 Frequencies --   3109.2840              3111.8173              3130.0241
 Red. masses --      1.0952                 1.1001                 1.0893
 Frc consts  --      6.2385                 6.2765                 6.2877
 IR Inten    --     32.8467                39.1315                34.5917

 - Thermochemistry -
 -------------------
 Temperature   298.150 Kelvin.  Pressure   1.00000 Atm.
 Atom     1 has atomic number  6 and mass  12.00000

 Molecular mass:   184.18272 amu.
 Principal axes and moments of inertia in atomic units:
                           1         2         3
     Eigenvalues --  1713.763075802.573236846.43161
           X            1.00000   0.00114  -0.00140
           Y           -0.00113   0.99999   0.00407
           Z            0.00140  -0.00407   0.99999
 This molecule is an asymmetric top.
 Rotational symmetry number  1.
 Warning -- assumption of classical behavior for rotation
           may cause significant error
 Rotational temperatures (Kelvin)      0.05054     0.01493     0.01265
 Rotational constants (GHZ):           1.05309     0.31102     0.26360
 Zero-point vibrational energy     888836.9 (Joules/Mol)
                                  212.43711 (Kcal/Mol)
 Warning -- explicit consideration of  25 degrees of freedom as
           vibrations may cause significant error
 Vibrational temperatures:     35.48    61.41    73.14    91.08   112.97
          (Kelvin)            126.16   135.63   166.26   233.18   237.52
                              291.42   303.77   332.68   337.51   349.65
                              361.56   407.91   464.87   503.05   511.90
                              604.90   662.52   707.02   759.49   834.17
                             1069.21  1167.92  1190.97  1220.92  1264.62
                             1292.81  1312.32  1372.52  1390.41  1426.36
                             1439.86  1461.62  1482.83  1505.53  1531.08
                             1537.77  1562.10  1584.56  1603.63  1658.68
                             1680.00  1689.52  1705.16  1718.89  1763.02
                             1779.62  1803.38  1815.73  1850.12  1878.27
                             1896.40  1914.19  1917.70  1935.74  1982.82
                             1992.39  2005.73  2008.95  2028.37  2031.05
                             2033.94  2040.29  2121.14  2129.16  2129.48
                             2136.63  2137.66  2147.94  2149.33  2154.04
                             2157.80  2161.60  2168.43  2176.11  2195.87
                             2512.20  4221.54  4262.96  4265.68  4305.18
                             4314.02  4322.00  4328.88  4340.15  4341.54
                             4352.96  4355.39  4357.00  4367.14  4389.26
                             4401.76  4407.17  4451.74  4456.02  4458.97
                             4459.71  4462.13  4473.57  4477.21  4503.41

 Zero-point correction=                           0.338540 (Hartree/Particle)
 Thermal correction to Energy=                    0.355983
 Thermal correction to Enthalpy=                  0.356927
 Thermal correction to Gibbs Free Energy=         0.291860
 Sum of electronic and zero-point Energies=           -546.640626
 Sum of electronic and thermal Energies=              -546.623183
 Sum of electronic and thermal Enthalpies=            -546.622238
 Sum of electronic and thermal Free Energies=         -546.687306

                     E (Thermal)             CV                S
                      KCal/Mol        Cal/Mol-Kelvin    Cal/Mol-Kelvin
 Total                  223.383             61.711            136.946
 Electronic               0.000              0.000              0.000
 Translational            0.889              2.981             41.539
 Rotational               0.889              2.981             32.587
 Vibrational            221.605             55.749             62.820
 Vibration     1          0.593              1.985              6.219
 Vibration     2          0.595              1.980              5.131
 Vibration     3          0.595              1.977              4.785
 Vibration     4          0.597              1.972              4.351
 Vibration     5          0.600              1.964              3.928
 Vibration     6          0.601              1.958              3.711
 Vibration     7          0.603              1.953              3.570
 Vibration     8          0.608              1.936              3.173
 Vibration     9          0.622              1.889              2.526
 Vibration    10          0.623              1.885              2.491
 Vibration    11          0.639              1.836              2.110
 Vibration    12          0.643              1.824              2.034
 Vibration    13          0.653              1.793              1.869
 Vibration    14          0.654              1.788              1.844
 Vibration    15          0.659              1.774              1.781
 Vibration    16          0.663              1.761              1.721
 Vibration    17          0.682              1.704              1.512
 Vibration    18          0.708              1.629              1.294
 Vibration    19          0.727              1.576              1.168
 Vibration    20          0.731              1.563              1.140
 Vibration    21          0.783              1.426              0.891
 Vibration    22          0.818              1.338              0.765
 Vibration    23          0.847              1.269              0.680
 Vibration    24          0.883              1.188              0.592
 Vibration    25          0.936              1.075              0.486

 Optimization completed.
    -- Stationary point found.
 Normal termination of Gaussian 16 at Sun May 28 00:34:14 2023.
