 Gaussian 16, Revision A.03,
 Gaussian 16:  ES64L-G16RevA.03 25-Dec-2016

 -----------------------------
 # opt freq b3lyp/6-31g(2df,p)
 -----------------------------

 -------------------
 Title Card Required
 -------------------
 Symbolic Z-matrix:
 Charge =  0 Multiplicity = 1

 SCF Done:  E(RB3LYP) =  -601.104953718     A.U. after   13 cycles
 SCF Done:  E(RB3LYP) =  -601.117310406     A.U. after   13 cycles
 SCF Done:  E(RB3LYP) =  -601.121974647     A.U. after   11 cycles
 SCF Done:  E(RB3LYP) =  -601.123685091     A.U. after   12 cycles
 SCF Done:  E(RB3LYP) =  -601.125194466     A.U. after   11 cycles
 SCF Done:  E(RB3LYP) =  -601.126179119     A.U. after   12 cycles
 SCF Done:  E(RB3LYP) =  -601.127926816     A.U. after   11 cycles
 SCF Done:  E(RB3LYP) =  -601.128918695     A.U. after   11 cycles
 SCF Done:  E(RB3LYP) =  -601.129943771     A.U. after   12 cycles
 SCF Done:  E(RB3LYP) =  -601.130727608     A.U. after   10 cycles
 SCF Done:  E(RB3LYP) =  -601.135501667     A.U. after   10 cycles
 SCF Done:  E(RB3LYP) =  -601.135499551     A.U. after    9 cycles
 SCF Done:  E(RB3LYP) =  -601.135589116     A.U. after   10 cycles
 SCF Done:  E(RB3LYP) =  -601.135590758     A.U. after    9 cycles
 SCF Done:  E(RB3LYP) =  -601.135594890     A.U. after    9 cycles
 SCF Done:  E(RB3LYP) =  -601.135594625     A.U. after    7 cycles
 SCF Done:  E(RB3LYP) =  -601.135595168     A.U. after    7 cycles
 SCF Done:  E(RB3LYP) =  -601.135595203     A.U. after    7 cycles
 SCF Done:  E(RB3LYP) =  -601.135595201     A.U. after    6 cycles
 Optimization completed.
    -- Stationary point found.
 Normal termination of Gaussian 16 at Sun May 28 16:48:15 2023.

 ----------------------------------------------------------------------
 #N Geom=AllCheck Guess=TCheck SCRF=Check GenChk RB3LYP/6-31G(2df,p) Fr
 eq
 ----------------------------------------------------------------------

 Structure from the checkpoint file:  "CCdCCCCqCCrCCqOrdNCC.chk"
 -------------------
 Title Card Required
 -------------------
 Charge =  0 Multiplicity = 1

                         Standard orientation:
 ---------------------------------------------------------------------
 Center     Atomic      Atomic             Coordinates (Angstroms)
 Number     Number       Type             X           Y           Z
 ---------------------------------------------------------------------
      1          6           0       -6.338174   -0.555812    0.677360
      2          6           0       -5.010511    0.105878    0.455846
      3          6           0       -4.018152   -0.383965   -0.284117
      4          6           0       -2.683890    0.273763   -0.498230
      5          6           0       -1.517990   -0.584170    0.027190
      6          6           0       -0.105647   -0.044052   -0.268003
      7          6           0        0.164405    1.352517    0.349633
      8          6           0       -0.029317    2.526347   -0.617881
      9          6           0        0.942066   -1.076202    0.223067
     10          6           0        2.349689   -0.776653   -0.224505
     11          8           0        2.587375   -0.881035   -1.571167
     12          7           0        3.258826   -0.433844    0.583486
     13          6           0        4.592794   -0.153895    0.057928
     14          6           0        5.539423    0.229002    1.191773
     15          1           0       -7.162780    0.078241    0.327905
     16          1           0       -6.518616   -0.739256    1.744077
     17          1           0       -6.402415   -1.513986    0.153271
     18          1           0       -4.869572    1.068735    0.948220
     19          1           0       -4.155861   -1.348691   -0.775650
     20          1           0       -2.680687    1.255905   -0.013697
     21          1           0       -2.530514    0.453025   -1.572995
     22          1           0       -1.607058   -1.591344   -0.402971
     23          1           0       -1.631950   -0.710209    1.112288
     24          1           0       -0.007797    0.045254   -1.361700
     25          1           0        1.192199    1.381853    0.726061
     26          1           0       -0.479577    1.483766    1.228818
     27          1           0        0.659358    2.447165   -1.466554
     28          1           0        0.170844    3.480404   -0.119731
     29          1           0       -1.045226    2.569604   -1.021705
     30          1           0        0.662429   -2.077216   -0.136012
     31          1           0        0.946464   -1.111332    1.314917
     32          1           0        1.784215   -1.163794   -2.021359
     33          1           0        4.547210    0.654113   -0.686386
     34          1           0        4.980722   -1.031019   -0.479700
     35          1           0        5.174307    1.117854    1.715349
     36          1           0        6.542964    0.440901    0.808644
     37          1           0        5.612378   -0.581344    1.923469
 ---------------------------------------------------------------------

 SCF Done:  E(RB3LYP) =  -601.135595201     A.U. after    1 cycles

 The electronic state is 1-A.
 Alpha  occ. eigenvalues --  -19.17408 -14.29339 -10.26149 -10.19588 -10.19191
 Alpha  occ. eigenvalues --  -10.19055 -10.18473 -10.18404 -10.18054 -10.17971
 Alpha  occ. eigenvalues --  -10.17740 -10.17661 -10.17226 -10.15797  -1.06545
 Alpha  occ. eigenvalues --   -0.89319  -0.82573  -0.79595  -0.75270  -0.74685
 Alpha  occ. eigenvalues --   -0.72510  -0.68541  -0.64277  -0.61133  -0.60129
 Alpha  occ. eigenvalues --   -0.57951  -0.56429  -0.54686  -0.49687  -0.47901
 Alpha  occ. eigenvalues --   -0.46756  -0.46238  -0.44516  -0.43630  -0.43038
 Alpha  occ. eigenvalues --   -0.42380  -0.40867  -0.40054  -0.39568  -0.39056
 Alpha  occ. eigenvalues --   -0.37746  -0.36809  -0.36127  -0.36043  -0.35623
 Alpha  occ. eigenvalues --   -0.34576  -0.33951  -0.33711  -0.33409  -0.32694
 Alpha  occ. eigenvalues --   -0.31546  -0.31108  -0.24933  -0.24496  -0.24000
 Alpha virt. eigenvalues --    0.02472   0.03171   0.05456   0.09479   0.10560
 Alpha virt. eigenvalues --    0.10875   0.11702   0.11870   0.13218   0.13766
 Alpha virt. eigenvalues --    0.15014   0.15373   0.16066   0.16752   0.16798

 Mulliken charges:
               1
     1  C   -0.423302
     2  C   -0.032769
     3  C   -0.025288
     4  C   -0.259102
     5  C   -0.177341
     6  C    0.019010
     7  C   -0.180668
     8  C   -0.388571
     9  C   -0.323350
    10  C    0.386036
    11  O   -0.412899
    12  N   -0.282786
    13  C   -0.112196
    14  C   -0.375148
    15  H    0.124300
    16  H    0.124450
    17  H    0.117729
    18  H    0.076680
    19  H    0.073543
    20  H    0.104192
    21  H    0.097750
    22  H    0.085247
    23  H    0.103212
    24  H    0.053783
    25  H    0.123133
    26  H    0.093041
    27  H    0.116182
    28  H    0.113499
    29  H    0.117724
    30  H    0.098271
    31  H    0.130001
    32  H    0.298903
    33  H    0.101198
    34  H    0.101564
    35  H    0.115934
    36  H    0.101070
    37  H    0.116969
 Sum of Mulliken charges =  -0.00000

 Dipole moment (field-independent basis, Debye):
    X=             -2.2015    Y=             -0.5477    Z=             -1.3470  Tot=              2.6384
 Quadrupole moment (field-independent basis, Debye-Ang):
   XX=            -93.6896   YY=            -86.8257   ZZ=            -88.7636
   XY=              0.8417   XZ=             -3.6360   YZ=              2.8531

  Exact polarizability: 199.644   5.108 123.326  -3.698   5.310 119.719
 Approx polarizability: 225.527   2.405 180.871  -6.245  14.204 195.589

                      1                      2                      3
                      A                      A                      A
 Frequencies --     17.7270                25.2215                38.1143
 Red. masses --      2.7715                 3.6054                 2.7678
 Frc consts  --      0.0005                 0.0014                 0.0024
 IR Inten    --      0.0239                 0.4173                 0.0649

                      4                      5                      6
                      A                      A                      A
 Frequencies --     47.3110                66.3612                74.6759
 Red. masses --      3.2862                 2.6721                 2.9265
 Frc consts  --      0.0043                 0.0069                 0.0096
 IR Inten    --      2.9425                 0.0189                 0.4349

                      7                      8                      9
                      A                      A                      A
 Frequencies --     91.8423               118.4053               147.2200
 Red. masses --      2.0157                 2.1636                 2.0208
 Frc consts  --      0.0100                 0.0179                 0.0258
 IR Inten    --      0.4440                 0.2349                 0.7395

                     10                     11                     12
                      A                      A                      A
 Frequencies --    179.7932               196.5630               205.3259
 Red. masses --      2.5283                 1.8533                 1.5541
 Frc consts  --      0.0482                 0.0422                 0.0386
 IR Inten    --      1.3741                 5.2726                 0.1938

                     13                     14                     15
                      A                      A                      A
 Frequencies --    217.0180               231.7553               252.4052
 Red. masses --      1.5372                 1.8242                 2.0345
 Frc consts  --      0.0427                 0.0577                 0.0764
 IR Inten    --      2.2047                 0.4433                 0.8119

                     16                     17                     18
                      A                      A                      A
 Frequencies --    283.3834               294.9054               308.7197
 Red. masses --      2.2198                 1.9554                 2.3722
 Frc consts  --      0.1050                 0.1002                 0.1332
 IR Inten    --      1.0046                 6.5814                 3.9740

                     19                     20                     21
                      A                      A                      A
 Frequencies --    356.1072               384.4505               396.5635
 Red. masses --      3.0384                 2.5341                 1.2891
 Frc consts  --      0.2270                 0.2207                 0.1194
 IR Inten    --      4.4275                 5.7697                83.1679

                     22                     23                     24
                      A                      A                      A
 Frequencies --    433.0418               465.2184               477.1591
 Red. masses --      2.1183                 2.6108                 2.7951
 Frc consts  --      0.2340                 0.3329                 0.3749
 IR Inten    --     13.0124                 1.7184                 1.7296

                     25                     26                     27
                      A                      A                      A
 Frequencies --    548.5101               627.4935               721.9626
 Red. masses --      2.4513                 3.4031                 3.6210
 Frc consts  --      0.4345                 0.7895                 1.1120
 IR Inten    --      0.3411                 0.5766                 0.9129

                     28                     29                     30
                      A                      A                      A
 Frequencies --    761.0156               770.8326               789.0520
 Red. masses --      1.2261                 1.2957                 1.1784
 Frc consts  --      0.4184                 0.4536                 0.4323
 IR Inten    --      0.8054                 4.8465                 0.4451

                     31                     32                     33
                      A                      A                      A
 Frequencies --    800.3404               831.6065               865.0726
 Red. masses --      1.7101                 1.8271                 3.3527
 Frc consts  --      0.6454                 0.7445                 1.4783
 IR Inten    --      0.1856                 2.2917                10.9118

                     34                     35                     36
                      A                      A                      A
 Frequencies --    899.9490               919.3219               948.8975
 Red. masses --      1.9976                 2.5103                 1.8615
 Frc consts  --      0.9532                 1.2500                 0.9875
 IR Inten    --      9.6568                11.4387                 4.4954

                     37                     38                     39
                      A                      A                      A
 Frequencies --    989.1052              1003.6735              1015.1602
 Red. masses --      1.6692                 1.8497                 1.4295
 Frc consts  --      0.9621                 1.0978                 0.8679
 IR Inten    --      3.3689                 4.9882                13.0348

                     40                     41                     42
                      A                      A                      A
 Frequencies --   1020.7809              1043.3041              1060.5592
 Red. masses --      1.6874                 2.9943                 2.2349
 Frc consts  --      1.0359                 1.9203                 1.4811
 IR Inten    --      9.5557                 1.0835                29.4391

                     43                     44                     45
                      A                      A                      A
 Frequencies --   1068.8567              1071.8775              1090.8335
 Red. masses --      1.5615                 1.8750                 2.1782
 Frc consts  --      1.0511                 1.2693                 1.5271
 IR Inten    --      0.2384                 1.7833                 2.5603

                     46                     47                     48
                      A                      A                      A
 Frequencies --   1102.0373              1116.8480              1122.9303
 Red. masses --      3.0589                 2.0245                 1.6558
 Frc consts  --      2.1888                 1.4878                 1.2302
 IR Inten    --      1.1718                 0.8082                 2.7763

                     49                     50                     51
                      A                      A                      A
 Frequencies --   1138.4526              1168.3216              1184.2106
 Red. masses --      1.5867                 1.8945                 1.8677
 Frc consts  --      1.2116                 1.5236                 1.5431
 IR Inten    --      2.6769                 3.8768                 0.7904

                     52                     53                     54
                      A                      A                      A
 Frequencies --   1217.0112              1245.5948              1261.8359
 Red. masses --      1.5562                 1.3559                 1.2484
 Frc consts  --      1.3580                 1.2395                 1.1711
 IR Inten    --      0.0077                 6.1626                10.6417

                     55                     56                     57
                      A                      A                      A
 Frequencies --   1290.7246              1297.2101              1302.2515
 Red. masses --      1.3095                 1.1426                 1.3451
 Frc consts  --      1.2853                 1.1328                 1.3440
 IR Inten    --     45.7204                 3.8288                50.5130

                     58                     59                     60
                      A                      A                      A
 Frequencies --   1320.0069              1326.3779              1337.4180
 Red. masses --      1.2430                 1.4938                 1.2713
 Frc consts  --      1.2761                 1.5484                 1.3398
 IR Inten    --     27.7920                96.3513                 6.2525

                     61                     62                     63
                      A                      A                      A
 Frequencies --   1345.6815              1354.5594              1373.8338
 Red. masses --      1.3138                 1.2577                 1.4538
 Frc consts  --      1.4018                 1.3597                 1.6167
 IR Inten    --      6.0591                 4.0845                18.9859

                     64                     65                     66
                      A                      A                      A
 Frequencies --   1380.1376              1382.7563              1405.3856
 Red. masses --      1.4659                 1.3973                 1.4291
 Frc consts  --      1.6451                 1.5741                 1.6631
 IR Inten    --     17.2727                41.3049                 0.4457

                     67                     68                     69
                      A                      A                      A
 Frequencies --   1411.6141              1412.4939              1413.3108
 Red. masses --      1.3135                 1.2662                 1.2235
 Frc consts  --      1.5420                 1.4884                 1.4399
 IR Inten    --     19.9431                 1.7891                 2.6662

                     70                     71                     72
                      A                      A                      A
 Frequencies --   1472.3556              1473.6678              1479.9049
 Red. masses --      1.0838                 1.0701                 1.0475
 Frc consts  --      1.3843                 1.3692                 1.3517
 IR Inten    --      1.1807                 3.9155                 3.1534

                     73                     74                     75
                      A                      A                      A
 Frequencies --   1480.7334              1488.7661              1492.5639
 Red. masses --      1.0893                 1.0408                 1.0526
 Frc consts  --      1.4072                 1.3591                 1.3815
 IR Inten    --      3.7113                 3.4046                 6.7930

                     76                     77                     78
                      A                      A                      A
 Frequencies --   1496.0186              1496.9262              1501.6203
 Red. masses --      1.0820                 1.0593                 1.0464
 Frc consts  --      1.4268                 1.3985                 1.3902
 IR Inten    --      4.4615                 0.9414                 1.5790

                     79                     80                     81
                      A                      A                      A
 Frequencies --   1504.8055              1510.9185              1746.7263
 Red. masses --      1.0555                 1.0769                 6.1253
 Frc consts  --      1.4083                 1.4484                11.0110
 IR Inten    --      1.6618                 5.0866                 0.4097

                     82                     83                     84
                      A                      A                      A
 Frequencies --   1782.5580              2969.7451              2992.9045
 Red. masses --      8.4896                 1.0812                 1.0579
 Frc consts  --     15.8937                 5.6180                 5.5831
 IR Inten    --    242.3208                19.3806                28.0635

                     85                     86                     87
                      A                      A                      A
 Frequencies --   2993.6689              3003.5762              3010.2140
 Red. masses --      1.0665                 1.0654                 1.0651
 Frc consts  --      5.6313                 5.6629                 5.6865
 IR Inten    --     25.9482                 6.3369                61.2571

                     88                     89                     90
                      A                      A                      A
 Frequencies --   3017.1487              3021.1937              3023.9295
 Red. masses --      1.0372                 1.1028                 1.0663
 Frc consts  --      5.5629                 5.9306                 5.7446
 IR Inten    --     40.1836                24.3507                15.6299

                     91                     92                     93
                      A                      A                      A
 Frequencies --   3033.2681              3036.4275              3042.7357
 Red. masses --      1.0372                 1.0349                 1.0954
 Frc consts  --      5.6228                 5.6219                 5.9754
 IR Inten    --     25.9120                30.4480                26.0181

                     94                     95                     96
                      A                      A                      A
 Frequencies --   3063.5827              3068.2556              3071.4932
 Red. masses --      1.0987                 1.0962                 1.0951
 Frc consts  --      6.0758                 6.0801                 6.0872
 IR Inten    --     22.0696                 5.0594                25.5248

                     97                     98                     99
                      A                      A                      A
 Frequencies --   3097.2731              3101.2829              3107.8115
 Red. masses --      1.1011                 1.0968                 1.0969
 Frc consts  --      6.2238                 6.2150                 6.2418
 IR Inten    --     34.9294                 6.3948                 4.5701

                    100                    101                    102
                      A                      A                      A
 Frequencies --   3108.0574              3110.1682              3111.8386
 Red. masses --      1.0977                 1.0991                 1.1023
 Frc consts  --      6.2475                 6.2641                 6.2893
 IR Inten    --     42.1042                45.1212                34.2561

                    103                    104                    105
                      A                      A                      A
 Frequencies --   3112.9746              3126.0396              3815.5356
 Red. masses --      1.0905                 1.0891                 1.0660
 Frc consts  --      6.2260                 6.2705                 9.1438
 IR Inten    --      8.2346                50.0529                34.3615

 - Thermochemistry -
 -------------------
 Temperature   298.150 Kelvin.  Pressure   1.00000 Atm.
 Atom     1 has atomic number  6 and mass  12.00000

 Molecular mass:   197.17796 amu.
 Principal axes and moments of inertia in atomic units:
                           1         2         3
     Eigenvalues --  1096.995628956.973729260.81519
           X            0.99998   0.00571   0.00164
           Y           -0.00568   0.99978  -0.02019
           Z           -0.00175   0.02018   0.99979
 This molecule is an asymmetric top.
 Rotational symmetry number  1.
 Warning -- assumption of classical behavior for rotation
           may cause significant error
 Rotational temperatures (Kelvin)      0.07896     0.00967     0.00935
 Rotational constants (GHZ):           1.64517     0.20149     0.19488
 Zero-point vibrational energy     873484.4 (Joules/Mol)
                                  208.76778 (Kcal/Mol)
 Warning -- explicit consideration of  25 degrees of freedom as
           vibrations may cause significant error
 Vibrational temperatures:     25.51    36.29    54.84    68.07    95.48
          (Kelvin)            107.44   132.14   170.36   211.82   258.68
                              282.81   295.42   312.24   333.44   363.15
                              407.73   424.30   444.18   512.36   553.14
                              570.57   623.05   669.35   686.53   789.18
                              902.82  1038.74  1094.93  1109.06  1135.27
                             1151.51  1196.50  1244.65  1294.83  1322.70
                             1365.25  1423.10  1444.06  1460.59  1468.68
                             1501.08  1525.91  1537.85  1542.19  1569.47
                             1585.59  1606.90  1615.65  1637.98  1680.95
                             1703.81  1751.01  1792.13  1815.50  1857.06
                             1866.40  1873.65  1899.20  1908.36  1924.25
                             1936.14  1948.91  1976.64  1985.71  1989.48
                             2022.04  2031.00  2032.26  2033.44  2118.39
                             2120.28  2129.25  2130.45  2142.00  2147.47
                             2152.44  2153.74  2160.50  2165.08  2173.87
                             2513.15  2564.70  4272.80  4306.12  4307.22
                             4321.48  4331.03  4341.00  4346.82  4350.76
                             4364.20  4368.74  4377.82  4407.81  4414.54
                             4419.19  4456.29  4462.05  4471.45  4471.80
                             4474.84  4477.24  4478.88  4497.67  5489.70

 Zero-point correction=                           0.332693 (Hartree/Particle)
 Thermal correction to Energy=                    0.350695
 Thermal correction to Enthalpy=                  0.351639
 Thermal correction to Gibbs Free Energy=         0.284129
 Sum of electronic and zero-point Energies=           -600.802903
 Sum of electronic and thermal Energies=              -600.784901
 Sum of electronic and thermal Enthalpies=            -600.783956
 Sum of electronic and thermal Free Energies=         -600.851466

                     E (Thermal)             CV                S
                      KCal/Mol        Cal/Mol-Kelvin    Cal/Mol-Kelvin
 Total                  220.064             64.178            142.086
 Electronic               0.000              0.000              0.000
 Translational            0.889              2.981             41.742
 Rotational               0.889              2.981             32.876
 Vibrational            218.287             58.216             67.468
 Vibration     1          0.593              1.986              6.874
 Vibration     2          0.593              1.985              6.174
 Vibration     3          0.594              1.982              5.355
 Vibration     4          0.595              1.979              4.927
 Vibration     5          0.598              1.970              4.258
 Vibration     6          0.599              1.966              4.026
 Vibration     7          0.602              1.955              3.620
 Vibration     8          0.609              1.934              3.126
 Vibration     9          0.617              1.906              2.708
 Vibration    10          0.629              1.867              2.331
 Vibration    11          0.636              1.845              2.165
 Vibration    12          0.640              1.832              2.085
 Vibration    13          0.646              1.815              1.984
 Vibration    14          0.653              1.792              1.865
 Vibration    15          0.664              1.759              1.714
 Vibration    16          0.682              1.704              1.513
 Vibration    17          0.689              1.683              1.446
 Vibration    18          0.698              1.657              1.369
 Vibration    19          0.732              1.563              1.139
 Vibration    20          0.753              1.503              1.022
 Vibration    21          0.763              1.478              0.975
 Vibration    22          0.794              1.398              0.849
 Vibration    23          0.823              1.327              0.751
 Vibration    24          0.834              1.301              0.718
 Vibration    25          0.904              1.143              0.547

                           ! Non-Optimized Parameters !
 Normal termination of Gaussian 16 at Sun May 28 18:44:51 2023.
