 Gaussian 16, Revision A.03,
 Gaussian 16:  ES64L-G16RevA.03 25-Dec-2016

 -----------------------------
 # opt freq b3lyp/6-31g(2df,p)
 -----------------------------

 -------------------
 Title Card Required
 -------------------
 Symbolic Z-matrix:
 Charge =  0 Multiplicity = 1

 SCF Done:  E(RB3LYP) =  -465.614766089     A.U. after   13 cycles
 SCF Done:  E(RB3LYP) =  -465.620474604     A.U. after   12 cycles
 SCF Done:  E(RB3LYP) =  -465.621132560     A.U. after   11 cycles
 SCF Done:  E(RB3LYP) =  -465.621339322     A.U. after   11 cycles
 SCF Done:  E(RB3LYP) =  -465.621443609     A.U. after   10 cycles
 SCF Done:  E(RB3LYP) =  -465.621549300     A.U. after   10 cycles
 SCF Done:  E(RB3LYP) =  -465.621669061     A.U. after   11 cycles
 SCF Done:  E(RB3LYP) =  -465.621665177     A.U. after   11 cycles
 SCF Done:  E(RB3LYP) =  -465.621925518     A.U. after    9 cycles
 SCF Done:  E(RB3LYP) =  -465.613885200     A.U. after   12 cycles
 SCF Done:  E(RB3LYP) =  -465.622709358     A.U. after   12 cycles
 SCF Done:  E(RB3LYP) =  -465.624543841     A.U. after    8 cycles
 SCF Done:  E(RB3LYP) =  -465.624729531     A.U. after   10 cycles
 SCF Done:  E(RB3LYP) =  -465.624745717     A.U. after    9 cycles
 SCF Done:  E(RB3LYP) =  -465.624750201     A.U. after    8 cycles
 SCF Done:  E(RB3LYP) =  -465.624751078     A.U. after    8 cycles
 SCF Done:  E(RB3LYP) =  -465.624751309     A.U. after    7 cycles
 SCF Done:  E(RB3LYP) =  -465.624751429     A.U. after    7 cycles
 SCF Done:  E(RB3LYP) =  -465.624751453     A.U. after    6 cycles
 Optimization completed.
    -- Stationary point found.
 Normal termination of Gaussian 16 at Mon May 22 18:55:52 2023.

 ----------------------------------------------------------------------
 #N Geom=AllCheck Guess=TCheck SCRF=Check GenChk RB3LYP/6-31G(2df,p) Fr
 eq
 ----------------------------------------------------------------------

 Structure from the checkpoint file:  "CCdCC1CCdC1C1CdCCdC1.chk"
 -------------------
 Title Card Required
 -------------------
 Charge =  0 Multiplicity = 1

                         Standard orientation:
 ---------------------------------------------------------------------
 Center     Atomic      Atomic             Coordinates (Angstroms)
 Number     Number       Type             X           Y           Z
 ---------------------------------------------------------------------
      1          6           0        3.431676   -1.979302    0.121731
      2          6           0        2.776144   -0.647947   -0.103572
      3          6           0        1.495097   -0.475448   -0.424409
      4          6           0        0.790904    0.825024   -0.674350
      5          6           0        1.421964    2.174322   -0.168346
      6          6           0        0.143876    2.343924    0.629364
      7          6           0       -0.397643    1.187254    0.231054
      8          6           0       -1.698285    0.492531    0.501225
      9          6           0       -2.536770    0.231468   -0.732812
     10          6           0       -2.846299   -1.075225   -0.798047
     11          6           0       -2.249228   -1.774301    0.347181
     12          6           0       -1.574720   -0.891571    1.105061
     13          1           0        3.857395   -2.048902    1.130946
     14          1           0        4.263254   -2.138160   -0.576644
     15          1           0        2.722386   -2.802732   -0.004073
     16          1           0        3.424169    0.220515    0.001566
     17          1           0        0.863844   -1.357211   -0.535968
     18          1           0        0.512331    0.881602   -1.736809
     19          1           0        1.609208    2.918516   -0.950298
     20          1           0        2.331714    2.059921    0.427658
     21          1           0       -0.205582    3.138695    1.279969
     22          1           0       -2.271003    1.131404    1.193692
     23          1           0       -2.823605    1.011416   -1.425184
     24          1           0       -3.448299   -1.554878   -1.560096
     25          1           0       -2.355244   -2.835167    0.538219
     26          1           0       -1.020860   -1.089387    2.012547
 ---------------------------------------------------------------------

 SCF Done:  E(RB3LYP) =  -465.624751453     A.U. after    1 cycles

 The electronic state is 1-A.
 Alpha  occ. eigenvalues --  -10.19548 -10.18771 -10.18513 -10.18165 -10.18122
 Alpha  occ. eigenvalues --  -10.17905 -10.17896 -10.17872 -10.17398 -10.17359
 Alpha  occ. eigenvalues --  -10.17289 -10.16959  -0.86693  -0.84355  -0.77748
 Alpha  occ. eigenvalues --   -0.72104  -0.70299  -0.69604  -0.63030  -0.62188
 Alpha  occ. eigenvalues --   -0.55327  -0.53832  -0.53053  -0.51257  -0.49444
 Alpha  occ. eigenvalues --   -0.46667  -0.46096  -0.41884  -0.40839  -0.40162
 Alpha  occ. eigenvalues --   -0.39627  -0.39061  -0.36633  -0.36441  -0.35250
 Alpha  occ. eigenvalues --   -0.34499  -0.33646  -0.32563  -0.31147  -0.29019
 Alpha  occ. eigenvalues --   -0.23996  -0.23194  -0.21427
 Alpha virt. eigenvalues --   -0.01702   0.02155   0.04060   0.08692   0.11565
 Alpha virt. eigenvalues --    0.11759   0.12414   0.12524   0.14146   0.14310
 Alpha virt. eigenvalues --    0.15137   0.16723   0.16987   0.17385   0.17464

 Mulliken charges:
               1
     1  C   -0.422393
     2  C   -0.043648
     3  C   -0.057343
     4  C   -0.137799
     5  C   -0.277491
     6  C   -0.226273
     7  C    0.361374
     8  C   -0.203520
     9  C   -0.108743
    10  C   -0.099815
    11  C   -0.102952
    12  C   -0.102601
    13  H    0.121080
    14  H    0.121323
    15  H    0.117173
    16  H    0.077888
    17  H    0.088967
    18  H    0.085373
    19  H    0.099821
    20  H    0.107616
    21  H    0.090039
    22  H    0.105428
    23  H    0.103227
    24  H    0.098410
    25  H    0.098252
    26  H    0.106607
 Sum of Mulliken charges =  -0.00000

 Dipole moment (field-independent basis, Debye):
    X=             -0.2101    Y=             -0.0303    Z=              0.0688  Tot=              0.2231
 Quadrupole moment (field-independent basis, Debye-Ang):
   XX=            -70.3025   YY=            -68.3282   ZZ=            -71.1004
   XY=              0.3194   XZ=              1.6061   YZ=              0.1460

  Exact polarizability: 136.080   7.040 138.159  12.363   2.702  93.223
 Approx polarizability: 189.817  17.739 212.499  26.032   9.300 154.761

                      1                      2                      3
                      A                      A                      A
 Frequencies --     33.2956                52.6300                89.8026
 Red. masses --      3.4394                 2.8253                 2.7142
 Frc consts  --      0.0022                 0.0046                 0.0129
 IR Inten    --      0.0111                 0.1090                 0.2794

                      4                      5                      6
                      A                      A                      A
 Frequencies --    122.5870               134.0582               172.3023
 Red. masses --      2.3699                 2.3966                 3.2321
 Frc consts  --      0.0210                 0.0254                 0.0565
 IR Inten    --      0.0963                 0.4802                 0.6459

                      7                      8                      9
                      A                      A                      A
 Frequencies --    213.5358               254.4670               258.7330
 Red. masses --      1.3511                 2.2874                 3.6359
 Frc consts  --      0.0363                 0.0873                 0.1434
 IR Inten    --      0.7144                 0.6158                 0.4286

                     10                     11                     12
                      A                      A                      A
 Frequencies --    349.4101               388.1247               420.7207
 Red. masses --      2.9068                 2.9955                 4.1777
 Frc consts  --      0.2091                 0.2659                 0.4357
 IR Inten    --      0.3448                 2.4380                 0.3942

                     13                     14                     15
                      A                      A                      A
 Frequencies --    506.2959               562.5342               652.0789
 Red. masses --      3.2931                 2.6476                 2.5292
 Frc consts  --      0.4973                 0.4936                 0.6336
 IR Inten    --      3.0476                 0.1972                 1.9310

                     16                     17                     18
                      A                      A                      A
 Frequencies --    689.8734               736.8928               761.0219
 Red. masses --      1.6456                 1.3056                 2.4984
 Frc consts  --      0.4614                 0.4177                 0.8525
 IR Inten    --     24.8116                 0.2781                 5.9525

                     19                     20                     21
                      A                      A                      A
 Frequencies --    797.5898               809.3424               825.4192
 Red. masses --      1.7348                 4.5639                 1.9666
 Frc consts  --      0.6502                 1.7614                 0.7894
 IR Inten    --     29.0758                 9.3207                20.6503

                     22                     23                     24
                      A                      A                      A
 Frequencies --    838.7380               868.4542               914.1329
 Red. masses --      3.1394                 1.5535                 3.0423
 Frc consts  --      1.3012                 0.6903                 1.4979
 IR Inten    --     14.5161                12.0106                 0.2225

                     25                     26                     27
                      A                      A                      A
 Frequencies --    937.2412               943.1692               955.0234
 Red. masses --      2.1322                 1.6603                 1.3744
 Frc consts  --      1.1035                 0.8702                 0.7386
 IR Inten    --     18.1374                 9.7785                 0.8547

                     28                     29                     30
                      A                      A                      A
 Frequencies --    958.3988               959.4096              1007.9265
 Red. masses --      1.6949                 1.4122                 1.7854
 Frc consts  --      0.9173                 0.7658                 1.0687
 IR Inten    --      2.5370                 0.7318                 5.8312

                     31                     32                     33
                      A                      A                      A
 Frequencies --   1010.8915              1018.2306              1026.3053
 Red. masses --      2.2547                 1.2535                 1.7853
 Frc consts  --      1.3575                 0.7657                 1.1080
 IR Inten    --      1.0423                16.2234                 7.9848

                     34                     35                     36
                      A                      A                      A
 Frequencies --   1067.6176              1095.0728              1102.1157
 Red. masses --      1.5347                 1.3128                 1.9527
 Frc consts  --      1.0306                 0.9275                 1.3974
 IR Inten    --      0.3841                 5.0790                 5.8681

                     37                     38                     39
                      A                      A                      A
 Frequencies --   1112.9360              1118.1323              1139.3984
 Red. masses --      1.1344                 1.2074                 1.6622
 Frc consts  --      0.8279                 0.8894                 1.2714
 IR Inten    --      2.0675                 0.8997                 0.3281

                     40                     41                     42
                      A                      A                      A
 Frequencies --   1181.2079              1195.5921              1209.3803
 Red. masses --      1.4595                 2.1545                 1.6871
 Frc consts  --      1.1998                 1.8145                 1.4538
 IR Inten    --      1.0303                 0.8543                 4.6713

                     43                     44                     45
                      A                      A                      A
 Frequencies --   1214.0255              1254.1540              1297.4988
 Red. masses --      1.6767                 1.8389                 1.8531
 Frc consts  --      1.4560                 1.7042                 1.8381
 IR Inten    --      2.1653                12.8649                12.9257

                     46                     47                     48
                      A                      A                      A
 Frequencies --   1306.7589              1319.5691              1331.5209
 Red. masses --      1.4874                 1.7559                 1.3451
 Frc consts  --      1.4965                 1.8015                 1.4051
 IR Inten    --      0.3001                 0.6909                 9.2772

                     49                     50                     51
                      A                      A                      A
 Frequencies --   1340.0616              1398.2387              1411.3666
 Red. masses --      1.2920                 1.9308                 1.2544
 Frc consts  --      1.3670                 2.2241                 1.4722
 IR Inten    --      4.5986                 2.5652                 2.0379

                     52                     53                     54
                      A                      A                      A
 Frequencies --   1476.3578              1480.3995              1492.8493
 Red. masses --      1.1142                 1.0450                 1.0526
 Frc consts  --      1.4308                 1.3493                 1.3821
 IR Inten    --      0.5985                 4.1692                 6.8266

                     55                     56                     57
                      A                      A                      A
 Frequencies --   1555.7998              1643.1170              1698.4372
 Red. masses --      6.7702                 5.4501                 7.5712
 Frc consts  --      9.6551                 8.6694                12.8681
 IR Inten    --      0.8725                 0.4114                15.8293

                     58                     59                     60
                      A                      A                      A
 Frequencies --   1739.6390              2985.5857              2992.7659
 Red. masses --      6.2145                 1.0797                 1.0819
 Frc consts  --     11.0809                 5.6706                 5.7091
 IR Inten    --      0.5625                10.3334                22.7358

                     61                     62                     63
                      A                      A                      A
 Frequencies --   3014.9299              3040.6111              3060.2297
 Red. masses --      1.0373                 1.0595                 1.0987
 Frc consts  --      5.5556                 5.7713                 6.0624
 IR Inten    --     41.6555                52.6528                23.2598

                     64                     65                     66
                      A                      A                      A
 Frequencies --   3089.1358              3102.0515              3127.7998
 Red. masses --      1.1031                 1.0982                 1.0882
 Frc consts  --      6.2022                 6.2264                 6.2723
 IR Inten    --     23.9556                12.0032                 8.8881

                     67                     68                     69
                      A                      A                      A
 Frequencies --   3143.7970              3182.3152              3198.3090
 Red. masses --      1.0874                 1.0987                 1.0857
 Frc consts  --      6.3321                 6.5555                 6.5436
 IR Inten    --     30.1518                24.6032                 5.5051

                     70                     71                     72
                      A                      A                      A
 Frequencies --   3209.5214              3231.1329              3237.3384
 Red. masses --      1.0886                 1.1002                 1.1056
 Frc consts  --      6.6066                 6.7676                 6.8268
 IR Inten    --     11.3491                13.7684                 5.1738

 - Thermochemistry -
 -------------------
 Temperature   298.150 Kelvin.  Pressure   1.00000 Atm.
 Atom     1 has atomic number  6 and mass  12.00000

 Molecular mass:   158.10955 amu.
 Principal axes and moments of inertia in atomic units:
                           1         2         3
     Eigenvalues --  1386.194722686.719523609.75224
           X            0.99974  -0.02217   0.00502
           Y            0.02219   0.99974  -0.00450
           Z           -0.00492   0.00461   0.99998
 This molecule is an asymmetric top.
 Rotational symmetry number  1.
 Warning -- assumption of classical behavior for rotation
           may cause significant error
 Rotational temperatures (Kelvin)      0.06248     0.03224     0.02399
 Rotational constants (GHZ):           1.30194     0.67173     0.49996
 Zero-point vibrational energy     580580.1 (Joules/Mol)
                                  138.76197 (Kcal/Mol)
 Warning -- explicit consideration of  14 degrees of freedom as
           vibrations may cause significant error
 Vibrational temperatures:     47.90    75.72   129.21   176.38   192.88
          (Kelvin)            247.90   307.23   366.12   372.26   502.72
                              558.42   605.32   728.45   809.36   938.20
                              992.57  1060.22  1094.94  1147.55  1164.46
                             1187.59  1206.76  1249.51  1315.23  1348.48
                             1357.01  1374.07  1378.92  1380.38  1450.18
                             1454.45  1465.01  1476.62  1536.06  1575.57
                             1585.70  1601.27  1608.74  1639.34  1699.49
                             1720.19  1740.03  1746.71  1804.45  1866.81
                             1880.13  1898.57  1915.76  1928.05  2011.75
                             2030.64  2124.15  2129.96  2147.88  2238.45
                             2364.08  2443.67  2502.95  4295.59  4305.92
                             4337.81  4374.76  4402.99  4444.58  4463.16
                             4500.21  4523.22  4578.64  4601.65  4617.79
                             4648.88  4657.81

 Zero-point correction=                           0.221131 (Hartree/Particle)
 Thermal correction to Energy=                    0.232783
 Thermal correction to Enthalpy=                  0.233727
 Thermal correction to Gibbs Free Energy=         0.182413
 Sum of electronic and zero-point Energies=           -465.403620
 Sum of electronic and thermal Energies=              -465.391969
 Sum of electronic and thermal Enthalpies=            -465.391025
 Sum of electronic and thermal Free Energies=         -465.442338

                     E (Thermal)             CV                S
                      KCal/Mol        Cal/Mol-Kelvin    Cal/Mol-Kelvin
 Total                  146.073             44.115            107.998
 Electronic               0.000              0.000              0.000
 Translational            0.889              2.981             41.084
 Rotational               0.889              2.981             30.975
 Vibrational            144.296             38.154             35.939
 Vibration     1          0.594              1.983              5.623
 Vibration     2          0.596              1.977              4.716
 Vibration     3          0.602              1.956              3.664
 Vibration     4          0.610              1.930              3.059
 Vibration     5          0.613              1.919              2.887
 Vibration     6          0.626              1.877              2.410
 Vibration     7          0.644              1.820              2.013
 Vibration     8          0.665              1.755              1.699
 Vibration     9          0.668              1.748              1.670
 Vibration    10          0.727              1.576              1.169
 Vibration    11          0.756              1.496              1.007
 Vibration    12          0.783              1.425              0.890
 Vibration    13          0.862              1.236              0.643
 Vibration    14          0.918              1.112              0.519

                           ! Non-Optimized Parameters !
 Normal termination of Gaussian 16 at Mon May 22 20:06:22 2023.
