 Gaussian 16, Revision A.03,
 Gaussian 16:  ES64L-G16RevA.03 25-Dec-2016

 -----------------------------
 # opt freq b3lyp/6-31g(2df,p)
 -----------------------------

 -------------------
 Title Card Required
 -------------------
 Symbolic Z-matrix:
 Charge =  0 Multiplicity = 1

 SCF Done:  E(RB3LYP) =  -585.087161600     A.U. after   13 cycles
 SCF Done:  E(RB3LYP) =  -585.095624495     A.U. after   12 cycles
 SCF Done:  E(RB3LYP) =  -585.097748522     A.U. after   11 cycles
 SCF Done:  E(RB3LYP) =  -585.098840121     A.U. after   10 cycles
 SCF Done:  E(RB3LYP) =  -585.099200389     A.U. after   10 cycles
 SCF Done:  E(RB3LYP) =  -585.099374976     A.U. after   10 cycles
 SCF Done:  E(RB3LYP) =  -585.099408205     A.U. after    9 cycles
 SCF Done:  E(RB3LYP) =  -585.099485683     A.U. after   10 cycles
 SCF Done:  E(RB3LYP) =  -585.099521432     A.U. after   10 cycles
 SCF Done:  E(RB3LYP) =  -585.099523876     A.U. after    7 cycles
 SCF Done:  E(RB3LYP) =  -585.100777313     A.U. after   10 cycles
 SCF Done:  E(RB3LYP) =  -585.100885483     A.U. after    9 cycles
 SCF Done:  E(RB3LYP) =  -585.100929668     A.U. after   11 cycles
 SCF Done:  E(RB3LYP) =  -585.100995492     A.U. after   10 cycles
 SCF Done:  E(RB3LYP) =  -585.101010456     A.U. after    9 cycles
 SCF Done:  E(RB3LYP) =  -585.101011970     A.U. after    9 cycles
 SCF Done:  E(RB3LYP) =  -585.101012691     A.U. after    9 cycles
 SCF Done:  E(RB3LYP) =  -585.101012864     A.U. after    7 cycles
 SCF Done:  E(RB3LYP) =  -585.101012900     A.U. after    6 cycles
 Optimization completed.
    -- Stationary point found.
 Normal termination of Gaussian 16 at Tue May 23 03:35:59 2023.

 ----------------------------------------------------------------------
 #N Geom=AllCheck Guess=TCheck SCRF=Check GenChk RB3LYP/6-31G(2df,p) Fr
 eq
 ----------------------------------------------------------------------

 Structure from the checkpoint file:  "CCdC1CCCqCCqOrCCCCrC1.chk"
 -------------------
 Title Card Required
 -------------------
 Charge =  0 Multiplicity = 1

                         Standard orientation:
 ---------------------------------------------------------------------
 Center     Atomic      Atomic             Coordinates (Angstroms)
 Number     Number       Type             X           Y           Z
 ---------------------------------------------------------------------
      1          6           0        4.412516    2.148063   -0.749789
      2          6           0        3.472082    1.540070    0.250520
      3          6           0        3.017037    0.287687    0.244098
      4          6           0        3.308831   -0.780828   -0.805361
      5          6           0        2.470237   -2.005974   -0.366225
      6          6           0        1.327869   -1.421382    0.498015
      7          6           0        0.158746   -0.920811   -0.371096
      8          6           0       -1.095087   -0.456573    0.386099
      9          8           0       -0.872315    0.749537    1.123402
     10          6           0       -2.306561   -0.309646   -0.546919
     11          6           0       -3.593309    0.096930    0.177539
     12          6           0       -4.783898    0.303671   -0.764329
     13          6           0       -6.067099    0.703469   -0.030826
     14          6           0        2.066911   -0.302921    1.268734
     15          1           0        3.979280    3.045576   -1.209968
     16          1           0        4.670556    1.451168   -1.551353
     17          1           0        5.348110    2.468118   -0.272600
     18          1           0        3.150327    2.199739    1.056057
     19          1           0        4.375343   -1.020431   -0.874768
     20          1           0        3.008499   -0.435579   -1.802013
     21          1           0        3.083201   -2.671148    0.252304
     22          1           0        2.107554   -2.597648   -1.212299
     23          1           0        0.936714   -2.179688    1.186365
     24          1           0       -0.139703   -1.735096   -1.044276
     25          1           0        0.495123   -0.099944   -1.022350
     26          1           0       -1.337657   -1.198235    1.159478
     27          1           0       -0.602844    1.426304    0.491527
     28          1           0       -2.462243   -1.258148   -1.077683
     29          1           0       -2.065348    0.434976   -1.321552
     30          1           0       -3.404957    1.013712    0.747806
     31          1           0       -3.846977   -0.673017    0.919979
     32          1           0       -4.960962   -0.616708   -1.337138
     33          1           0       -4.530371    1.074347   -1.504866
     34          1           0       -6.366286   -0.065359    0.690351
     35          1           0       -6.899131    0.848058   -0.727255
     36          1           0       -5.929947    1.638301    0.524003
     37          1           0        2.644263   -0.765811    2.082666
     38          1           0        1.396315    0.429689    1.717619
 ---------------------------------------------------------------------

 SCF Done:  E(RB3LYP) =  -585.101012900     A.U. after    1 cycles

 The electronic state is 1-A.
 Alpha  occ. eigenvalues --  -19.13278 -10.22634 -10.17977 -10.17600 -10.17587
 Alpha  occ. eigenvalues --  -10.17560 -10.17526 -10.17381 -10.17278 -10.17276
 Alpha  occ. eigenvalues --  -10.17079 -10.16864 -10.16567 -10.16505  -1.01314
 Alpha  occ. eigenvalues --   -0.83899  -0.79633  -0.77340  -0.75079  -0.71874
 Alpha  occ. eigenvalues --   -0.69973  -0.67700  -0.63459  -0.60771  -0.59313
 Alpha  occ. eigenvalues --   -0.57481  -0.54581  -0.50803  -0.48408  -0.47233
 Alpha  occ. eigenvalues --   -0.46669  -0.44958  -0.44350  -0.43529  -0.42008
 Alpha  occ. eigenvalues --   -0.41577  -0.40097  -0.39750  -0.39299  -0.37860
 Alpha  occ. eigenvalues --   -0.37361  -0.36954  -0.35850  -0.34214  -0.33970
 Alpha  occ. eigenvalues --   -0.33539  -0.33235  -0.32620  -0.32014  -0.31744
 Alpha  occ. eigenvalues --   -0.31222  -0.30441  -0.30277  -0.25696  -0.22184
 Alpha virt. eigenvalues --    0.02924   0.07207   0.09399   0.09904   0.10567
 Alpha virt. eigenvalues --    0.11738   0.12269   0.13078   0.13673   0.14422
 Alpha virt. eigenvalues --    0.14676   0.15104   0.16276   0.16375   0.16809

 Mulliken charges:
               1
     1  C   -0.433098
     2  C   -0.190132
     3  C    0.371826
     4  C   -0.303919
     5  C   -0.236755
     6  C   -0.008737
     7  C   -0.201709
     8  C    0.107221
     9  O   -0.420383
    10  C   -0.200680
    11  C   -0.157870
    12  C   -0.165389
    13  C   -0.378679
    14  C   -0.310837
    15  H    0.118255
    16  H    0.116406
    17  H    0.122827
    18  H    0.071276
    19  H    0.106094
    20  H    0.108430
    21  H    0.095000
    22  H    0.087990
    23  H    0.060536
    24  H    0.091595
    25  H    0.087680
    26  H    0.083722
    27  H    0.276766
    28  H    0.092213
    29  H    0.081222
    30  H    0.105205
    31  H    0.088888
    32  H    0.090921
    33  H    0.090652
    34  H    0.112997
    35  H    0.108784
    36  H    0.113944
    37  H    0.096183
    38  H    0.121555
 Sum of Mulliken charges =  -0.00000

 Dipole moment (field-independent basis, Debye):
    X=              0.0322    Y=             -0.3275    Z=             -1.3627  Tot=              1.4019
 Quadrupole moment (field-independent basis, Debye-Ang):
   XX=            -90.7232   YY=            -86.1867   ZZ=            -91.6157
   XY=              0.5298   XZ=              0.6783   YZ=             -1.6710

  Exact polarizability: 169.223   9.319 145.430  -4.436  -0.373 121.979
 Approx polarizability: 192.054  14.093 219.930  -5.074  -0.749 189.180

                      1                      2                      3
                      A                      A                      A
 Frequencies --     24.6543                28.3490                52.8845
 Red. masses --      3.4691                 3.1984                 2.8065
 Frc consts  --      0.0012                 0.0015                 0.0046
 IR Inten    --      0.2598                 0.4257                 0.0800

                      4                      5                      6
                      A                      A                      A
 Frequencies --     66.0615                81.4513               110.5040
 Red. masses --      2.5761                 2.1742                 2.5165
 Frc consts  --      0.0066                 0.0085                 0.0181
 IR Inten    --      0.0506                 0.4194                 0.0572

                      7                      8                      9
                      A                      A                      A
 Frequencies --    127.1301               137.3141               165.3823
 Red. masses --      1.2611                 1.7927                 2.3139
 Frc consts  --      0.0120                 0.0199                 0.0373
 IR Inten    --      0.3010                 0.1460                 0.4685

                     10                     11                     12
                      A                      A                      A
 Frequencies --    200.3081               207.6510               213.5054
 Red. masses --      3.0126                 2.9725                 2.6401
 Frc consts  --      0.0712                 0.0755                 0.0709
 IR Inten    --      0.8820                 0.6142                 3.2341

                     13                     14                     15
                      A                      A                      A
 Frequencies --    245.8497               271.6438               294.9976
 Red. masses --      1.1174                 2.6043                 1.5909
 Frc consts  --      0.0398                 0.1132                 0.0816
 IR Inten    --      0.1310                 8.8601                53.2774

                     16                     17                     18
                      A                      A                      A
 Frequencies --    316.2007               337.4438               389.8243
 Red. masses --      3.2516                 1.7524                 2.1458
 Frc consts  --      0.1915                 0.1176                 0.1921
 IR Inten    --      6.7538                98.0666                 0.8606

                     19                     20                     21
                      A                      A                      A
 Frequencies --    438.9140               442.6138               471.7267
 Red. masses --      1.9625                 2.4309                 2.8022
 Frc consts  --      0.2228                 0.2806                 0.3674
 IR Inten    --      0.5471                 0.2012                 1.0048

                     22                     23                     24
                      A                      A                      A
 Frequencies --    497.9890               547.9911               604.0911
 Red. masses --      2.3538                 2.7816                 2.9203
 Frc consts  --      0.3439                 0.4921                 0.6279
 IR Inten    --      2.5401                17.1641                 6.0122

                     25                     26                     27
                      A                      A                      A
 Frequencies --    697.8793               736.8984               761.6426
 Red. masses --      2.5803                 1.0862                 1.8946
 Frc consts  --      0.7404                 0.3475                 0.6475
 IR Inten    --      2.8865                 2.3704                 0.4355

                     28                     29                     30
                      A                      A                      A
 Frequencies --    791.4726               825.0947               836.2126
 Red. masses --      1.2722                 1.9292                 2.6489
 Frc consts  --      0.4696                 0.7738                 1.0913
 IR Inten    --      0.8656                 5.3507                 0.5952

                     31                     32                     33
                      A                      A                      A
 Frequencies --    862.4264               876.7712               899.8971
 Red. masses --      1.7015                 2.1885                 1.8417
 Frc consts  --      0.7456                 0.9912                 0.8787
 IR Inten    --      5.1712                 4.5251                 2.9650

                     34                     35                     36
                      A                      A                      A
 Frequencies --    912.5015               918.8122               946.4300
 Red. masses --      1.5747                 2.0126                 1.8301
 Frc consts  --      0.7725                 1.0011                 0.9658
 IR Inten    --      0.5237                 1.4583                 8.1021

                     37                     38                     39
                      A                      A                      A
 Frequencies --    971.7319               983.8035              1004.9027
 Red. masses --      1.7301                 1.9716                 1.8374
 Frc consts  --      0.9625                 1.1243                 1.0932
 IR Inten    --     16.7573                 6.0685                 1.1714

                     40                     41                     42
                      A                      A                      A
 Frequencies --   1021.9527              1042.7795              1054.0020
 Red. masses --      2.7456                 1.9668                 1.8709
 Frc consts  --      1.6895                 1.2600                 1.2246
 IR Inten    --      4.1151                 5.2780                 6.1645

                     43                     44                     45
                      A                      A                      A
 Frequencies --   1059.3826              1062.0086              1072.2992
 Red. masses --      1.9711                 1.5570                 2.1953
 Frc consts  --      1.3033                 1.0346                 1.4872
 IR Inten    --      0.8572                 1.7226                 1.4784

                     46                     47                     48
                      A                      A                      A
 Frequencies --   1079.8018              1095.7957              1120.8738
 Red. masses --      2.5674                 1.8859                 1.5681
 Frc consts  --      1.7637                 1.3342                 1.1608
 IR Inten    --     12.0267                32.7784                 7.1520

                     49                     50                     51
                      A                      A                      A
 Frequencies --   1138.5912              1162.4250              1172.4384
 Red. masses --      1.7191                 1.4159                 1.2869
 Frc consts  --      1.3131                 1.1273                 1.0422
 IR Inten    --     19.8715                 4.7135                 2.3965

                     52                     53                     54
                      A                      A                      A
 Frequencies --   1192.8350              1199.7683              1232.7132
 Red. masses --      1.6801                 2.2488                 1.5249
 Frc consts  --      1.4085                 1.9072                 1.3652
 IR Inten    --      1.6956                 3.6964                 1.6583

                     55                     56                     57
                      A                      A                      A
 Frequencies --   1251.9345              1256.8296              1271.0266
 Red. masses --      1.3653                 1.3202                 1.3743
 Frc consts  --      1.2608                 1.2287                 1.3081
 IR Inten    --      2.8503                 5.6628                 1.8125

                     58                     59                     60
                      A                      A                      A
 Frequencies --   1296.3461              1304.0664              1313.0626
 Red. masses --      1.3034                 1.2527                 1.2386
 Frc consts  --      1.2906                 1.2552                 1.2582
 IR Inten    --      0.2303                 2.7583                 1.8082

                     61                     62                     63
                      A                      A                      A
 Frequencies --   1324.6499              1329.6273              1339.9490
 Red. masses --      1.3234                 1.1759                 1.4016
 Frc consts  --      1.3682                 1.2248                 1.4827
 IR Inten    --      6.7211                 1.6777                 0.6034

                     64                     65                     66
                      A                      A                      A
 Frequencies --   1356.3670              1365.7750              1377.6533
 Red. masses --      1.3416                 1.3546                 1.4564
 Frc consts  --      1.4543                 1.4888                 1.6286
 IR Inten    --      4.7681                 0.5381                 2.5161

                     67                     68                     69
                      A                      A                      A
 Frequencies --   1387.5006              1396.7358              1400.6152
 Red. masses --      1.4769                 1.5899                 1.4984
 Frc consts  --      1.6752                 1.8275                 1.7318
 IR Inten    --      5.2673                 4.3229                 9.8119

                     70                     71                     72
                      A                      A                      A
 Frequencies --   1411.3961              1413.2200              1419.0973
 Red. masses --      1.2687                 1.2496                 1.2016
 Frc consts  --      1.4891                 1.4704                 1.4258
 IR Inten    --      1.1689                 0.3280                33.7127

                     73                     74                     75
                      A                      A                      A
 Frequencies --   1468.9394              1478.4924              1481.6196
 Red. masses --      1.0898                 1.0765                 1.0858
 Frc consts  --      1.3855                 1.3865                 1.4044
 IR Inten    --      0.6459                 2.0535                 3.4764

                     76                     77                     78
                      A                      A                      A
 Frequencies --   1482.7844              1484.9661              1486.6495
 Red. masses --      1.0884                 1.0464                 1.0635
 Frc consts  --      1.4099                 1.3595                 1.3849
 IR Inten    --      6.2595                 1.7896                 0.7355

                     79                     80                     81
                      A                      A                      A
 Frequencies --   1491.3662              1499.4714              1500.1885
 Red. masses --      1.0572                 1.0402                 1.0721
 Frc consts  --      1.3854                 1.3780                 1.4216
 IR Inten    --      5.0123                 4.8799                 0.1573

                     82                     83                     84
                      A                      A                      A
 Frequencies --   1503.0146              1513.5800              1754.4011
 Red. masses --      1.0965                 1.0892                 7.9820
 Frc consts  --      1.4594                 1.4702                14.4750
 IR Inten    --      2.3294                 2.9383                 0.9367

                     85                     86                     87
                      A                      A                      A
 Frequencies --   2988.0294              2994.6619              2997.8847
 Red. masses --      1.0647                 1.0703                 1.0666
 Frc consts  --      5.6006                 5.6550                 5.6479
 IR Inten    --      4.7103                37.1483                 1.4865

                     88                     89                     90
                      A                      A                      A
 Frequencies --   3006.0427              3013.5511              3014.0571
 Red. masses --      1.0617                 1.0677                 1.0394
 Frc consts  --      5.6526                 5.7130                 5.5631
 IR Inten    --      2.4829                28.4366                42.4022

                     91                     92                     93
                      A                      A                      A
 Frequencies --   3020.6190              3027.1691              3027.9722
 Red. masses --      1.0794                 1.0651                 1.0661
 Frc consts  --      5.8028                 5.7508                 5.7590
 IR Inten    --     29.4561                34.0272                 5.7810

                     94                     95                     96
                      A                      A                      A
 Frequencies --   3028.3952              3035.1515              3036.1559
 Red. masses --      1.0467                 1.0870                 1.0959
 Frc consts  --      5.6559                 5.8996                 5.9522
 IR Inten    --     55.5962                10.4001                16.0302

                     97                     98                     99
                      A                      A                      A
 Frequencies --   3041.9274              3052.1314              3055.2481
 Red. masses --      1.0811                 1.0955                 1.0983
 Frc consts  --      5.8939                 6.0125                 6.0404
 IR Inten    --     12.0776                72.9221                30.8816

                    100                    101                    102
                      A                      A                      A
 Frequencies --   3061.1799              3073.3256              3085.0347
 Red. masses --      1.0938                 1.0991                 1.1038
 Frc consts  --      6.0392                 6.1164                 6.1895
 IR Inten    --     31.9618                44.1186                44.7351

                    103                    104                    105
                      A                      A                      A
 Frequencies --   3095.1471              3099.5770              3108.0432
 Red. masses --      1.1019                 1.1011                 1.0939
 Frc consts  --      6.2195                 6.2327                 6.2258
 IR Inten    --     60.4414                39.8838                 5.0095

                    106                    107                    108
                      A                      A                      A
 Frequencies --   3128.0523              3132.2532              3790.5773
 Red. masses --      1.0909                 1.0892                 1.0658
 Frc consts  --      6.2891                 6.2962                 9.0223
 IR Inten    --     20.9887                17.4397                 9.4158

 - Thermochemistry -
 -------------------
 Temperature   298.150 Kelvin.  Pressure   1.00000 Atm.
 Atom     1 has atomic number  6 and mass  12.00000

 Molecular mass:   196.18272 amu.
 Principal axes and moments of inertia in atomic units:
                           1         2         3
     Eigenvalues --  1289.771157756.170048279.44854
           X            1.00000   0.00071  -0.00203
           Y           -0.00074   0.99990  -0.01381
           Z            0.00202   0.01381   0.99990
 This molecule is an asymmetric top.
 Rotational symmetry number  1.
 Warning -- assumption of classical behavior for rotation
           may cause significant error
 Rotational temperatures (Kelvin)      0.06715     0.01117     0.01046
 Rotational constants (GHZ):           1.39927     0.23268     0.21798
 Zero-point vibrational energy     910849.5 (Joules/Mol)
                                  217.69824 (Kcal/Mol)
 Warning -- explicit consideration of  24 degrees of freedom as
           vibrations may cause significant error
 Vibrational temperatures:     35.47    40.79    76.09    95.05   117.19
          (Kelvin)            158.99   182.91   197.56   237.95   288.20
                              298.76   307.19   353.72   390.83   424.44
                              454.94   485.51   560.87   631.50   636.82
                              678.71   716.50   788.44   869.15  1004.09
                             1060.23  1095.83  1138.75  1187.13  1203.12
                             1240.84  1261.48  1294.75  1312.89  1321.97
                             1361.70  1398.11  1415.47  1445.83  1470.36
                             1500.33  1516.47  1524.22  1527.99  1542.80
                             1553.59  1576.61  1612.69  1638.18  1672.47
                             1686.88  1716.22  1726.20  1773.60  1801.25
                             1808.30  1828.72  1865.15  1876.26  1889.20
                             1905.88  1913.04  1927.89  1951.51  1965.05
                             1982.14  1996.30  2009.59  2015.17  2030.68
                             2033.31  2041.76  2113.48  2127.22  2131.72
                             2133.40  2136.54  2138.96  2145.74  2157.40
                             2158.44  2162.50  2177.70  2524.19  4299.11
                             4308.65  4313.29  4325.03  4335.83  4336.56
                             4346.00  4355.42  4356.58  4357.19  4366.91
                             4368.35  4376.66  4391.34  4395.82  4404.36
                             4421.83  4438.68  4453.23  4459.60  4471.78
                             4500.57  4506.61  5453.80

 Zero-point correction=                           0.346924 (Hartree/Particle)
 Thermal correction to Energy=                    0.363649
 Thermal correction to Enthalpy=                  0.364593
 Thermal correction to Gibbs Free Energy=         0.301087
 Sum of electronic and zero-point Energies=           -584.754089
 Sum of electronic and thermal Energies=              -584.737364
 Sum of electronic and thermal Enthalpies=            -584.736420
 Sum of electronic and thermal Free Energies=         -584.799926

                     E (Thermal)             CV                S
                      KCal/Mol        Cal/Mol-Kelvin    Cal/Mol-Kelvin
 Total                  228.193             62.047            133.660
 Electronic               0.000              0.000              0.000
 Translational            0.889              2.981             41.727
 Rotational               0.889              2.981             32.782
 Vibrational            226.416             56.085             59.151
 Vibration     1          0.593              1.985              6.219
 Vibration     2          0.593              1.984              5.942
 Vibration     3          0.596              1.976              4.706
 Vibration     4          0.597              1.970              4.267
 Vibration     5          0.600              1.962              3.856
 Vibration     6          0.606              1.941              3.260
 Vibration     7          0.611              1.926              2.989
 Vibration     8          0.614              1.916              2.841
 Vibration     9          0.624              1.885              2.487
 Vibration    10          0.638              1.839              2.130
 Vibration    11          0.641              1.829              2.064
 Vibration    12          0.644              1.820              2.013
 Vibration    13          0.660              1.770              1.760
 Vibration    14          0.675              1.726              1.586
 Vibration    15          0.689              1.683              1.445
 Vibration    16          0.703              1.643              1.330
 Vibration    17          0.718              1.601              1.224
 Vibration    18          0.758              1.492              1.001
 Vibration    19          0.799              1.385              0.830
 Vibration    20          0.802              1.377              0.818
 Vibration    21          0.829              1.313              0.733
 Vibration    22          0.853              1.254              0.663
 Vibration    23          0.903              1.144              0.548
 Vibration    24          0.963              1.023              0.443

 Optimization completed.
    -- Stationary point found.
 Normal termination of Gaussian 16 at Tue May 23 06:18:14 2023.
