 Gaussian 16, Revision A.03,
 Gaussian 16:  ES64L-G16RevA.03 25-Dec-2016

 -----------------------------
 # opt freq b3lyp/6-31g(2df,p)
 -----------------------------

 -------------------
 Title Card Required
 -------------------
 Symbolic Z-matrix:
 Charge =  0 Multiplicity = 1

 SCF Done:  E(RB3LYP) =  -469.327721614     A.U. after   13 cycles
 SCF Done:  E(RB3LYP) =  -469.331806732     A.U. after   11 cycles
 SCF Done:  E(RB3LYP) =  -469.332302442     A.U. after   10 cycles
 SCF Done:  E(RB3LYP) =  -469.332477626     A.U. after   10 cycles
 SCF Done:  E(RB3LYP) =  -469.332553317     A.U. after   10 cycles
 SCF Done:  E(RB3LYP) =  -469.332614392     A.U. after   10 cycles
 SCF Done:  E(RB3LYP) =  -469.332651815     A.U. after   10 cycles
 SCF Done:  E(RB3LYP) =  -469.332637831     A.U. after   10 cycles
 SCF Done:  E(RB3LYP) =  -469.332823844     A.U. after    9 cycles
 SCF Done:  E(RB3LYP) =  -469.332600168     A.U. after   11 cycles
 SCF Done:  E(RB3LYP) =  -469.335387578     A.U. after   11 cycles
 SCF Done:  E(RB3LYP) =  -469.335395347     A.U. after   11 cycles
 SCF Done:  E(RB3LYP) =  -469.334521170     A.U. after   12 cycles
 SCF Done:  E(RB3LYP) =  -469.334920081     A.U. after   11 cycles
 SCF Done:  E(RB3LYP) =  -469.335586984     A.U. after    8 cycles
 SCF Done:  E(RB3LYP) =  -469.335700492     A.U. after   11 cycles
 SCF Done:  E(RB3LYP) =  -469.335844615     A.U. after   10 cycles
 SCF Done:  E(RB3LYP) =  -469.335846236     A.U. after    7 cycles
 SCF Done:  E(RB3LYP) =  -469.335846303     A.U. after    6 cycles
 Optimization completed.
    -- Stationary point found.
 Normal termination of Gaussian 16 at Sun May 28 09:32:32 2023.

 ----------------------------------------------------------------------
 #N Geom=AllCheck Guess=TCheck SCRF=Check GenChk RB3LYP/6-31G(2df,p) Fr
 eq
 ----------------------------------------------------------------------

 Structure from the checkpoint file:  "CCdCC1dCCCqCCCrC1C.chk"
 -------------------
 Title Card Required
 -------------------
 Charge =  0 Multiplicity = 1

                         Standard orientation:
 ---------------------------------------------------------------------
 Center     Atomic      Atomic             Coordinates (Angstroms)
 Number     Number       Type             X           Y           Z
 ---------------------------------------------------------------------
      1          6           0        4.869976    0.012087    0.847364
      2          6           0        3.551120   -0.466354    0.322530
      3          6           0        2.438118    0.273293    0.252135
      4          6           0        1.133889   -0.185802   -0.223623
      5          6           0        0.635365   -1.427777   -0.148472
      6          6           0       -0.711555   -1.549832   -0.809607
      7          6           0       -1.186647   -0.073581   -0.926237
      8          6           0       -2.124269    0.309052    0.233102
      9          6           0       -3.515278   -0.333224    0.146665
     10          6           0       -4.427935    0.068763    1.309044
     11          6           0        0.154411    0.731567   -0.957944
     12          6           0        0.098092    2.179419   -0.457993
     13          1           0        5.660001   -0.084189    0.091525
     14          1           0        5.194431   -0.585147    1.709545
     15          1           0        4.823109    1.059203    1.160786
     16          1           0        3.519049   -1.496835   -0.028819
     17          1           0        2.499430    1.315907    0.562724
     18          1           0        1.141064   -2.267656    0.315918
     19          1           0       -1.409351   -2.176859   -0.243539
     20          1           0       -0.618537   -2.019918   -1.800415
     21          1           0       -1.732401    0.087248   -1.863515
     22          1           0       -2.258636    1.396756    0.254147
     23          1           0       -1.652776    0.040970    1.188741
     24          1           0       -3.428824   -1.426218    0.118652
     25          1           0       -3.983949   -0.043722   -0.803716
     26          1           0       -4.002702   -0.239647    2.270722
     27          1           0       -5.416931   -0.391916    1.219760
     28          1           0       -4.568713    1.154939    1.345598
     29          1           0        0.483521    0.776763   -2.008702
     30          1           0       -0.112575    2.240081    0.614153
     31          1           0       -0.676464    2.745457   -0.986052
     32          1           0        1.049530    2.689115   -0.639295
 ---------------------------------------------------------------------

 SCF Done:  E(RB3LYP) =  -469.335846303     A.U. after    1 cycles

 The electronic state is 1-A.
 Alpha  occ. eigenvalues --  -10.18144 -10.18061 -10.17867 -10.17806 -10.17478
 Alpha  occ. eigenvalues --  -10.17443 -10.17364 -10.17352 -10.16983 -10.16883
 Alpha  occ. eigenvalues --  -10.16820 -10.16693  -0.84661  -0.79203  -0.77244
 Alpha  occ. eigenvalues --   -0.73888  -0.72272  -0.68326  -0.64343  -0.63531
 Alpha  occ. eigenvalues --   -0.58498  -0.56550  -0.53392  -0.50109  -0.48613
 Alpha  occ. eigenvalues --   -0.46083  -0.44632  -0.42883  -0.41904  -0.40746
 Alpha  occ. eigenvalues --   -0.40547  -0.40147  -0.39384  -0.37874  -0.36490
 Alpha  occ. eigenvalues --   -0.36102  -0.36097  -0.33931  -0.33536  -0.33071
 Alpha  occ. eigenvalues --   -0.32336  -0.31140  -0.30909  -0.30159  -0.27006
 Alpha  occ. eigenvalues --   -0.20623
 Alpha virt. eigenvalues --   -0.00977   0.07855   0.09434   0.10502   0.11316
 Alpha virt. eigenvalues --    0.11960   0.12653   0.13368   0.14951   0.15380
 Alpha virt. eigenvalues --    0.15461   0.16017   0.16577   0.17285   0.17482

 Mulliken charges:
               1
     1  C   -0.424999
     2  C   -0.047092
     3  C   -0.160333
     4  C    0.333278
     5  C   -0.188789
     6  C   -0.271195
     7  C   -0.010554
     8  C   -0.165518
     9  C   -0.169030
    10  C   -0.380434
    11  C   -0.091124
    12  C   -0.418277
    13  H    0.124471
    14  H    0.125671
    15  H    0.118441
    16  H    0.081095
    17  H    0.078346
    18  H    0.083261
    19  H    0.096947
    20  H    0.099150
    21  H    0.057562
    22  H    0.090347
    23  H    0.094184
    24  H    0.097178
    25  H    0.091580
    26  H    0.113186
    27  H    0.108864
    28  H    0.111878
    29  H    0.077570
    30  H    0.119575
    31  H    0.111737
    32  H    0.113023
 Sum of Mulliken charges =  -0.00000

 Dipole moment (field-independent basis, Debye):
    X=              0.2700    Y=              0.0491    Z=             -0.1321  Tot=              0.3046
 Quadrupole moment (field-independent basis, Debye-Ang):
   XX=            -73.5917   YY=            -74.6408   ZZ=            -76.9633
   XY=             -0.3297   XZ=              1.4834   YZ=             -0.2675

  Exact polarizability: 178.505   3.249 123.288   9.242   1.012  99.557
 Approx polarizability: 218.976   6.757 194.230  13.760  -0.165 152.493

                      1                      2                      3
                      A                      A                      A
 Frequencies --     33.3321                74.7098                86.2767
 Red. masses --      3.5344                 1.9128                 1.7396
 Frc consts  --      0.0023                 0.0063                 0.0076
 IR Inten    --      0.0315                 0.0458                 0.1765

                      4                      5                      6
                      A                      A                      A
 Frequencies --     93.3770               132.1759               145.3806
 Red. masses --      2.4264                 2.4580                 2.2686
 Frc consts  --      0.0125                 0.0253                 0.0283
 IR Inten    --      0.0699                 0.2273                 1.1977

                      7                      8                      9
                      A                      A                      A
 Frequencies --    155.6866               210.7535               244.3234
 Red. masses --      2.7116                 1.2692                 2.2439
 Frc consts  --      0.0387                 0.0332                 0.0789
 IR Inten    --      0.1912                 0.4346                 0.0865

                     10                     11                     12
                      A                      A                      A
 Frequencies --    248.9512               279.3411               284.0441
 Red. masses --      1.1678                 2.6637                 1.7574
 Frc consts  --      0.0426                 0.1225                 0.0835
 IR Inten    --      0.0986                 0.0514                 0.2305

                     13                     14                     15
                      A                      A                      A
 Frequencies --    296.7091               328.8588               362.9427
 Red. masses --      1.6089                 2.3774                 2.8779
 Frc consts  --      0.0835                 0.1515                 0.2234
 IR Inten    --      0.1208                 0.4884                 0.4147

                     16                     17                     18
                      A                      A                      A
 Frequencies --    391.8937               456.4772               500.6636
 Red. masses --      2.7326                 2.3909                 3.1016
 Frc consts  --      0.2473                 0.2935                 0.4581
 IR Inten    --      1.7468                 1.2558                 0.5779

                     19                     20                     21
                      A                      A                      A
 Frequencies --    565.8051               706.2273               721.1985
 Red. masses --      3.3359                 2.5352                 2.6005
 Frc consts  --      0.6292                 0.7450                 0.7969
 IR Inten    --      2.4383                 1.3139                 1.8428

                     22                     23                     24
                      A                      A                      A
 Frequencies --    750.1471               785.5664               817.3394
 Red. masses --      1.3165                 2.5642                 1.5761
 Frc consts  --      0.4365                 0.9323                 0.6204
 IR Inten    --      2.7538                 2.1817                 5.4113

                     25                     26                     27
                      A                      A                      A
 Frequencies --    833.5341               854.2569               891.1091
 Red. masses --      1.8983                 1.6584                 1.7027
 Frc consts  --      0.7771                 0.7131                 0.7966
 IR Inten    --      0.4914                 2.0379                 4.6375

                     28                     29                     30
                      A                      A                      A
 Frequencies --    904.2673               924.7103               939.4602
 Red. masses --      1.8165                 1.7753                 1.6988
 Frc consts  --      0.8751                 0.8944                 0.8834
 IR Inten    --      0.7597                 1.9018                18.1833

                     31                     32                     33
                      A                      A                      A
 Frequencies --    963.9876              1004.7209              1014.5390
 Red. masses --      1.8190                 1.5762                 1.2794
 Frc consts  --      0.9959                 0.9375                 0.7759
 IR Inten    --      0.9131                 0.9612                19.3700

                     34                     35                     36
                      A                      A                      A
 Frequencies --   1018.2558              1045.1237              1064.1560
 Red. masses --      1.4452                 2.0178                 2.0882
 Frc consts  --      0.8828                 1.2986                 1.3933
 IR Inten    --      4.2997                 0.6491                 1.1240

                     37                     38                     39
                      A                      A                      A
 Frequencies --   1066.0451              1092.0099              1109.2745
 Red. masses --      1.5642                 1.6829                 1.9020
 Frc consts  --      1.0473                 1.1824                 1.3789
 IR Inten    --      1.2074                 0.6503                 1.7949

                     40                     41                     42
                      A                      A                      A
 Frequencies --   1119.0308              1125.0182              1141.4529
 Red. masses --      1.6516                 2.0408                 2.3119
 Frc consts  --      1.2185                 1.5218                 1.7747
 IR Inten    --      2.1411                 7.3955                 0.9055

                     43                     44                     45
                      A                      A                      A
 Frequencies --   1200.3520              1225.8995              1234.0721
 Red. masses --      1.8695                 1.5676                 1.6503
 Frc consts  --      1.5870                 1.3880                 1.4808
 IR Inten    --      2.1814                 1.2159                 2.3008

                     46                     47                     48
                      A                      A                      A
 Frequencies --   1257.6693              1279.1438              1310.3721
 Red. masses --      1.4569                 1.3735                 1.3403
 Frc consts  --      1.3577                 1.3241                 1.3560
 IR Inten    --      1.7970                 0.8358                 5.5762

                     49                     50                     51
                      A                      A                      A
 Frequencies --   1317.8824              1321.2550              1329.9590
 Red. masses --      1.3250                 1.4986                 1.2947
 Frc consts  --      1.3558                 1.5414                 1.3493
 IR Inten    --      2.2155                 4.8685                 0.1307

                     52                     53                     54
                      A                      A                      A
 Frequencies --   1341.5119              1354.4313              1367.9804
 Red. masses --      1.2050                 1.3782                 1.7421
 Frc consts  --      1.2777                 1.4897                 1.9208
 IR Inten    --      1.6689                 4.6874                 1.5863

                     55                     56                     57
                      A                      A                      A
 Frequencies --   1374.9522              1396.6652              1408.9268
 Red. masses --      1.3388                 1.5423                 1.2372
 Frc consts  --      1.4913                 1.7726                 1.4470
 IR Inten    --      1.6487                 4.5984                 1.7177

                     58                     59                     60
                      A                      A                      A
 Frequencies --   1410.8029              1412.4442              1477.8568
 Red. masses --      1.2613                 1.2383                 1.0453
 Frc consts  --      1.4792                 1.4555                 1.3451
 IR Inten    --      3.1869                 1.1238                 4.5585

                     61                     62                     63
                      A                      A                      A
 Frequencies --   1478.8642              1490.7260              1491.3309
 Red. masses --      1.0761                 1.0624                 1.0818
 Frc consts  --      1.3867                 1.3911                 1.4176
 IR Inten    --      0.6336                 9.9534                 0.1893

                     64                     65                     66
                      A                      A                      A
 Frequencies --   1493.7080              1499.2954              1499.7209
 Red. masses --      1.0632                 1.0443                 1.0422
 Frc consts  --      1.3976                 1.3831                 1.3811
 IR Inten    --      0.4143                 6.6076                 3.2396

                     67                     68                     69
                      A                      A                      A
 Frequencies --   1507.4741              1512.7450              1681.2675
 Red. masses --      1.0600                 1.0767                 7.6120
 Frc consts  --      1.4193                 1.4517                12.6772
 IR Inten    --      5.3642                 1.6463                 1.1824

                     70                     71                     72
                      A                      A                      A
 Frequencies --   1712.7778              2961.9444              2988.7024
 Red. masses --      5.7567                 1.0818                 1.0718
 Frc consts  --      9.9501                 5.5919                 5.6408
 IR Inten    --      9.9802                31.5412                36.1028

                     73                     74                     75
                      A                      A                      A
 Frequencies --   3010.1746              3013.3259              3017.3307
 Red. masses --      1.0622                 1.0376                 1.0636
 Frc consts  --      5.6705                 5.5508                 5.7050
 IR Inten    --      2.1257                45.8889                12.9671

                     76                     77                     78
                      A                      A                      A
 Frequencies --   3027.3367              3032.7776              3033.3488
 Red. masses --      1.0371                 1.0731                 1.0431
 Frc consts  --      5.6002                 5.8155                 5.6546
 IR Inten    --     31.0079                50.8413                45.7855

                     79                     80                     81
                      A                      A                      A
 Frequencies --   3042.4500              3053.9028              3057.6554
 Red. masses --      1.0952                 1.0884                 1.0983
 Frc consts  --      5.9729                 5.9805                 6.0502
 IR Inten    --      5.2064                30.3662                21.3969

                     82                     83                     84
                      A                      A                      A
 Frequencies --   3067.2512              3094.4640              3096.6988
 Red. masses --      1.1007                 1.1021                 1.1006
 Frc consts  --      6.1011                 6.2177                 6.2183
 IR Inten    --     37.8169                49.2771                48.8923

                     85                     86                     87
                      A                      A                      A
 Frequencies --   3098.7295              3102.1843              3105.6847
 Red. masses --      1.1009                 1.0980                 1.1015
 Frc consts  --      6.2283                 6.2255                 6.2597
 IR Inten    --     37.0025                12.2070                26.7877

                     88                     89                     90
                      A                      A                      A
 Frequencies --   3128.3273              3140.3649              3185.1711
 Red. masses --      1.0876                 1.0873                 1.0927
 Frc consts  --      6.2710                 6.3178                 6.5313
 IR Inten    --     12.2275                34.7491                17.6834

 - Thermochemistry -
 -------------------
 Temperature   298.150 Kelvin.  Pressure   1.00000 Atm.
 Atom     1 has atomic number  6 and mass  12.00000

 Molecular mass:   164.15650 amu.
 Principal axes and moments of inertia in atomic units:
                           1         2         3
     Eigenvalues --   934.046694620.498164892.57353
           X            1.00000   0.00177  -0.00121
           Y           -0.00177   0.99998   0.00681
           Z            0.00122  -0.00681   0.99998
 This molecule is an asymmetric top.
 Rotational symmetry number  1.
 Warning -- assumption of classical behavior for rotation
           may cause significant error
 Rotational temperatures (Kelvin)      0.09273     0.01875     0.01770
 Rotational constants (GHZ):           1.93217     0.39059     0.36887
 Zero-point vibrational energy     762206.9 (Joules/Mol)
                                  182.17182 (Kcal/Mol)
 Warning -- explicit consideration of  19 degrees of freedom as
           vibrations may cause significant error
 Vibrational temperatures:     47.96   107.49   124.13   134.35   190.17
          (Kelvin)            209.17   224.00   303.23   351.53   358.19
                              401.91   408.68   426.90   473.15   522.19
                              563.85   656.77   720.34   814.07  1016.10
                             1037.64  1079.29  1130.25  1175.97  1199.27
                             1229.09  1282.11  1301.04  1330.45  1351.67
                             1386.96  1445.57  1459.70  1465.04  1503.70
                             1531.08  1533.80  1571.16  1596.00  1610.04
                             1618.65  1642.30  1727.04  1763.80  1775.55
                             1809.51  1840.40  1885.33  1896.14  1900.99
                             1913.51  1930.14  1948.72  1968.22  1978.25
                             2009.49  2027.13  2029.83  2032.19  2126.31
                             2127.76  2144.82  2145.69  2149.11  2157.15
                             2157.76  2168.92  2176.50  2418.97  2464.31
                             4261.58  4300.08  4330.97  4335.50  4341.27
                             4355.66  4363.49  4364.31  4377.41  4393.88
                             4399.28  4413.09  4452.24  4455.46  4458.38
                             4463.35  4468.39  4500.97  4518.28  4582.75

 Zero-point correction=                           0.290309 (Hartree/Particle)
 Thermal correction to Energy=                    0.304196
 Thermal correction to Enthalpy=                  0.305141
 Thermal correction to Gibbs Free Energy=         0.249670
 Sum of electronic and zero-point Energies=           -469.045537
 Sum of electronic and thermal Energies=              -469.031650
 Sum of electronic and thermal Enthalpies=            -469.030706
 Sum of electronic and thermal Free Energies=         -469.086176

                     E (Thermal)             CV                S
                      KCal/Mol        Cal/Mol-Kelvin    Cal/Mol-Kelvin
 Total                  190.886             51.998            116.747
 Electronic               0.000              0.000              0.000
 Translational            0.889              2.981             41.195
 Rotational               0.889              2.981             31.424
 Vibrational            189.109             46.036             44.127
 Vibration     1          0.594              1.983              5.621
 Vibration     2          0.599              1.966              4.025
 Vibration     3          0.601              1.959              3.743
 Vibration     4          0.602              1.954              3.588
 Vibration     5          0.612              1.921              2.914
 Vibration     6          0.617              1.908              2.732
 Vibration     7          0.620              1.896              2.602
 Vibration     8          0.643              1.824              2.037
 Vibration     9          0.660              1.772              1.771
 Vibration    10          0.662              1.765              1.738
 Vibration    11          0.680              1.712              1.538
 Vibration    12          0.682              1.703              1.509
 Vibration    13          0.690              1.680              1.435
 Vibration    14          0.712              1.618              1.266
 Vibration    15          0.737              1.549              1.109
 Vibration    16          0.759              1.488              0.993
 Vibration    17          0.815              1.347              0.776
 Vibration    18          0.856              1.249              0.656
 Vibration    19          0.922              1.105              0.512

 Optimization completed.
    -- Stationary point found.
 Normal termination of Gaussian 16 at Sun May 28 10:57:38 2023.
