 Gaussian 16, Revision A.03,
 Gaussian 16:  ES64L-G16RevA.03 25-Dec-2016

 -----------------------------
 # opt freq b3lyp/6-31g(2df,p)
 -----------------------------

 -------------------
 Title Card Required
 -------------------
 Symbolic Z-matrix:
 Charge =  0 Multiplicity = 1

 SCF Done:  E(RB3LYP) =  -613.766046278     A.U. after   14 cycles
 SCF Done:  E(RB3LYP) =  -613.773768362     A.U. after   13 cycles
 SCF Done:  E(RB3LYP) =  -613.776149005     A.U. after   12 cycles
 SCF Done:  E(RB3LYP) =  -613.775723239     A.U. after   11 cycles
 SCF Done:  E(RB3LYP) =  -613.777408976     A.U. after   11 cycles
 SCF Done:  E(RB3LYP) =  -613.777681416     A.U. after   11 cycles
 SCF Done:  E(RB3LYP) =  -613.777875770     A.U. after   11 cycles
 SCF Done:  E(RB3LYP) =  -613.778012745     A.U. after   11 cycles
 SCF Done:  E(RB3LYP) =  -613.777949695     A.U. after    9 cycles
 SCF Done:  E(RB3LYP) =  -613.778373070     A.U. after   10 cycles
 SCF Done:  E(RB3LYP) =  -613.776971691     A.U. after   13 cycles
 SCF Done:  E(RB3LYP) =  -613.779440809     A.U. after   12 cycles
 SCF Done:  E(RB3LYP) =  -613.780204791     A.U. after    7 cycles
 SCF Done:  E(RB3LYP) =  -613.780222245     A.U. after   10 cycles
 SCF Done:  E(RB3LYP) =  -613.780221764     A.U. after    9 cycles
 SCF Done:  E(RB3LYP) =  -613.780223352     A.U. after    9 cycles
 SCF Done:  E(RB3LYP) =  -613.780227720     A.U. after    9 cycles
 SCF Done:  E(RB3LYP) =  -613.780227848     A.U. after    6 cycles
 SCF Done:  E(RB3LYP) =  -613.780227910     A.U. after    7 cycles
 Optimization completed.
    -- Stationary point found.
 Normal termination of Gaussian 16 at Mon May 22 20:02:47 2023.

 ----------------------------------------------------------------------
 #N Geom=AllCheck Guess=TCheck SCRF=Check GenChk RB3LYP/6-31G(2df,p) Fr
 eq
 ----------------------------------------------------------------------

 Structure from the checkpoint file:  "CCN1CCqOCqCrdOrCC1CN.chk"
 -------------------
 Title Card Required
 -------------------
 Charge =  0 Multiplicity = 1

                         Standard orientation:
 ---------------------------------------------------------------------
 Center     Atomic      Atomic             Coordinates (Angstroms)
 Number     Number       Type             X           Y           Z
 ---------------------------------------------------------------------
      1          6           0       -3.190061    2.165403   -0.075860
      2          6           0       -1.667739    2.029937   -0.091881
      3          7           0       -1.196473    0.783710    0.508613
      4          6           0        0.231504    0.763096    0.838292
      5          6           0        0.890423   -0.130152   -0.226323
      6          8           0        2.105933   -0.736689    0.223182
      7          6           0        3.329760   -0.180007    0.040864
      8          6           0        3.428533    1.095519   -0.776553
      9          8           0        4.287248   -0.727515    0.516017
     10          6           0       -0.174470   -1.205215   -0.435263
     11          6           0       -1.508048   -0.443126   -0.268539
     12          6           0       -2.585754   -1.286709    0.423100
     13          7           0       -2.853418   -2.504504   -0.348006
     14          1           0       -3.484877    3.142550   -0.471713
     15          1           0       -3.572055    2.070269    0.944737
     16          1           0       -3.674471    1.402377   -0.692767
     17          1           0       -1.240644    2.854918    0.487949
     18          1           0       -1.307168    2.155768   -1.132898
     19          1           0        0.408387    0.303142    1.820620
     20          1           0        0.639543    1.777212    0.873029
     21          1           0        1.062289    0.428861   -1.151040
     22          1           0        3.136168    0.917369   -1.816482
     23          1           0        4.466871    1.422921   -0.752595
     24          1           0        2.786490    1.888145   -0.382921
     25          1           0       -0.062595   -1.963436    0.346111
     26          1           0       -0.094878   -1.714632   -1.396000
     27          1           0       -1.883806   -0.151074   -1.263029
     28          1           0       -3.472221   -0.657799    0.601141
     29          1           0       -2.207527   -1.580721    1.409098
     30          1           0       -3.351162   -2.270558   -1.202839
     31          1           0       -3.469454   -3.118591    0.174745
 ---------------------------------------------------------------------

 SCF Done:  E(RB3LYP) =  -613.780227910     A.U. after    1 cycles

 The electronic state is 1-A.
 Alpha  occ. eigenvalues --  -19.17390 -19.11169 -14.32061 -14.31110 -10.30284
 Alpha  occ. eigenvalues --  -10.24525 -10.21347 -10.21287 -10.21006 -10.20259
 Alpha  occ. eigenvalues --  -10.19819 -10.18136 -10.17915  -1.08914  -1.00887
 Alpha  occ. eigenvalues --   -0.93320  -0.87841  -0.79546  -0.74824  -0.74393
 Alpha  occ. eigenvalues --   -0.73296  -0.65728  -0.63096  -0.60600  -0.57197
 Alpha  occ. eigenvalues --   -0.55493  -0.50869  -0.50149  -0.47687  -0.47181
 Alpha  occ. eigenvalues --   -0.46506  -0.45680  -0.44725  -0.44135  -0.42452
 Alpha  occ. eigenvalues --   -0.41672  -0.40694  -0.39713  -0.38763  -0.37739
 Alpha  occ. eigenvalues --   -0.36710  -0.36427  -0.36009  -0.34841  -0.34439
 Alpha  occ. eigenvalues --   -0.32974  -0.32309  -0.28663  -0.25966  -0.23970
 Alpha  occ. eigenvalues --   -0.21176
 Alpha virt. eigenvalues --    0.01913   0.06310   0.07499   0.08365   0.10109
 Alpha virt. eigenvalues --    0.11108   0.11840   0.12596   0.13096   0.14364
 Alpha virt. eigenvalues --    0.15212   0.15734   0.16154   0.16828   0.17197

 Mulliken charges:
               1
     1  C   -0.378657
     2  C   -0.133217
     3  N   -0.068734
     4  C   -0.208585
     5  C    0.112326
     6  O   -0.231750
     7  C    0.408916
     8  C   -0.525124
     9  O   -0.313016
    10  C   -0.237522
    11  C    0.040751
    12  C   -0.165734
    13  N   -0.510089
    14  H    0.111382
    15  H    0.124523
    16  H    0.116347
    17  H    0.102275
    18  H    0.071634
    19  H    0.112862
    20  H    0.097129
    21  H    0.086962
    22  H    0.150868
    23  H    0.152318
    24  H    0.144029
    25  H    0.124751
    26  H    0.111477
    27  H    0.059716
    28  H    0.084653
    29  H    0.106582
    30  H    0.222710
    31  H    0.230215
 Sum of Mulliken charges =  -0.00000

 Dipole moment (field-independent basis, Debye):
    X=             -4.0224    Y=              2.6215    Z=             -2.0855  Tot=              5.2346
 Quadrupole moment (field-independent basis, Debye-Ang):
   XX=            -88.6859   YY=            -79.6903   ZZ=            -78.1444
   XY=             11.8731   XZ=             -4.7309   YZ=             -0.1815

  Exact polarizability: 142.989   0.587 115.862   3.501  -2.779  94.937
 Approx polarizability: 177.759  -3.093 160.670   9.300  -5.827 152.768

                      1                      2                      3
                      A                      A                      A
 Frequencies --     35.1306                52.7563                61.3462
 Red. masses --      3.2112                 3.8146                 4.1611
 Frc consts  --      0.0023                 0.0063                 0.0092
 IR Inten    --      1.9998                 1.0285                 0.1609

                      4                      5                      6
                      A                      A                      A
 Frequencies --     68.0467                96.5414               110.2778
 Red. masses --      3.7141                 2.4206                 2.3301
 Frc consts  --      0.0101                 0.0133                 0.0167
 IR Inten    --      2.0852                 0.6142                 1.8244

                      7                      8                      9
                      A                      A                      A
 Frequencies --    171.6709               189.2950               204.6733
 Red. masses --      2.9287                 1.0935                 2.8092
 Frc consts  --      0.0509                 0.0231                 0.0693
 IR Inten    --      1.0814                 0.4702                 3.8811

                     10                     11                     12
                      A                      A                      A
 Frequencies --    224.2938               245.9242               271.5588
 Red. masses --      1.3650                 1.4285                 1.4746
 Frc consts  --      0.0405                 0.0509                 0.0641
 IR Inten    --     17.3046                14.6267                 2.8786

                     13                     14                     15
                      A                      A                      A
 Frequencies --    310.3254               336.3660               348.4571
 Red. masses --      3.3831                 3.2585                 2.9985
 Frc consts  --      0.1920                 0.2172                 0.2145
 IR Inten    --      3.1720                 6.4436                 2.4549

                     16                     17                     18
                      A                      A                      A
 Frequencies --    390.4463               448.1203               492.0950
 Red. masses --      3.7366                 2.5314                 2.3563
 Frc consts  --      0.3356                 0.2995                 0.3362
 IR Inten    --      1.5528                 2.4580                 2.4819

                     19                     20                     21
                      A                      A                      A
 Frequencies --    507.4024               540.7967               574.9579
 Red. masses --      2.8891                 3.2276                 2.5290
 Frc consts  --      0.4382                 0.5562                 0.4926
 IR Inten    --      0.7082                 8.8631                 5.2003

                     22                     23                     24
                      A                      A                      A
 Frequencies --    615.2518               658.1536               788.2398
 Red. masses --      3.6880                 4.7408                 1.9993
 Frc consts  --      0.8225                 1.2099                 0.7319
 IR Inten    --      3.2097                20.2761                33.2022

                     25                     26                     27
                      A                      A                      A
 Frequencies --    807.6947               840.0974               848.4903
 Red. masses --      1.2209                 2.3612                 1.8086
 Frc consts  --      0.4693                 0.9819                 0.7672
 IR Inten    --      0.9570                14.2740                54.8072

                     28                     29                     30
                      A                      A                      A
 Frequencies --    896.4650               903.7554               929.7399
 Red. masses --      2.2074                 1.7457                 2.4913
 Frc consts  --      1.0452                 0.8401                 1.2688
 IR Inten    --      3.0319                12.9254                 3.6204

                     31                     32                     33
                      A                      A                      A
 Frequencies --    955.1529               997.0814              1008.6436
 Red. masses --      1.6647                 2.0410                 1.6778
 Frc consts  --      0.8948                 1.1955                 1.0057
 IR Inten    --     27.4836                 7.9145                26.7361

                     34                     35                     36
                      A                      A                      A
 Frequencies --   1030.0162              1055.7080              1071.6445
 Red. masses --      1.5447                 1.8324                 2.9564
 Frc consts  --      0.9656                 1.2032                 2.0004
 IR Inten    --     12.8377                 5.8694                16.1035

                     37                     38                     39
                      A                      A                      A
 Frequencies --   1079.1641              1094.4214              1101.8027
 Red. masses --      2.7004                 2.3522                 2.5643
 Frc consts  --      1.8529                 1.6600                 1.8341
 IR Inten    --     12.4319                18.1866                15.5078

                     40                     41                     42
                      A                      A                      A
 Frequencies --   1111.0475              1122.8160              1136.6631
 Red. masses --      2.7471                 2.4798                 1.8551
 Frc consts  --      1.9980                 1.8419                 1.4122
 IR Inten    --     99.2411                21.1425                12.0862

                     43                     44                     45
                      A                      A                      A
 Frequencies --   1184.5110              1215.0330              1251.2091
 Red. masses --      1.7353                 2.3454                 2.0207
 Frc consts  --      1.4345                 2.0400                 1.8639
 IR Inten    --      2.7708                25.2029               181.9120

                     46                     47                     48
                      A                      A                      A
 Frequencies --   1260.6496              1280.2213              1290.1455
 Red. masses --      2.4962                 1.4892                 1.4073
 Frc consts  --      2.3374                 1.4380                 1.3801
 IR Inten    --    242.9682                64.8900                 9.0612

                     49                     50                     51
                      A                      A                      A
 Frequencies --   1307.8564              1311.9594              1328.2168
 Red. masses --      1.1766                 1.2270                 1.2310
 Frc consts  --      1.1857                 1.2444                 1.2795
 IR Inten    --      8.4716                 1.4274                20.8536

                     52                     53                     54
                      A                      A                      A
 Frequencies --   1340.2616              1374.0698              1376.9038
 Red. masses --      1.3112                 1.3424                 1.4598
 Frc consts  --      1.3877                 1.4933                 1.6306
 IR Inten    --      7.7318                10.0541                14.6323

                     55                     56                     57
                      A                      A                      A
 Frequencies --   1389.0604              1396.2648              1405.0636
 Red. masses --      1.3358                 1.2555                 1.2830
 Frc consts  --      1.5186                 1.4422                 1.4923
 IR Inten    --     39.4605                11.9054                 3.4609

                     58                     59                     60
                      A                      A                      A
 Frequencies --   1417.7380              1422.7380              1471.0669
 Red. masses --      1.4200                 1.4322                 1.0556
 Frc consts  --      1.6816                 1.7080                 1.3458
 IR Inten    --     24.5107                13.0771                10.1287

                     61                     62                     63
                      A                      A                      A
 Frequencies --   1487.0603              1487.6028              1488.4680
 Red. masses --      1.0615                 1.0658                 1.0550
 Frc consts  --      1.3830                 1.3896                 1.3772
 IR Inten    --      3.1431                 1.1118                10.6940

                     64                     65                     66
                      A                      A                      A
 Frequencies --   1491.8692              1506.8676              1508.4186
 Red. masses --      1.0579                 1.0861                 1.0792
 Frc consts  --      1.3872                 1.4530                 1.4467
 IR Inten    --      4.2861                 5.5914                 1.9062

                     67                     68                     69
                      A                      A                      A
 Frequencies --   1516.7202              1659.3637              1842.3873
 Red. masses --      1.0901                 1.0894                11.5872
 Frc consts  --      1.4775                 1.7674                23.1734
 IR Inten    --      0.4865                23.8909               378.1774

                     70                     71                     72
                      A                      A                      A
 Frequencies --   2893.1168              2956.3948              2977.0354
 Red. masses --      1.0726                 1.0827                 1.0695
 Frc consts  --      5.2897                 5.5756                 5.5845
 IR Inten    --     74.1392                39.0827                66.6212

                     73                     74                     75
                      A                      A                      A
 Frequencies --   3005.6179              3037.9913              3049.0972
 Red. masses --      1.0687                 1.0350                 1.0449
 Frc consts  --      5.6882                 5.6280                 5.7234
 IR Inten    --     31.8661                21.4462                 1.6460

                     76                     77                     78
                      A                      A                      A
 Frequencies --   3054.7211              3058.7050              3060.8018
 Red. masses --      1.0837                 1.0900                 1.0800
 Frc consts  --      5.9580                 6.0083                 5.9611
 IR Inten    --      5.7281                34.7192                 7.7851

                     79                     80                     81
                      A                      A                      A
 Frequencies --   3069.3143              3084.5822              3106.6686
 Red. masses --      1.0669                 1.0951                 1.1003
 Frc consts  --      5.9216                 6.1388                 6.2568
 IR Inten    --     21.9110                37.9933                43.9757

                     82                     83                     84
                      A                      A                      A
 Frequencies --   3115.2851              3116.5349              3128.9061
 Red. masses --      1.0983                 1.1025                 1.1010
 Frc consts  --      6.2800                 6.3094                 6.3509
 IR Inten    --      7.3165                24.5564                17.9490

                     85                     86                     87
                      A                      A                      A
 Frequencies --   3166.3147              3488.4944              3568.4894
 Red. masses --      1.1010                 1.0502                 1.0913
 Frc consts  --      6.5033                 7.5303                 8.1874
 IR Inten    --      8.3601                 0.4783                 0.2424

 - Thermochemistry -
 -------------------
 Temperature   298.150 Kelvin.  Pressure   1.00000 Atm.
 Atom     1 has atomic number  6 and mass  12.00000

 Molecular mass:   186.13683 amu.
 Principal axes and moments of inertia in atomic units:
                           1         2         3
     Eigenvalues --  1416.510544368.861445412.69805
           X            0.99990   0.01256  -0.00657
           Y           -0.01261   0.99989  -0.00725
           Z            0.00648   0.00734   0.99995
 This molecule is an asymmetric top.
 Rotational symmetry number  1.
 Warning -- assumption of classical behavior for rotation
           may cause significant error
 Rotational temperatures (Kelvin)      0.06115     0.01983     0.01600
 Rotational constants (GHZ):           1.27408     0.41309     0.33343
 Zero-point vibrational energy     715859.3 (Joules/Mol)
                                  171.09448 (Kcal/Mol)
 Warning -- explicit consideration of  22 degrees of freedom as
           vibrations may cause significant error
 Vibrational temperatures:     50.55    75.90    88.26    97.90   138.90
          (Kelvin)            158.67   247.00   272.35   294.48   322.71
                              353.83   390.71   446.49   483.96   501.35
                              561.77   644.75   708.01   730.04   778.09
                              827.24   885.21   946.94  1134.10  1162.09
                             1208.71  1220.79  1289.81  1300.30  1337.69
                             1374.25  1434.58  1451.21  1481.96  1518.93
                             1541.86  1552.68  1574.63  1585.25  1598.55
                             1615.48  1635.40  1704.25  1748.16  1800.21
                             1813.79  1841.95  1856.23  1881.71  1887.62
                             1911.01  1928.34  1976.98  1981.06  1998.55
                             2008.91  2021.57  2039.81  2047.00  2116.54
                             2139.55  2140.33  2141.57  2146.47  2168.05
                             2170.28  2182.22  2387.45  2650.78  4162.55
                             4253.59  4283.29  4324.41  4370.99  4386.97
                             4395.06  4400.79  4403.81  4416.06  4438.03
                             4469.80  4482.20  4484.00  4501.80  4555.62
                             5019.17  5134.26

 Zero-point correction=                           0.272656 (Hartree/Particle)
 Thermal correction to Energy=                    0.287314
 Thermal correction to Enthalpy=                  0.288258
 Thermal correction to Gibbs Free Energy=         0.230092
 Sum of electronic and zero-point Energies=           -613.507572
 Sum of electronic and thermal Energies=              -613.492914
 Sum of electronic and thermal Enthalpies=            -613.491969
 Sum of electronic and thermal Free Energies=         -613.550136

                     E (Thermal)             CV                S
                      KCal/Mol        Cal/Mol-Kelvin    Cal/Mol-Kelvin
 Total                  180.292             53.730            122.423
 Electronic               0.000              0.000              0.000
 Translational            0.889              2.981             41.570
 Rotational               0.889              2.981             31.883
 Vibrational            178.515             47.769             48.970
 Vibration     1          0.594              1.982              5.516
 Vibration     2          0.596              1.977              4.711
 Vibration     3          0.597              1.973              4.413
 Vibration     4          0.598              1.969              4.209
 Vibration     5          0.603              1.952              3.523
 Vibration     6          0.606              1.941              3.264
 Vibration     7          0.626              1.877              2.417
 Vibration     8          0.633              1.855              2.235
 Vibration     9          0.640              1.833              2.091
 Vibration    10          0.649              1.804              1.924
 Vibration    11          0.660              1.770              1.760
 Vibration    12          0.675              1.726              1.586
 Vibration    13          0.699              1.654              1.361
 Vibration    14          0.717              1.603              1.229
 Vibration    15          0.726              1.578              1.173
 Vibration    16          0.758              1.491              0.998
 Vibration    17          0.807              1.365              0.801
 Vibration    18          0.848              1.268              0.678
 Vibration    19          0.863              1.234              0.640
 Vibration    20          0.896              1.160              0.564
 Vibration    21          0.931              1.085              0.495
 Vibration    22          0.975              1.000              0.424

                           ! Non-Optimized Parameters !
 Normal termination of Gaussian 16 at Mon May 22 21:41:37 2023.
