 Gaussian 16, Revision A.03,
 Gaussian 16:  ES64L-G16RevA.03 25-Dec-2016

 -----------------------------
 # opt freq b3lyp/6-31g(2df,p)
 -----------------------------

 -------------------
 Title Card Required
 -------------------
 Symbolic Z-matrix:
 Charge =  0 Multiplicity = 1

 SCF Done:  E(RB3LYP) =  -541.910888006     A.U. after   12 cycles
 SCF Done:  E(RB3LYP) =  -541.919264452     A.U. after   11 cycles
 SCF Done:  E(RB3LYP) =  -541.921630895     A.U. after   10 cycles
 SCF Done:  E(RB3LYP) =  -541.925187738     A.U. after   11 cycles
 SCF Done:  E(RB3LYP) =  -541.913368416     A.U. after   13 cycles
 SCF Done:  E(RB3LYP) =  -541.927489144     A.U. after   11 cycles
 SCF Done:  E(RB3LYP) =  -541.928671187     A.U. after   10 cycles
 SCF Done:  E(RB3LYP) =  -541.930642038     A.U. after   11 cycles
 SCF Done:  E(RB3LYP) =  -541.931599600     A.U. after   10 cycles
 SCF Done:  E(RB3LYP) =  -541.932487397     A.U. after   11 cycles
 SCF Done:  E(RB3LYP) =  -541.932556959     A.U. after   10 cycles
 SCF Done:  E(RB3LYP) =  -541.932569278     A.U. after    9 cycles
 SCF Done:  E(RB3LYP) =  -541.932574021     A.U. after    9 cycles
 SCF Done:  E(RB3LYP) =  -541.932576496     A.U. after    8 cycles
 SCF Done:  E(RB3LYP) =  -541.932577078     A.U. after    7 cycles
 SCF Done:  E(RB3LYP) =  -541.932577507     A.U. after    7 cycles
 SCF Done:  E(RB3LYP) =  -541.932577577     A.U. after    6 cycles
 SCF Done:  E(RB3LYP) =  -541.932577595     A.U. after    6 cycles
 Optimization completed.
    -- Stationary point found.
 Normal termination of Gaussian 16 at Tue May 23 12:14:26 2023.

 ----------------------------------------------------------------------
 #N Geom=AllCheck Guess=TCheck SCRF=Check GenChk RB3LYP/6-31G(2df,p) Fr
 eq
 ----------------------------------------------------------------------

 Structure from the checkpoint file:  "CCNCCC1CCdCqCNCrC1.chk"
 -------------------
 Title Card Required
 -------------------
 Charge =  0 Multiplicity = 1

                         Standard orientation:
 ---------------------------------------------------------------------
 Center     Atomic      Atomic             Coordinates (Angstroms)
 Number     Number       Type             X           Y           Z
 ---------------------------------------------------------------------
      1          6           0        5.128876    1.608443    0.054043
      2          6           0        3.673439    1.319722    0.410616
      3          7           0        3.157871    0.192200   -0.356726
      4          6           0        1.782102   -0.164140   -0.022269
      5          6           0        1.336893   -1.388212   -0.827082
      6          6           0       -0.120672   -1.845046   -0.626311
      7          6           0       -0.446708   -2.220348    0.852402
      8          6           0       -1.305812   -1.079451    1.333036
      9          6           0       -1.692362   -0.271222    0.343484
     10          6           0       -2.567762    0.938798    0.467426
     11          7           0       -3.770178    0.807278   -0.357230
     12          6           0       -4.645574    1.968109   -0.281112
     13          6           0       -1.158959   -0.744183   -0.991855
     14          1           0        5.500643    2.478991    0.602778
     15          1           0        5.231875    1.799580   -1.017981
     16          1           0        5.772935    0.757978    0.307612
     17          1           0        3.055143    2.195718    0.173019
     18          1           0        3.581796    1.169551    1.504287
     19          1           0        3.756788   -0.614493   -0.200372
     20          1           0        1.148551    0.697909   -0.266484
     21          1           0        1.644390   -0.345606    1.059914
     22          1           0        2.000223   -2.229751   -0.578133
     23          1           0        1.503361   -1.172001   -1.889421
     24          1           0       -0.263211   -2.718740   -1.269506
     25          1           0        0.459479   -2.355898    1.456420
     26          1           0       -0.992740   -3.172216    0.915179
     27          1           0       -1.589929   -0.956882    2.373847
     28          1           0       -2.025630    1.824438    0.102005
     29          1           0       -2.793173    1.130543    1.533365
     30          1           0       -4.277036   -0.020769   -0.060419
     31          1           0       -4.138155    2.836492   -0.717221
     32          1           0       -4.947459    2.244116    0.746007
     33          1           0       -5.552085    1.784843   -0.865544
     34          1           0       -0.715524    0.072699   -1.575858
     35          1           0       -1.974860   -1.137664   -1.610074
 ---------------------------------------------------------------------

 SCF Done:  E(RB3LYP) =  -541.932577595     A.U. after    1 cycles

 The electronic state is 1-A.
 Alpha  occ. eigenvalues --  -14.30999 -14.30130 -10.20248 -10.19687 -10.19676
 Alpha  occ. eigenvalues --  -10.19243 -10.18017 -10.17534 -10.17524 -10.17127
 Alpha  occ. eigenvalues --  -10.17030 -10.16978 -10.16912  -0.89728  -0.89286
 Alpha  occ. eigenvalues --   -0.83708  -0.76426  -0.73367  -0.71044  -0.68446
 Alpha  occ. eigenvalues --   -0.66146  -0.62426  -0.60174  -0.59665  -0.54065
 Alpha  occ. eigenvalues --   -0.51582  -0.49207  -0.47578  -0.46672  -0.45588
 Alpha  occ. eigenvalues --   -0.43966  -0.43392  -0.42664  -0.42026  -0.41101
 Alpha  occ. eigenvalues --   -0.39338  -0.38215  -0.37278  -0.36515  -0.36433
 Alpha  occ. eigenvalues --   -0.35538  -0.34517  -0.34476  -0.33747  -0.33117
 Alpha  occ. eigenvalues --   -0.31954  -0.30620  -0.30441  -0.23004  -0.21897
 Alpha  occ. eigenvalues --   -0.21233
 Alpha virt. eigenvalues --    0.02878   0.08523   0.09193   0.09966   0.10614
 Alpha virt. eigenvalues --    0.12294   0.13132   0.13491   0.13987   0.14353
 Alpha virt. eigenvalues --    0.14908   0.16258   0.16449   0.17089   0.17256

 Mulliken charges:
               1
     1  C   -0.388026
     2  C   -0.095057
     3  N   -0.286120
     4  C   -0.116609
     5  C   -0.221106
     6  C   -0.001366
     7  C   -0.265914
     8  C   -0.173168
     9  C    0.340288
    10  C   -0.260795
    11  N   -0.278448
    12  C   -0.303186
    13  C   -0.306574
    14  H    0.112117
    15  H    0.125335
    16  H    0.108638
    17  H    0.099413
    18  H    0.070760
    19  H    0.204462
    20  H    0.101289
    21  H    0.076871
    22  H    0.081864
    23  H    0.103625
    24  H    0.066670
    25  H    0.096336
    26  H    0.098895
    27  H    0.080279
    28  H    0.103628
    29  H    0.076523
    30  H    0.214479
    31  H    0.121038
    32  H    0.090878
    33  H    0.116290
    34  H    0.098822
    35  H    0.107869
 Sum of Mulliken charges =  -0.00000

 Dipole moment (field-independent basis, Debye):
    X=             -0.5144    Y=             -0.4420    Z=              1.2403  Tot=              1.4136
 Quadrupole moment (field-independent basis, Debye-Ang):
   XX=            -77.8034   YY=            -80.0556   ZZ=            -84.8549
   XY=             -1.3630   XZ=              0.4970   YZ=              0.2863

  Exact polarizability: 152.708  -7.798 132.187   2.638  -3.360 118.265
 Approx polarizability: 180.637 -11.366 189.997   6.524 -12.214 188.775

                      1                      2                      3
                      A                      A                      A
 Frequencies --     26.7233                47.7090                59.3794
 Red. masses --      3.8090                 2.2488                 2.3072
 Frc consts  --      0.0016                 0.0030                 0.0048
 IR Inten    --      0.0319                 0.4582                 0.5732

                      4                      5                      6
                      A                      A                      A
 Frequencies --     69.3519                99.2433               108.7991
 Red. masses --      2.1711                 2.0890                 3.3474
 Frc consts  --      0.0062                 0.0121                 0.0233
 IR Inten    --      0.3267                 2.1307                 0.5966

                      7                      8                      9
                      A                      A                      A
 Frequencies --    127.1932               137.5975               166.8427
 Red. masses --      3.1544                 2.7902                 1.9089
 Frc consts  --      0.0301                 0.0311                 0.0313
 IR Inten    --      0.6633                 1.4324                 1.0950

                     10                     11                     12
                      A                      A                      A
 Frequencies --    218.4754               240.7053               255.4751
 Red. masses --      2.8363                 1.3466                 1.1528
 Frc consts  --      0.0798                 0.0460                 0.0443
 IR Inten    --      0.1554                 0.3003                 0.4694

                     13                     14                     15
                      A                      A                      A
 Frequencies --    269.7888               313.9733               357.1107
 Red. masses --      1.8801                 2.7080                 2.8034
 Frc consts  --      0.0806                 0.1573                 0.2106
 IR Inten    --      2.0659                 2.0953                 0.0255

                     16                     17                     18
                      A                      A                      A
 Frequencies --    372.2425               383.2890               416.7748
 Red. masses --      2.9597                 2.1679                 2.6717
 Frc consts  --      0.2416                 0.1876                 0.2734
 IR Inten    --      0.6789                 0.4682                 0.1871

                     19                     20                     21
                      A                      A                      A
 Frequencies --    479.7435               544.3381               675.4704
 Red. masses --      2.4775                 2.9956                 2.9567
 Frc consts  --      0.3360                 0.5230                 0.7948
 IR Inten    --      2.0165                 3.4527                 6.1202

                     22                     23                     24
                      A                      A                      A
 Frequencies --    743.4208               773.4538               784.5620
 Red. masses --      3.4750                 1.4322                 1.3299
 Frc consts  --      1.1315                 0.5048                 0.4823
 IR Inten    --      2.2245                41.9780                54.0709

                     25                     26                     27
                      A                      A                      A
 Frequencies --    792.8783               804.2510               820.0725
 Red. masses --      1.2687                 2.1599                 1.1841
 Frc consts  --      0.4699                 0.8231                 0.4692
 IR Inten    --     42.3704                 4.5417                 2.9572

                     28                     29                     30
                      A                      A                      A
 Frequencies --    848.4178               878.8373               916.7280
 Red. masses --      1.3617                 3.3620                 1.8273
 Frc consts  --      0.5775                 1.5299                 0.9048
 IR Inten    --     10.4177                 1.3390                 3.2665

                     31                     32                     33
                      A                      A                      A
 Frequencies --    926.5613               944.1613               976.4520
 Red. masses --      1.8998                 1.6279                 1.9045
 Frc consts  --      0.9610                 0.8550                 1.0699
 IR Inten    --      1.9484                 0.6846                 0.9410

                     34                     35                     36
                      A                      A                      A
 Frequencies --    981.4567              1001.0637              1015.3820
 Red. masses --      1.9640                 1.6545                 2.0714
 Frc consts  --      1.1146                 0.9769                 1.2583
 IR Inten    --      4.3518                 5.9514                 8.2746

                     37                     38                     39
                      A                      A                      A
 Frequencies --   1021.9142              1045.3322              1089.9320
 Red. masses --      2.0701                 2.8248                 1.7595
 Frc consts  --      1.2737                 1.8186                 1.2315
 IR Inten    --      3.0651                 7.1581                 5.0558

                     40                     41                     42
                      A                      A                      A
 Frequencies --   1102.8578              1127.2611              1133.8633
 Red. masses --      1.7153                 1.9849                 2.0130
 Frc consts  --      1.2292                 1.4861                 1.5248
 IR Inten    --      1.9096                 9.3656                31.8216

                     43                     44                     45
                      A                      A                      A
 Frequencies --   1144.8453              1159.2302              1162.6447
 Red. masses --      1.4009                 2.3436                 1.8434
 Frc consts  --      1.0818                 1.8556                 1.4681
 IR Inten    --      8.5608                22.0274                47.6744

                     46                     47                     48
                      A                      A                      A
 Frequencies --   1179.4862              1182.2536              1187.8524
 Red. masses --      1.6807                 1.6382                 1.2749
 Frc consts  --      1.3776                 1.3491                 1.0598
 IR Inten    --      4.7807                 6.6167                 3.9096

                     49                     50                     51
                      A                      A                      A
 Frequencies --   1207.5077              1248.0494              1260.2822
 Red. masses --      1.4539                 1.4366                 1.4380
 Frc consts  --      1.2490                 1.3184                 1.3457
 IR Inten    --      3.7896                 1.3999                 6.2803

                     52                     53                     54
                      A                      A                      A
 Frequencies --   1277.7069              1295.4393              1300.0820
 Red. masses --      1.4728                 1.3555                 1.3641
 Frc consts  --      1.4166                 1.3403                 1.3585
 IR Inten    --      4.2725                 1.1269                 2.3858

                     55                     56                     57
                      A                      A                      A
 Frequencies --   1315.6256              1323.7208              1330.8713
 Red. masses --      1.4467                 1.3054                 1.3407
 Frc consts  --      1.4754                 1.3476                 1.3992
 IR Inten    --      5.7126                 5.6431                 0.2672

                     58                     59                     60
                      A                      A                      A
 Frequencies --   1358.6671              1371.2253              1382.7587
 Red. masses --      1.3698                 1.9637                 1.3909
 Frc consts  --      1.4899                 2.1755                 1.5669
 IR Inten    --     27.2774                 0.2097                25.5097

                     61                     62                     63
                      A                      A                      A
 Frequencies --   1386.5971              1407.2020              1431.9926
 Red. masses --      1.3212                 1.2858                 1.4910
 Frc consts  --      1.4967                 1.5001                 1.8014
 IR Inten    --      2.8768                 2.8212                 6.3552

                     64                     65                     66
                      A                      A                      A
 Frequencies --   1457.6926              1480.1943              1481.1309
 Red. masses --      1.1721                 1.1318                 1.1803
 Frc consts  --      1.4674                 1.4610                 1.5255
 IR Inten    --      2.6152                 9.1622                19.0666

                     67                     68                     69
                      A                      A                      A
 Frequencies --   1482.6692              1485.7541              1489.6941
 Red. masses --      1.0820                 1.0785                 1.0844
 Frc consts  --      1.4014                 1.4027                 1.4178
 IR Inten    --      8.8013                 5.7744                 5.0182

                     70                     71                     72
                      A                      A                      A
 Frequencies --   1494.7126              1497.5104              1502.4719
 Red. masses --      1.0909                 1.0430                 1.1187
 Frc consts  --      1.4360                 1.3781                 1.4879
 IR Inten    --      0.9953                 9.2505                 5.9186

                     73                     74                     75
                      A                      A                      A
 Frequencies --   1503.2827              1511.7732              1517.6677
 Red. masses --      1.0949                 1.0883                 1.0524
 Frc consts  --      1.4579                 1.4655                 1.4282
 IR Inten    --     10.7633                 2.9146                 8.7612

                     76                     77                     78
                      A                      A                      A
 Frequencies --   1526.9897              1720.9096              2906.7859
 Red. masses --      1.0921                 7.1726                 1.0738
 Frc consts  --      1.5003                12.5154                 5.3458
 IR Inten    --      1.9907                 1.1254                63.6086

                     79                     80                     81
                      A                      A                      A
 Frequencies --   2922.4052              2927.1527              2936.8971
 Red. masses --      1.0702                 1.0727                 1.0604
 Frc consts  --      5.3852                 5.4152                 5.3888
 IR Inten    --     45.2381                85.2993               122.8267

                     82                     83                     84
                      A                      A                      A
 Frequencies --   2997.5499              2997.9004              3002.2830
 Red. masses --      1.0667                 1.0865                 1.0666
 Frc consts  --      5.6471                 5.7532                 5.6642
 IR Inten    --     22.4431                27.6795                42.6179

                     85                     86                     87
                      A                      A                      A
 Frequencies --   3021.4622              3024.8118              3032.0509
 Red. masses --      1.0616                 1.0787                 1.0434
 Frc consts  --      5.7102                 5.8152                 5.6516
 IR Inten    --     31.4532                 9.4859                31.1872

                     88                     89                     90
                      A                      A                      A
 Frequencies --   3034.4310              3036.5974              3042.2627
 Red. masses --      1.0920                 1.0833                 1.0976
 Frc consts  --      5.9241                 5.8853                 5.9854
 IR Inten    --     14.8130                56.7082                12.0497

                     91                     92                     93
                      A                      A                      A
 Frequencies --   3051.7059              3056.6448              3059.3880
 Red. masses --      1.0734                 1.0963                 1.0902
 Frc consts  --      5.8900                 6.0350                 6.0123
 IR Inten    --     36.2302                50.3629                61.1415

                     94                     95                     96
                      A                      A                      A
 Frequencies --   3096.3210              3101.0991              3117.2586
 Red. masses --      1.0983                 1.1007                 1.1022
 Frc consts  --      6.2039                 6.2367                 6.3104
 IR Inten    --     38.3545                30.7346                26.9949

                     97                     98                     99
                      A                      A                      A
 Frequencies --   3175.2766              3488.7802              3511.3683
 Red. masses --      1.0932                 1.0731                 1.0738
 Frc consts  --      6.4937                 7.6955                 7.8005
 IR Inten    --     18.0281                 1.0304                 0.0894

 - Thermochemistry -
 -------------------
 Temperature   298.150 Kelvin.  Pressure   1.00000 Atm.
 Atom     1 has atomic number  6 and mass  12.00000

 Molecular mass:   182.17830 amu.
 Principal axes and moments of inertia in atomic units:
                           1         2         3
     Eigenvalues --  1527.041745826.653596682.49629
           X            1.00000  -0.00239   0.00196
           Y            0.00238   0.99997   0.00704
           Z           -0.00197  -0.00703   0.99997
 This molecule is an asymmetric top.
 Rotational symmetry number  1.
 Warning -- assumption of classical behavior for rotation
           may cause significant error
 Rotational temperatures (Kelvin)      0.05672     0.01487     0.01296
 Rotational constants (GHZ):           1.18185     0.30974     0.27007
 Zero-point vibrational energy     841608.8 (Joules/Mol)
                                  201.14934 (Kcal/Mol)
 Warning -- explicit consideration of  20 degrees of freedom as
           vibrations may cause significant error
 Vibrational temperatures:     38.45    68.64    85.43    99.78   142.79
          (Kelvin)            156.54   183.00   197.97   240.05   314.34
                              346.32   367.57   388.17   451.74   513.80
                              535.57   551.47   599.65   690.24   783.18
                              971.85  1069.62  1112.83  1128.81  1140.78
                             1157.14  1179.90  1220.68  1264.45  1318.97
                             1333.12  1358.44  1404.90  1412.10  1440.31
                             1460.91  1470.31  1504.00  1568.17  1586.77
                             1621.88  1631.38  1647.18  1667.87  1672.79
                             1697.02  1701.00  1709.05  1737.33  1795.66
                             1813.26  1838.34  1863.85  1870.53  1892.89
                             1904.54  1914.83  1954.82  1972.89  1989.48
                             1995.00  2024.65  2060.32  2097.29  2129.67
                             2131.02  2133.23  2137.67  2143.34  2150.56
                             2154.58  2161.72  2162.89  2175.10  2183.59
                             2197.00  2476.01  4182.22  4204.69  4211.52
                             4225.54  4312.81  4313.31  4319.62  4347.21
                             4352.03  4362.44  4365.87  4368.99  4377.14
                             4390.72  4397.83  4401.78  4454.92  4461.79
                             4485.04  4568.51  5019.58  5052.08

 Zero-point correction=                           0.320552 (Hartree/Particle)
 Thermal correction to Energy=                    0.335789
 Thermal correction to Enthalpy=                  0.336733
 Thermal correction to Gibbs Free Energy=         0.276680
 Sum of electronic and zero-point Energies=           -541.612026
 Sum of electronic and thermal Energies=              -541.596789
 Sum of electronic and thermal Enthalpies=            -541.595845
 Sum of electronic and thermal Free Energies=         -541.655898

                     E (Thermal)             CV                S
                      KCal/Mol        Cal/Mol-Kelvin    Cal/Mol-Kelvin
 Total                  210.711             55.849            126.392
 Electronic               0.000              0.000              0.000
 Translational            0.889              2.981             41.506
 Rotational               0.889              2.981             32.453
 Vibrational            208.933             49.887             52.433
 Vibration     1          0.593              1.984              6.059
 Vibration     2          0.595              1.978              4.910
 Vibration     3          0.597              1.974              4.478
 Vibration     4          0.598              1.969              4.172
 Vibration     5          0.604              1.950              3.469
 Vibration     6          0.606              1.942              3.290
 Vibration     7          0.611              1.926              2.988
 Vibration     8          0.614              1.916              2.837
 Vibration     9          0.624              1.883              2.471
 Vibration    10          0.646              1.813              1.972
 Vibration    11          0.658              1.778              1.798
 Vibration    12          0.666              1.754              1.692
 Vibration    13          0.674              1.729              1.598
 Vibration    14          0.702              1.647              1.341
 Vibration    15          0.732              1.561              1.135
 Vibration    16          0.744              1.529              1.071
 Vibration    17          0.752              1.506              1.026
 Vibration    18          0.780              1.434              0.903
 Vibration    19          0.836              1.295              0.711
 Vibration    20          0.899              1.152              0.556

 Optimization completed.
    -- Stationary point found.
 Normal termination of Gaussian 16 at Tue May 23 13:59:47 2023.
