 Gaussian 16, Revision A.03,
 Gaussian 16:  ES64L-G16RevA.03 25-Dec-2016

 -----------------------------
 # opt freq b3lyp/6-31g(2df,p)
 -----------------------------

 -------------------
 Title Card Required
 -------------------
 Symbolic Z-matrix:
 Charge =  0 Multiplicity = 1

 SCF Done:  E(RB3LYP) =  -635.313985574     A.U. after   13 cycles
 SCF Done:  E(RB3LYP) =  -635.327285395     A.U. after   11 cycles
 SCF Done:  E(RB3LYP) =  -635.329979311     A.U. after   11 cycles
 SCF Done:  E(RB3LYP) =  -635.333070858     A.U. after   11 cycles
 SCF Done:  E(RB3LYP) =  -635.337328139     A.U. after   12 cycles
 SCF Done:  E(RB3LYP) =  -635.339151440     A.U. after   10 cycles
 SCF Done:  E(RB3LYP) =  -635.340319808     A.U. after   11 cycles
 SCF Done:  E(RB3LYP) =  -635.340530586     A.U. after   10 cycles
 SCF Done:  E(RB3LYP) =  -635.340558391     A.U. after    9 cycles
 SCF Done:  E(RB3LYP) =  -635.340574846     A.U. after    8 cycles
 SCF Done:  E(RB3LYP) =  -635.340579127     A.U. after    8 cycles
 SCF Done:  E(RB3LYP) =  -635.340580599     A.U. after    7 cycles
 SCF Done:  E(RB3LYP) =  -635.340581868     A.U. after    8 cycles
 SCF Done:  E(RB3LYP) =  -635.340582209     A.U. after    7 cycles
 SCF Done:  E(RB3LYP) =  -635.340582357     A.U. after    6 cycles
 Optimization completed.
    -- Stationary point found.
 Normal termination of Gaussian 16 at Mon May 22 17:01:07 2023.

 ----------------------------------------------------------------------
 #N Geom=AllCheck Guess=TCheck SCRF=Check GenChk RB3LYP/6-31G(2df,p) Fr
 eq
 ----------------------------------------------------------------------

 Structure from the checkpoint file:  "CCNC1NC1C1CCCdCCNCC1.chk"
 -------------------
 Title Card Required
 -------------------
 Charge =  0 Multiplicity = 1

                         Standard orientation:
 ---------------------------------------------------------------------
 Center     Atomic      Atomic             Coordinates (Angstroms)
 Number     Number       Type             X           Y           Z
 ---------------------------------------------------------------------
      1          6           0        5.552566    0.867264   -0.298489
      2          6           0        4.113743    0.473309   -0.617759
      3          7           0        3.586398   -0.440735    0.397659
      4          6           0        2.238989   -0.872610    0.147213
      5          7           0        1.514709   -1.596738    1.184074
      6          6           0        1.050850   -0.242030    0.798564
      7          6           0       -0.348857   -0.073352    0.209399
      8          6           0       -0.448072    1.341739   -0.400427
      9          6           0       -1.877973    1.893677   -0.632604
     10          6           0       -2.718144    1.838480    0.612220
     11          6           0       -3.636561    0.918030    0.907932
     12          6           0       -4.078868   -0.230838    0.021204
     13          7           0       -3.141146   -1.366842   -0.019337
     14          6           0       -2.187897   -1.390608   -1.137047
     15          6           0       -0.708316   -1.231290   -0.736048
     16          1           0        5.959475    1.517604   -1.078447
     17          1           0        6.185517   -0.020753   -0.215745
     18          1           0        5.611152    1.412937    0.650677
     19          1           0        4.080017   -0.050239   -1.581421
     20          1           0        3.493987    1.380593   -0.735202
     21          1           0        3.635442    0.008981    1.308823
     22          1           0        2.140106   -1.305664   -0.846520
     23          1           0        2.029052   -1.574715    2.061481
     24          1           0        1.311953    0.559578    1.493244
     25          1           0       -1.048491   -0.127902    1.052889
     26          1           0        0.104501    1.376606   -1.348754
     27          1           0        0.068334    2.039678    0.273080
     28          1           0       -2.364095    1.351259   -1.446625
     29          1           0       -1.784450    2.934047   -0.969137
     30          1           0       -2.489104    2.593817    1.363882
     31          1           0       -4.116384    0.969230    1.883083
     32          1           0       -4.288865    0.144164   -0.995047
     33          1           0       -5.031686   -0.605007    0.409350
     34          1           0       -3.672945   -2.225137   -0.015155
     35          1           0       -2.466229   -0.636424   -1.885891
     36          1           0       -2.272328   -2.354996   -1.654609
     37          1           0       -0.124864   -1.154432   -1.665092
     38          1           0       -0.388573   -2.153642   -0.240591
 ---------------------------------------------------------------------

 SCF Done:  E(RB3LYP) =  -635.340582357     A.U. after    1 cycles

 The electronic state is 1-A.
 Alpha  occ. eigenvalues --  -14.31603 -14.31221 -14.30412 -10.22680 -10.20651
 Alpha  occ. eigenvalues --  -10.20291 -10.19922 -10.19618 -10.17762 -10.17556
 Alpha  occ. eigenvalues --  -10.17546 -10.17402 -10.17095 -10.17012 -10.16052
 Alpha  occ. eigenvalues --   -0.96039  -0.88992  -0.88073  -0.80293  -0.77864
 Alpha  occ. eigenvalues --   -0.73630  -0.71293  -0.70674  -0.64304  -0.62299
 Alpha  occ. eigenvalues --   -0.60995  -0.60147  -0.59078  -0.54361  -0.51624
 Alpha  occ. eigenvalues --   -0.50730  -0.49022  -0.47303  -0.46578  -0.45321
 Alpha  occ. eigenvalues --   -0.44858  -0.43874  -0.42627  -0.41163  -0.40171
 Alpha  occ. eigenvalues --   -0.38937  -0.38646  -0.37457  -0.36963  -0.36514
 Alpha  occ. eigenvalues --   -0.36065  -0.35373  -0.34465  -0.33652  -0.32690
 Alpha  occ. eigenvalues --   -0.31757  -0.31698  -0.29651  -0.29499  -0.25348
 Alpha  occ. eigenvalues --   -0.24076  -0.21192  -0.20413
 Alpha virt. eigenvalues --    0.02174   0.07530   0.07786   0.09219   0.09941
 Alpha virt. eigenvalues --    0.11181   0.11692   0.12975   0.13451   0.14039
 Alpha virt. eigenvalues --    0.14469   0.15320   0.16105   0.16360   0.16835

 Mulliken charges:
               1
     1  C   -0.388515
     2  C   -0.107146
     3  N   -0.298920
     4  C    0.052472
     5  N   -0.366075
     6  C   -0.065208
     7  C    0.024984
     8  C   -0.196144
     9  C   -0.266952
    10  C   -0.031370
    11  C   -0.023092
    12  C   -0.224356
    13  N   -0.273263
    14  C   -0.197282
    15  C   -0.188626
    16  H    0.115496
    17  H    0.128634
    18  H    0.110546
    19  H    0.107076
    20  H    0.082726
    21  H    0.205305
    22  H    0.095937
    23  H    0.221511
    24  H    0.064802
    25  H    0.097241
    26  H    0.089602
    27  H    0.085742
    28  H    0.102072
    29  H    0.093213
    30  H    0.078655
    31  H    0.081716
    32  H    0.093052
    33  H    0.094881
    34  H    0.217873
    35  H    0.091494
    36  H    0.089194
    37  H    0.076752
    38  H    0.125973
 Sum of Mulliken charges =  -0.00000

 Dipole moment (field-independent basis, Debye):
    X=             -0.1072    Y=              1.4602    Z=             -0.3382  Tot=              1.5027
 Quadrupole moment (field-independent basis, Debye-Ang):
   XX=            -88.2724   YY=            -95.8758   ZZ=            -89.7341
   XY=              8.0888   XZ=              2.3008   YZ=              3.0646

  Exact polarizability: 180.407   8.794 139.421  -6.625   1.398 125.610
 Approx polarizability: 218.017  14.625 212.467 -11.421  -2.297 200.603

                      1                      2                      3
                      A                      A                      A
 Frequencies --     26.8612                50.5341                68.9032
 Red. masses --      3.6784                 3.5986                 2.6652
 Frc consts  --      0.0016                 0.0054                 0.0075
 IR Inten    --      0.6503                 0.2564                 0.5478

                      4                      5                      6
                      A                      A                      A
 Frequencies --     72.4550                90.8992               115.9827
 Red. masses --      2.0271                 2.7403                 3.4001
 Frc consts  --      0.0063                 0.0133                 0.0269
 IR Inten    --      0.8472                 0.8827                 1.2791

                      7                      8                      9
                      A                      A                      A
 Frequencies --    161.2317               184.4033               206.3376
 Red. masses --      3.7607                 2.6038                 2.5575
 Frc consts  --      0.0576                 0.0522                 0.0642
 IR Inten    --      2.1295                 0.9028                 0.1033

                     10                     11                     12
                      A                      A                      A
 Frequencies --    227.0222               252.9380               259.0209
 Red. masses --      2.8927                 1.2225                 2.7871
 Frc consts  --      0.0878                 0.0461                 0.1102
 IR Inten    --      1.6440                 0.4549                 0.7459

                     13                     14                     15
                      A                      A                      A
 Frequencies --    266.7678               317.4969               349.5866
 Red. masses --      2.8018                 2.5694                 2.1246
 Frc consts  --      0.1175                 0.1526                 0.1530
 IR Inten    --      0.7417                 2.8318                 3.0608

                     16                     17                     18
                      A                      A                      A
 Frequencies --    368.4240               411.4173               418.9443
 Red. masses --      2.5884                 2.5431                 3.3553
 Frc consts  --      0.2070                 0.2536                 0.3470
 IR Inten    --      1.2651                 4.6946                 0.7557

                     19                     20                     21
                      A                      A                      A
 Frequencies --    440.0218               473.0826               509.3971
 Red. masses --      1.9418                 3.0483                 2.9791
 Frc consts  --      0.2215                 0.4020                 0.4555
 IR Inten    --      8.9828                 6.1119                16.7527

                     22                     23                     24
                      A                      A                      A
 Frequencies --    540.8175               583.8912               648.2271
 Red. masses --      2.7389                 2.0809                 2.9244
 Frc consts  --      0.4720                 0.4180                 0.7240
 IR Inten    --      7.2807                15.5645                 0.3368

                     25                     26                     27
                      A                      A                      A
 Frequencies --    665.2971               726.9025               752.4826
 Red. masses --      1.5151                 2.0754                 1.5577
 Frc consts  --      0.3951                 0.6461                 0.5197
 IR Inten    --     19.4331                 4.2158                85.9606

                     28                     29                     30
                      A                      A                      A
 Frequencies --    775.1767               811.5607               821.0926
 Red. masses --      1.8991                 1.3556                 1.7030
 Frc consts  --      0.6724                 0.5260                 0.6765
 IR Inten    --      0.8264                28.8743                44.4698

                     31                     32                     33
                      A                      A                      A
 Frequencies --    825.0258               855.3007               866.9995
 Red. masses --      1.7465                 2.5941                 2.4220
 Frc consts  --      0.7004                 1.1181                 1.0727
 IR Inten    --     10.4548                62.8909                 2.5630

                     34                     35                     36
                      A                      A                      A
 Frequencies --    891.1159               927.4942               946.7894
 Red. masses --      3.3188                 1.5043                 2.2388
 Frc consts  --      1.5527                 0.7625                 1.1824
 IR Inten    --      0.8628                 5.0171                 2.6697

                     37                     38                     39
                      A                      A                      A
 Frequencies --    961.5709               971.2196               994.2876
 Red. masses --      2.3332                 1.9082                 2.2381
 Frc consts  --      1.2711                 1.0605                 1.3036
 IR Inten    --      6.2328                 2.9883                 2.6090

                     40                     41                     42
                      A                      A                      A
 Frequencies --   1005.3619              1011.7791              1037.9598
 Red. masses --      1.5143                 1.6115                 1.5935
 Frc consts  --      0.9018                 0.9720                 1.0115
 IR Inten    --      1.8070                 1.0010                 1.5632

                     43                     44                     45
                      A                      A                      A
 Frequencies --   1057.8399              1066.6364              1071.0023
 Red. masses --      1.9418                 2.8556                 2.1509
 Frc consts  --      1.2802                 1.9141                 1.4536
 IR Inten    --      0.2508                 4.4867                 1.7306

                     46                     47                     48
                      A                      A                      A
 Frequencies --   1095.2556              1117.8031              1125.0669
 Red. masses --      1.6610                 2.0386                 1.9559
 Frc consts  --      1.1740                 1.5008                 1.4586
 IR Inten    --      3.4288                28.2328                 2.3991

                     49                     50                     51
                      A                      A                      A
 Frequencies --   1141.1421              1151.9583              1154.2096
 Red. masses --      1.7113                 2.2509                 1.6439
 Frc consts  --      1.3129                 1.7598                 1.2903
 IR Inten    --      7.6290                96.6039                 2.7875

                     52                     53                     54
                      A                      A                      A
 Frequencies --   1163.1491              1177.9815              1205.0141
 Red. masses --      2.8450                 1.4298                 1.4225
 Frc consts  --      2.2678                 1.1689                 1.2170
 IR Inten    --     11.3768                11.3591                 1.0681

                     55                     56                     57
                      A                      A                      A
 Frequencies --   1221.9807              1256.1782              1267.0749
 Red. masses --      1.3104                 1.7067                 1.1896
 Frc consts  --      1.1529                 1.5868                 1.1253
 IR Inten    --     13.3008                30.9637                 3.9596

                     58                     59                     60
                      A                      A                      A
 Frequencies --   1273.6380              1278.4993              1295.0963
 Red. masses --      1.5939                 1.3076                 1.1549
 Frc consts  --      1.5233                 1.2592                 1.1413
 IR Inten    --      1.0547                 2.8397                 0.1802

                     61                     62                     63
                      A                      A                      A
 Frequencies --   1307.9846              1316.6071              1335.4161
 Red. masses --      1.3607                 1.1909                 1.2798
 Frc consts  --      1.3716                 1.2163                 1.3447
 IR Inten    --      4.2079                 7.4397                 1.0425

                     64                     65                     66
                      A                      A                      A
 Frequencies --   1344.3140              1348.9690              1361.7340
 Red. masses --      1.2341                 1.2153                 1.2209
 Frc consts  --      1.3141                 1.3030                 1.3338
 IR Inten    --      8.7442                30.4880                 5.6897

                     67                     68                     69
                      A                      A                      A
 Frequencies --   1376.2157              1381.0128              1391.4276
 Red. masses --      1.2274                 1.3384                 1.3121
 Frc consts  --      1.3696                 1.5039                 1.4967
 IR Inten    --     11.6851                21.5798                 2.2021

                     70                     71                     72
                      A                      A                      A
 Frequencies --   1409.2546              1410.5549              1418.3398
 Red. masses --      1.3523                 1.3088                 1.3727
 Frc consts  --      1.5824                 1.5343                 1.6270
 IR Inten    --      8.3732                 4.0119                 7.4572

                     73                     74                     75
                      A                      A                      A
 Frequencies --   1427.5355              1450.0658              1473.8543
 Red. masses --      1.4078                 1.5040                 1.1065
 Frc consts  --      1.6902                 1.8633                 1.4161
 IR Inten    --      2.7342                 8.6972                 2.3614

                     76                     77                     78
                      A                      A                      A
 Frequencies --   1476.4318              1486.1624              1488.4152
 Red. masses --      1.0896                 1.1131                 1.1069
 Frc consts  --      1.3994                 1.4485                 1.4448
 IR Inten    --      0.5153                 3.1662                 3.8434

                     79                     80                     81
                      A                      A                      A
 Frequencies --   1490.1452              1498.0086              1499.1482
 Red. masses --      1.0955                 1.0459                 1.1534
 Frc consts  --      1.4333                 1.3828                 1.5273
 IR Inten    --      3.5225                 6.8970                 2.7556

                     82                     83                     84
                      A                      A                      A
 Frequencies --   1511.0417              1515.9185              1522.1312
 Red. masses --      1.1134                 1.4209                 1.0946
 Frc consts  --      1.4978                 1.9238                 1.4943
 IR Inten    --     11.6452                38.6241                 2.1063

                     85                     86                     87
                      A                      A                      A
 Frequencies --   1724.4837              2936.5509              2950.4512
 Red. masses --      6.7461                 1.0729                 1.0711
 Frc consts  --     11.8201                 5.4513                 5.4936
 IR Inten    --      1.5000                59.2523                53.9832

                     88                     89                     90
                      A                      A                      A
 Frequencies --   2993.3025              3001.9999              3007.4451
 Red. masses --      1.0615                 1.0610                 1.0656
 Frc consts  --      5.6038                 5.6336                 5.6784
 IR Inten    --     26.4890                32.7151                39.7587

                     91                     92                     93
                      A                      A                      A
 Frequencies --   3026.7975              3030.2819              3031.5421
 Red. masses --      1.0719                 1.0924                 1.0439
 Frc consts  --      5.7859                 5.9100                 5.6522
 IR Inten    --     36.8738                18.4999                17.8705

                     94                     95                     96
                      A                      A                      A
 Frequencies --   3032.3013              3040.4977              3044.7015
 Red. masses --      1.0932                 1.0797                 1.0938
 Frc consts  --      5.9224                 5.8807                 5.9743
 IR Inten    --     30.8784                24.1825                39.8892

                     97                     98                     99
                      A                      A                      A
 Frequencies --   3062.6510              3071.6185              3079.7770
 Red. masses --      1.0895                 1.0866                 1.0946
 Frc consts  --      6.0208                 6.0400                 6.1171
 IR Inten    --     34.4639                33.7090                17.7472

                    100                    101                    102
                      A                      A                      A
 Frequencies --   3098.6536              3098.9893              3119.9173
 Red. masses --      1.0982                 1.0891                 1.1023
 Frc consts  --      6.2128                 6.1624                 6.3215
 IR Inten    --     32.0271                20.8322                23.0496

                    103                    104                    105
                      A                      A                      A
 Frequencies --   3120.8352              3124.4740              3150.7648
 Red. masses --      1.0851                 1.0877                 1.0945
 Frc consts  --      6.2267                 6.2560                 6.4016
 IR Inten    --     21.0889                23.7313                40.8909

                    106                    107                    108
                      A                      A                      A
 Frequencies --   3484.7454              3496.2862              3576.3050
 Red. masses --      1.0732                 1.0758                 1.0757
 Frc consts  --      7.6783                 7.7478                 8.1057
 IR Inten    --      0.6159                 0.0527                 0.5662

 - Thermochemistry -
 -------------------
 Temperature   298.150 Kelvin.  Pressure   1.00000 Atm.
 Atom     1 has atomic number  6 and mass  12.00000

 Molecular mass:   209.18920 amu.
 Principal axes and moments of inertia in atomic units:
                           1         2         3
     Eigenvalues --  1465.640986890.482637538.21747
           X            0.99994   0.01069  -0.00006
           Y           -0.01069   0.99978   0.01799
           Z            0.00025  -0.01799   0.99984
 This molecule is an asymmetric top.
 Rotational symmetry number  1.
 Warning -- assumption of classical behavior for rotation
           may cause significant error
 Rotational temperatures (Kelvin)      0.05910     0.01257     0.01149
 Rotational constants (GHZ):           1.23137     0.26192     0.23941
 Zero-point vibrational energy     906516.2 (Joules/Mol)
                                  216.66256 (Kcal/Mol)
 Warning -- explicit consideration of  23 degrees of freedom as
           vibrations may cause significant error
 Vibrational temperatures:     38.65    72.71    99.14   104.25   130.78
          (Kelvin)            166.87   231.98   265.32   296.87   326.63
                              363.92   372.67   383.82   456.81   502.98
                              530.08   591.94   602.77   633.09   680.66
                              732.91   778.12   840.09   932.65   957.21
                             1045.85  1082.65  1115.31  1167.65  1181.37
                             1187.03  1230.59  1247.42  1282.12  1334.46
                             1362.22  1383.49  1397.37  1430.56  1446.49
                             1455.72  1493.39  1522.00  1534.65  1540.93
                             1575.83  1608.27  1618.72  1641.85  1657.41
                             1660.65  1673.51  1694.85  1733.75  1758.16
                             1807.36  1823.04  1832.48  1839.48  1863.35
                             1881.90  1894.30  1921.37  1934.17  1940.87
                             1959.23  1980.07  1986.97  2001.95  2027.60
                             2029.47  2040.67  2053.91  2086.32  2120.55
                             2124.26  2138.26  2141.50  2143.99  2155.30
                             2156.94  2174.05  2181.07  2190.01  2481.15
                             4225.04  4245.04  4306.69  4319.21  4327.04
                             4354.89  4359.90  4361.71  4362.81  4374.60
                             4380.65  4406.47  4419.37  4431.11  4458.27
                             4458.75  4488.87  4490.19  4495.42  4533.25
                             5013.77  5030.38  5145.51

 Zero-point correction=                           0.345274 (Hartree/Particle)
 Thermal correction to Energy=                    0.361137
 Thermal correction to Enthalpy=                  0.362081
 Thermal correction to Gibbs Free Energy=         0.301469
 Sum of electronic and zero-point Energies=           -634.995309
 Sum of electronic and thermal Energies=              -634.979445
 Sum of electronic and thermal Enthalpies=            -634.978501
 Sum of electronic and thermal Free Energies=         -635.039114

                     E (Thermal)             CV                S
                      KCal/Mol        Cal/Mol-Kelvin    Cal/Mol-Kelvin
 Total                  226.617             61.379            127.570
 Electronic               0.000              0.000              0.000
 Translational            0.889              2.981             41.918
 Rotational               0.889              2.981             32.698
 Vibrational            224.840             55.417             52.954
 Vibration     1          0.593              1.984              6.049
 Vibration     2          0.595              1.977              4.796
 Vibration     3          0.598              1.969              4.184
 Vibration     4          0.599              1.967              4.086
 Vibration     5          0.602              1.956              3.641
 Vibration     6          0.608              1.936              3.166
 Vibration     7          0.622              1.890              2.535
 Vibration     8          0.631              1.861              2.283
 Vibration     9          0.641              1.831              2.076
 Vibration    10          0.651              1.800              1.902
 Vibration    11          0.664              1.758              1.710
 Vibration    12          0.668              1.747              1.668
 Vibration    13          0.672              1.734              1.617
 Vibration    14          0.704              1.640              1.323
 Vibration    15          0.727              1.576              1.168
 Vibration    16          0.741              1.537              1.086
 Vibration    17          0.775              1.445              0.922
 Vibration    18          0.782              1.429              0.896
 Vibration    19          0.800              1.383              0.827
 Vibration    20          0.830              1.310              0.729
 Vibration    21          0.865              1.229              0.635
 Vibration    22          0.896              1.160              0.564
 Vibration    23          0.941              1.066              0.478

                           ! Non-Optimized Parameters !
 Normal termination of Gaussian 16 at Mon May 22 20:20:28 2023.
