 Gaussian 16, Revision A.03,
 Gaussian 16:  ES64L-G16RevA.03 25-Dec-2016

 -----------------------------
 # opt freq b3lyp/6-31g(2df,p)
 -----------------------------

 -------------------
 Title Card Required
 -------------------
 Symbolic Z-matrix:
 Charge =  0 Multiplicity = 1

 SCF Done:  E(RB3LYP) =  -858.767251631     A.U. after   18 cycles
 SCF Done:  E(RB3LYP) =  -858.810399877     A.U. after   14 cycles
 SCF Done:  E(RB3LYP) =  -858.835802702     A.U. after   15 cycles
 SCF Done:  E(RB3LYP) =  -858.885007190     A.U. after   13 cycles
 SCF Done:  E(RB3LYP) =  -858.915826495     A.U. after   14 cycles
 SCF Done:  E(RB3LYP) =  -858.922436395     A.U. after   13 cycles
 SCF Done:  E(RB3LYP) =  -858.924421224     A.U. after   13 cycles
 SCF Done:  E(RB3LYP) =  -858.927291439     A.U. after   13 cycles
 SCF Done:  E(RB3LYP) =  -858.926778103     A.U. after   14 cycles
 SCF Done:  E(RB3LYP) =  -858.929577393     A.U. after   13 cycles
 SCF Done:  E(RB3LYP) =  -858.930498888     A.U. after    7 cycles
 SCF Done:  E(RB3LYP) =  -858.930499092     A.U. after    7 cycles
 SCF Done:  E(RB3LYP) =  -858.930499421     A.U. after    8 cycles
 SCF Done:  E(RB3LYP) =  -858.930499637     A.U. after    7 cycles
 SCF Done:  E(RB3LYP) =  -858.930499905     A.U. after    8 cycles
 SCF Done:  E(RB3LYP) =  -858.930500354     A.U. after    8 cycles
 SCF Done:  E(RB3LYP) =  -858.930500720     A.U. after    8 cycles
 SCF Done:  E(RB3LYP) =  -858.930500806     A.U. after    7 cycles
 SCF Done:  E(RB3LYP) =  -858.930500848     A.U. after    6 cycles
 Optimization completed.
    -- Stationary point found.
 Normal termination of Gaussian 16 at Sat May 27 22:49:54 2023.

 ----------------------------------------------------------------------
 #N Geom=AllCheck Guess=TCheck SCRF=Check GenChk RB3LYP/6-31G(2df,p) Fr
 eq
 ----------------------------------------------------------------------

 Structure from the checkpoint file:  "CCNCqCCqCrdOr[PH]qdOrO.chk"
 -------------------
 Title Card Required
 -------------------
 Charge =  0 Multiplicity = 1

                         Standard orientation:
 ---------------------------------------------------------------------
 Center     Atomic      Atomic             Coordinates (Angstroms)
 Number     Number       Type             X           Y           Z
 ---------------------------------------------------------------------
      1          6           0       -1.672614    3.216457    0.039285
      2          6           0       -1.427235    1.736998    0.320767
      3          7           0       -0.110744    1.336690   -0.176642
      4          6           0        0.310058   -0.023163    0.130977
      5          6           0       -0.444063   -1.095855   -0.687616
      6          6           0       -1.852245   -1.456746   -0.212162
      7          6           0       -2.005916   -1.924984    1.225763
      8          8           0       -2.796237   -1.408148   -0.966172
      9         15           0        2.098330   -0.084571   -0.268468
     10          8           0        2.869900    1.047078    0.279217
     11          8           0        2.573841   -1.553197    0.204356
     12          1           0       -2.665443    3.515613    0.386740
     13          1           0       -1.601733    3.420010   -1.032751
     14          1           0       -0.935233    3.843357    0.553561
     15          1           0       -2.191219    1.139670   -0.186750
     16          1           0       -1.535573    1.542792    1.405192
     17          1           0        0.593776    1.976632    0.181411
     18          1           0        0.243750   -0.276031    1.208245
     19          1           0        0.135622   -2.028717   -0.649813
     20          1           0       -0.518547   -0.774736   -1.729272
     21          1           0       -1.221282   -2.636950    1.501652
     22          1           0       -2.989320   -2.378665    1.354069
     23          1           0       -1.919995   -1.072546    1.909050
     24          1           0        2.144521   -0.264661   -1.667732
     25          1           0        3.132988   -1.496140    0.988611
 ---------------------------------------------------------------------

 SCF Done:  E(RB3LYP) =  -858.930500848     A.U. after    1 cycles

 The electronic state is 1-A.
 Alpha  occ. eigenvalues --  -77.17731 -19.18515 -19.13397 -19.10301 -14.32659
 Alpha  occ. eigenvalues --  -10.27876 -10.23596 -10.21309 -10.20393 -10.19594
 Alpha  occ. eigenvalues --  -10.17946  -6.63423  -4.79870  -4.79618  -4.79523
 Alpha  occ. eigenvalues --   -1.06695  -1.04536  -0.96958  -0.91787  -0.79643
 Alpha  occ. eigenvalues --   -0.75450  -0.72544  -0.67044  -0.61926  -0.60330
 Alpha  occ. eigenvalues --   -0.53974  -0.51301  -0.50757  -0.47460  -0.46899
 Alpha  occ. eigenvalues --   -0.45799  -0.45300  -0.44800  -0.43643  -0.41572
 Alpha  occ. eigenvalues --   -0.40533  -0.39767  -0.38153  -0.37479  -0.37344
 Alpha  occ. eigenvalues --   -0.36932  -0.35610  -0.34412  -0.33616  -0.30259
 Alpha  occ. eigenvalues --   -0.28754  -0.24758  -0.23742
 Alpha virt. eigenvalues --   -0.02029   0.03994   0.05865   0.06134   0.09030
 Alpha virt. eigenvalues --    0.10299   0.11185   0.11488   0.12954   0.13328
 Alpha virt. eigenvalues --    0.14192   0.14906   0.15405   0.16308   0.17059

 Mulliken charges:
               1
     1  C   -0.393982
     2  C   -0.127138
     3  N   -0.316850
     4  C   -0.018477
     5  C   -0.318431
     6  C    0.378879
     7  C   -0.480118
     8  O   -0.297960
     9  P    0.304927
    10  O   -0.337066
    11  O   -0.352786
    12  H    0.120056
    13  H    0.133229
    14  H    0.118799
    15  H    0.134366
    16  H    0.076139
    17  H    0.243610
    18  H    0.082813
    19  H    0.138749
    20  H    0.134977
    21  H    0.133572
    22  H    0.146997
    23  H    0.148800
    24  H    0.019749
    25  H    0.327143
 Sum of Mulliken charges =  -0.00000

 Dipole moment (field-independent basis, Debye):
    X=              0.3095    Y=             -1.5775    Z=              2.3881  Tot=              2.8787
 Quadrupole moment (field-independent basis, Debye-Ang):
   XX=            -84.4645   YY=            -72.6895   ZZ=            -71.9095
   XY=            -10.1948   XZ=             -4.1364   YZ=             -3.6004

  Exact polarizability: 112.978  -0.663 102.888   0.546  -1.814  87.818
 Approx polarizability: 154.301   3.615 141.631   9.891   0.132 140.441

                      1                      2                      3
                      A                      A                      A
 Frequencies --     38.4567                45.1089                66.5198
 Red. masses --      3.8060                 3.8133                 2.9166
 Frc consts  --      0.0033                 0.0046                 0.0076
 IR Inten    --      4.1511                 3.3895                 2.7192

                      4                      5                      6
                      A                      A                      A
 Frequencies --     87.4507                97.9554               108.2557
 Red. masses --      2.0442                 2.1712                 2.8260
 Frc consts  --      0.0092                 0.0123                 0.0195
 IR Inten    --      0.0296                18.4636                 1.4276

                      7                      8                      9
                      A                      A                      A
 Frequencies --    112.7280               122.6167               150.4878
 Red. masses --      2.1318                 1.4000                 2.2533
 Frc consts  --      0.0160                 0.0124                 0.0301
 IR Inten    --      8.8818                29.2214                21.2174

                     10                     11                     12
                      A                      A                      A
 Frequencies --    207.7670               253.2328               278.0385
 Red. masses --      4.0548                 1.1841                 3.9452
 Frc consts  --      0.1031                 0.0447                 0.1797
 IR Inten    --      0.2280                 2.7319                 0.6490

                     13                     14                     15
                      A                      A                      A
 Frequencies --    286.6562               344.1587               378.5066
 Red. masses --      5.6400                 3.5303                 3.1022
 Frc consts  --      0.2731                 0.2464                 0.2619
 IR Inten    --      6.7357                 9.4050                 3.5987

                     16                     17                     18
                      A                      A                      A
 Frequencies --    404.9863               412.9772               499.3258
 Red. masses --      3.3265                 3.1369                 2.8933
 Frc consts  --      0.3215                 0.3152                 0.4250
 IR Inten    --     27.3791                46.5999                 2.0102

                     19                     20                     21
                      A                      A                      A
 Frequencies --    551.4625               557.3993               761.8074
 Red. masses --      3.5138                 2.4578                 2.2236
 Frc consts  --      0.6296                 0.4499                 0.7603
 IR Inten    --     35.1545                13.2235                10.7816

                     22                     23                     24
                      A                      A                      A
 Frequencies --    778.7775               811.1223               827.1399
 Red. masses --      2.0279                 2.7667                 1.2116
 Frc consts  --      0.7246                 1.0725                 0.4884
 IR Inten    --     27.8817                37.8498                11.3945

                     25                     26                     27
                      A                      A                      A
 Frequencies --    855.2681               868.4607               914.0782
 Red. masses --      2.3299                 3.8428                 1.6365
 Frc consts  --      1.0041                 1.7076                 0.8056
 IR Inten    --     63.7026               179.5765                13.2800

                     28                     29                     30
                      A                      A                      A
 Frequencies --    965.6259               972.6228               981.0603
 Red. masses --      1.2197                 1.6511                 1.3337
 Frc consts  --      0.6701                 0.9203                 0.7563
 IR Inten    --      2.0094                 3.2522                26.8844

                     31                     32                     33
                      A                      A                      A
 Frequencies --   1028.6125              1051.3362              1061.4603
 Red. masses --      1.9548                 1.2808                 2.0899
 Frc consts  --      1.2186                 0.8341                 1.3873
 IR Inten    --      9.9333                56.9721                 8.3700

                     34                     35                     36
                      A                      A                      A
 Frequencies --   1066.7309              1137.6489              1160.2491
 Red. masses --      2.0000                 1.9788                 2.7179
 Frc consts  --      1.3409                 1.5089                 2.1557
 IR Inten    --     31.9426                 6.3015                36.8523

                     37                     38                     39
                      A                      A                      A
 Frequencies --   1173.7421              1203.4745              1231.9400
 Red. masses --      1.6036                 2.2102                 1.6071
 Frc consts  --      1.3016                 1.8861                 1.4371
 IR Inten    --     17.2201                34.0563                21.4966

                     40                     41                     42
                      A                      A                      A
 Frequencies --   1249.0262              1290.5466              1302.4118
 Red. masses --      1.5555                 3.5149                 1.1740
 Frc consts  --      1.4297                 3.4492                 1.1733
 IR Inten    --     59.8878               155.6533                22.3060

                     43                     44                     45
                      A                      A                      A
 Frequencies --   1324.1678              1357.4523              1382.0893
 Red. masses --      1.6087                 1.3691                 1.3120
 Frc consts  --      1.6619                 1.4864                 1.4766
 IR Inten    --     21.1926                10.4643                37.2317

                     46                     47                     48
                      A                      A                      A
 Frequencies --   1392.6320              1414.7855              1451.9217
 Red. masses --      1.2876                 1.3210                 1.0897
 Frc consts  --      1.4714                 1.5579                 1.3534
 IR Inten    --      1.2123                 4.0842                 3.3966

                     49                     50                     51
                      A                      A                      A
 Frequencies --   1463.6610              1478.3658              1487.8747
 Red. masses --      1.0516                 1.0519                 1.0510
 Frc consts  --      1.3274                 1.3545                 1.3709
 IR Inten    --      7.7911                 8.8734                 5.3477

                     52                     53                     54
                      A                      A                      A
 Frequencies --   1498.9227              1521.2523              1525.7673
 Red. masses --      1.0382                 1.1654                 1.1059
 Frc consts  --      1.3744                 1.5890                 1.5169
 IR Inten    --      5.2385                19.3189                24.2409

                     55                     56                     57
                      A                      A                      A
 Frequencies --   1807.8680              2422.1518              2898.4323
 Red. masses --     10.5158                 1.0406                 1.0786
 Frc consts  --     20.2500                 3.5971                 5.3386
 IR Inten    --    158.3755                75.0002                43.6766

                     58                     59                     60
                      A                      A                      A
 Frequencies --   2914.9019              3022.2272              3035.9583
 Red. masses --      1.0732                 1.0639                 1.0377
 Frc consts  --      5.3724                 5.7254                 5.6351
 IR Inten    --     78.6645                 4.9923                20.7114

                     61                     62                     63
                      A                      A                      A
 Frequencies --   3039.6832              3074.2187              3101.1974
 Red. masses --      1.0373                 1.0853                 1.0978
 Frc consts  --      5.6468                 6.0435                 6.2208
 IR Inten    --      2.8942                 6.6548                 6.9693

                     64                     65                     66
                      A                      A                      A
 Frequencies --   3106.3262              3112.4346              3123.2840
 Red. masses --      1.0987                 1.0966                 1.1024
 Frc consts  --      6.2461                 6.2589                 6.3360
 IR Inten    --     32.3235                 5.9828                20.9163

                     67                     68                     69
                      A                      A                      A
 Frequencies --   3152.2287              3497.9573              3825.6827
 Red. masses --      1.1020                 1.0738                 1.0654
 Frc consts  --      6.4517                 7.7411                 9.1872
 IR Inten    --      8.7991                10.4813               138.9362

 - Thermochemistry -
 -------------------
 Temperature   298.150 Kelvin.  Pressure   1.00000 Atm.
 Atom     1 has atomic number  6 and mass  12.00000

 Molecular mass:   179.07113 amu.
 Principal axes and moments of inertia in atomic units:
                           1         2         3
     Eigenvalues --  1748.659772724.123924008.87355
           X            0.99835  -0.05525  -0.01561
           Y            0.05502   0.99838  -0.01469
           Z            0.01640   0.01381   0.99977
 This molecule is an asymmetric top.
 Rotational symmetry number  1.
 Warning -- assumption of classical behavior for rotation
           may cause significant error
 Rotational temperatures (Kelvin)      0.04953     0.03180     0.02161
 Rotational constants (GHZ):           1.03207     0.66250     0.45019
 Zero-point vibrational energy     539101.2 (Joules/Mol)
                                  128.84827 (Kcal/Mol)
 Warning -- explicit consideration of  20 degrees of freedom as
           vibrations may cause significant error
 Vibrational temperatures:     55.33    64.90    95.71   125.82   140.94
          (Kelvin)            155.76   162.19   176.42   216.52   298.93
                              364.35   400.04   412.43   495.17   544.59
                              582.68   594.18   718.42   793.43   801.97
                             1096.07  1120.49  1167.02  1190.07  1230.54
                             1249.52  1315.15  1389.32  1399.39  1411.53
                             1479.94  1512.64  1527.20  1534.79  1636.82
                             1669.34  1688.75  1731.53  1772.49  1797.07
                             1856.81  1873.88  1905.18  1953.07  1988.52
                             2003.69  2035.56  2088.99  2105.88  2127.04
                             2140.72  2156.62  2188.74  2195.24  2601.12
                             3484.94  4170.20  4193.89  4348.31  4368.07
                             4373.43  4423.11  4461.93  4469.31  4478.10
                             4493.71  4535.35  5032.78  5504.30

 Zero-point correction=                           0.205333 (Hartree/Particle)
 Thermal correction to Energy=                    0.219694
 Thermal correction to Enthalpy=                  0.220638
 Thermal correction to Gibbs Free Energy=         0.162711
 Sum of electronic and zero-point Energies=           -858.725168
 Sum of electronic and thermal Energies=              -858.710807
 Sum of electronic and thermal Enthalpies=            -858.709863
 Sum of electronic and thermal Free Energies=         -858.767790

                     E (Thermal)             CV                S
                      KCal/Mol        Cal/Mol-Kelvin    Cal/Mol-Kelvin
 Total                  137.860             49.501            121.917
 Electronic               0.000              0.000              0.000
 Translational            0.889              2.981             41.455
 Rotational               0.889              2.981             31.324
 Vibrational            136.082             43.539             49.138
 Vibration     1          0.594              1.982              5.337
 Vibration     2          0.595              1.979              5.021
 Vibration     3          0.598              1.970              4.254
 Vibration     4          0.601              1.958              3.716
 Vibration     5          0.603              1.951              3.495
 Vibration     6          0.606              1.943              3.300
 Vibration     7          0.607              1.939              3.221
 Vibration     8          0.610              1.930              3.059
 Vibration     9          0.618              1.902              2.666
 Vibration    10          0.641              1.829              2.063
 Vibration    11          0.664              1.757              1.708
 Vibration    12          0.679              1.714              1.546
 Vibration    13          0.684              1.698              1.494
 Vibration    14          0.723              1.587              1.193
 Vibration    15          0.749              1.516              1.045
 Vibration    16          0.770              1.459              0.945
 Vibration    17          0.777              1.442              0.916
 Vibration    18          0.855              1.252              0.660
 Vibration    19          0.907              1.136              0.541
 Vibration    20          0.913              1.124              0.529

 Optimization completed.
    -- Stationary point found.
 Normal termination of Gaussian 16 at Sat May 27 23:41:15 2023.
