 Gaussian 16, Revision A.03,
 Gaussian 16:  ES64L-G16RevA.03 25-Dec-2016

 -----------------------------
 # opt freq b3lyp/6-31g(2df,p)
 -----------------------------

 -------------------
 Title Card Required
 -------------------
 Symbolic Z-matrix:
 Charge =  0 Multiplicity = 1

 SCF Done:  E(RB3LYP) =  -929.784634142     A.U. after   13 cycles
 SCF Done:  E(RB3LYP) =  -929.790120526     A.U. after   12 cycles
 SCF Done:  E(RB3LYP) =  -929.795656105     A.U. after   11 cycles
 SCF Done:  E(RB3LYP) =  -929.801983779     A.U. after   11 cycles
 SCF Done:  E(RB3LYP) =  -929.806958988     A.U. after   12 cycles
 SCF Done:  E(RB3LYP) =  -929.808257531     A.U. after   12 cycles
 SCF Done:  E(RB3LYP) =  -929.811026334     A.U. after   11 cycles
 SCF Done:  E(RB3LYP) =  -929.811918214     A.U. after   11 cycles
 SCF Done:  E(RB3LYP) =  -929.812644171     A.U. after   11 cycles
 SCF Done:  E(RB3LYP) =  -929.812968905     A.U. after   11 cycles
 SCF Done:  E(RB3LYP) =  -929.819801471     A.U. after   10 cycles
 SCF Done:  E(RB3LYP) =  -929.819830965     A.U. after   10 cycles
 SCF Done:  E(RB3LYP) =  -929.819855780     A.U. after    9 cycles
 SCF Done:  E(RB3LYP) =  -929.819865176     A.U. after    9 cycles
 SCF Done:  E(RB3LYP) =  -929.819869442     A.U. after    9 cycles
 SCF Done:  E(RB3LYP) =  -929.819869168     A.U. after    9 cycles
 SCF Done:  E(RB3LYP) =  -929.819871414     A.U. after    9 cycles
 SCF Done:  E(RB3LYP) =  -929.819871566     A.U. after    6 cycles
 SCF Done:  E(RB3LYP) =  -929.819871593     A.U. after    6 cycles
 Optimization completed.
    -- Stationary point found.

 The electronic state is 1-A.
 Alpha  occ. eigenvalues --  -19.18053 -19.17901 -19.13155 -19.12157 -10.22934
 Alpha  occ. eigenvalues --  -10.22580 -10.22061 -10.21666 -10.21413 -10.18720
 Alpha  occ. eigenvalues --  -10.18015 -10.17898 -10.17420 -10.17386 -10.17334
 Alpha  occ. eigenvalues --  -10.17206 -10.17141 -10.17026 -10.16947 -10.15773
 Alpha  occ. eigenvalues --   -1.10283  -1.02335  -1.01547  -0.90145  -0.81126
 Alpha  occ. eigenvalues --   -0.80521  -0.77411  -0.77060  -0.73916  -0.71373
 Alpha  occ. eigenvalues --   -0.70112  -0.68230  -0.64447  -0.62673  -0.61199
 Alpha  occ. eigenvalues --   -0.59294  -0.57410  -0.57202  -0.56697  -0.54605
 Alpha  occ. eigenvalues --   -0.51747  -0.49992  -0.48872  -0.47613  -0.47347
 Alpha  occ. eigenvalues --   -0.45980  -0.45272  -0.45056  -0.44531  -0.43727
 Alpha  occ. eigenvalues --   -0.42892  -0.41712  -0.41279  -0.40464  -0.40263
 Alpha  occ. eigenvalues --   -0.39160  -0.38807  -0.38614  -0.38076  -0.36996
 Alpha  occ. eigenvalues --   -0.36576  -0.36203  -0.35606  -0.35267  -0.35039
 Alpha  occ. eigenvalues --   -0.34098  -0.34037  -0.32613  -0.32147  -0.31980
 Alpha  occ. eigenvalues --   -0.31336  -0.30616  -0.30483  -0.30437  -0.29977
 Alpha  occ. eigenvalues --   -0.29150  -0.28596  -0.24729  -0.24484  -0.23576
 Alpha virt. eigenvalues --    0.04172   0.07882   0.08164   0.08673   0.09122
 Alpha virt. eigenvalues --    0.10004   0.10741   0.11585   0.11745   0.12319
 Alpha virt. eigenvalues --    0.12501   0.13092   0.13900   0.14237   0.14632

 Mulliken charges:
               1
     1  C   -0.398866
     2  C   -0.039545
     3  O   -0.243749
     4  C    0.135535
     5  C   -0.230580
     6  C   -0.215728
     7  C   -0.182657
     8  C   -0.192877
     9  C    0.136196
    10  C   -0.396506
    11  O   -0.260498
    12  C   -0.071640
    13  C   -0.233917
    14  C   -0.118458
    15  C   -0.251136
    16  C   -0.040733
    17  C    0.002235
    18  O   -0.188524
    19  O   -0.322359
    20  C   -0.234354
    21  H    0.102820
    22  H    0.119032
    23  H    0.153261
    24  H    0.085335
    25  H    0.077324
    26  H    0.066360
    27  H    0.089476
    28  H    0.104320
    29  H    0.088472
    30  H    0.096061
    31  H    0.125523
    32  H    0.083105
    33  H    0.089095
    34  H    0.100263
    35  H    0.064164
    36  H    0.122169
    37  H    0.113920
    38  H    0.110434
    39  H    0.086223
    40  H    0.086502
    41  H    0.093662
    42  H    0.103650
    43  H    0.112827
    44  H    0.102781
    45  H    0.091960
    46  H    0.091396
    47  H    0.085116
    48  H    0.075512
    49  H    0.110061
    50  H    0.308270
    51  H    0.089647
    52  H    0.119421
 Sum of Mulliken charges =  -0.00000

 Dipole moment (field-independent basis, Debye):
    X=             -1.8817    Y=              1.2432    Z=              0.2418  Tot=              2.2682
 Quadrupole moment (field-independent basis, Debye-Ang):
   XX=           -122.7379   YY=           -118.7596   ZZ=           -124.9265
   XY=              5.8508   XZ=             -5.5634   YZ=             -0.2049

 Normal termination of Gaussian 16 at Mon May 22 21:14:39 2023.

 ----------------------------------------------------------------------
 #N Geom=AllCheck Guess=TCheck SCRF=Check GenChk RB3LYP/6-31G(2df,p) Fr
 eq
 ----------------------------------------------------------------------

 Structure from the checkpoint file:  "CCOC1CCCCCqCrOCCCCCqCOOrC1.chk"
 -------------------
 Title Card Required
 -------------------
 Charge =  0 Multiplicity = 1

                         Standard orientation:
 ---------------------------------------------------------------------
 Center     Atomic      Atomic             Coordinates (Angstroms)
 Number     Number       Type             X           Y           Z
 ---------------------------------------------------------------------
      1          6           0        3.653150   -2.516967   -1.255074
      2          6           0        2.245067   -2.221596   -0.761223
      3          8           0        2.340647   -1.300737    0.306131
      4          6           0        1.110415   -0.792458    0.814942
      5          6           0        0.351961   -1.875815    1.638642
      6          6           0       -0.853402   -2.497010    0.898013
      7          6           0       -2.073495   -1.559598    0.898405
      8          6           0       -3.069601   -1.718066   -0.258055
      9          6           0       -3.971575   -0.481018   -0.405670
     10          6           0       -5.060397   -0.659709   -1.462931
     11          8           0       -3.131774    0.623551   -0.754245
     12          6           0       -3.329229    1.832280   -0.043789
     13          6           0       -2.061143    2.688856   -0.140168
     14          6           0       -0.813140    1.865749    0.208939
     15          6           0        0.429932    2.649092    0.635697
     16          6           0        1.718489    1.796293    0.825283
     17          6           0        2.459124    1.620569   -0.507845
     18          8           0        3.805495    1.298953   -0.190787
     19          8           0        4.463057    0.991308   -1.442725
     20          6           0        1.499385    0.470246    1.616796
     21          1           0        3.622223   -3.209675   -2.102124
     22          1           0        4.247092   -2.972976   -0.457371
     23          1           0        4.147611   -1.592601   -1.563894
     24          1           0        1.752319   -3.152732   -0.438398
     25          1           0        1.630154   -1.797395   -1.574314
     26          1           0        0.476743   -0.511764   -0.039030
     27          1           0        0.003292   -1.454754    2.589385
     28          1           0        1.082778   -2.648983    1.899314
     29          1           0       -1.113324   -3.460904    1.351899
     30          1           0       -0.563778   -2.718674   -0.136570
     31          1           0       -1.708124   -0.534939    0.846006
     32          1           0       -2.599444   -1.645688    1.858857
     33          1           0       -3.694163   -2.610966   -0.131320
     34          1           0       -2.524247   -1.844530   -1.202479
     35          1           0       -4.446026   -0.273879    0.566799
     36          1           0       -4.611091   -0.869631   -2.438775
     37          1           0       -5.665394    0.247367   -1.555361
     38          1           0       -5.726780   -1.488973   -1.203674
     39          1           0       -3.530203    1.611309    1.017363
     40          1           0       -4.200963    2.384008   -0.431604
     41          1           0       -2.179353    3.537504    0.546371
     42          1           0       -1.965621    3.111241   -1.147485
     43          1           0       -0.591327    1.218826   -0.643585
     44          1           0       -1.074631    1.197909    1.034530
     45          1           0        0.208559    3.149489    1.587582
     46          1           0        0.642129    3.453209   -0.080907
     47          1           0        2.388737    2.410923    1.440164
     48          1           0        2.432071    2.558312   -1.082393
     49          1           0        2.028465    0.827123   -1.126865
     50          1           0        5.124651    1.696319   -1.471105
     51          1           0        0.747859    0.659130    2.391021
     52          1           0        2.427126    0.216711    2.139209
 ---------------------------------------------------------------------

 SCF Done:  E(RB3LYP) =  -929.819871593     A.U. after    1 cycles
