 Gaussian 16, Revision A.03,
 Gaussian 16:  ES64L-G16RevA.03 25-Dec-2016

 -----------------------------
 # opt freq b3lyp/6-31g(2df,p)
 -----------------------------

 -------------------
 Title Card Required
 -------------------
 Symbolic Z-matrix:
 Charge =  0 Multiplicity = 1

 SCF Done:  E(RB3LYP) =  -613.019175694     A.U. after   14 cycles
 SCF Done:  E(RB3LYP) =  -613.024793648     A.U. after   12 cycles
 SCF Done:  E(RB3LYP) =  -613.023751907     A.U. after   13 cycles
 SCF Done:  E(RB3LYP) =  -613.025384966     A.U. after   12 cycles
 SCF Done:  E(RB3LYP) =  -613.025775873     A.U. after   12 cycles
 SCF Done:  E(RB3LYP) =  -613.026685355     A.U. after   13 cycles
 SCF Done:  E(RB3LYP) =  -613.026535267     A.U. after   13 cycles
 SCF Done:  E(RB3LYP) =  -613.027094606     A.U. after   12 cycles
 SCF Done:  E(RB3LYP) =  -613.027522650     A.U. after   13 cycles
 SCF Done:  E(RB3LYP) =  -613.027701422     A.U. after   11 cycles
 SCF Done:  E(RB3LYP) =  -613.031106176     A.U. after   14 cycles
 SCF Done:  E(RB3LYP) =  -613.030691951     A.U. after   13 cycles
 SCF Done:  E(RB3LYP) =  -613.031294882     A.U. after   13 cycles
 SCF Done:  E(RB3LYP) =  -613.031505316     A.U. after   13 cycles
 SCF Done:  E(RB3LYP) =  -613.031709595     A.U. after   11 cycles
 SCF Done:  E(RB3LYP) =  -613.031719007     A.U. after   11 cycles
 SCF Done:  E(RB3LYP) =  -613.031727663     A.U. after   10 cycles
 SCF Done:  E(RB3LYP) =  -613.031729218     A.U. after    8 cycles
 SCF Done:  E(RB3LYP) =  -613.031729784     A.U. after    7 cycles
 Optimization completed.
    -- Stationary point found.
 Normal termination of Gaussian 16 at Mon May 22 13:01:51 2023.

 ----------------------------------------------------------------------
 #N Geom=AllCheck Guess=TCheck SCRF=Check GenChk RB3LYP/6-31G(2df,p) Fr
 eq
 ----------------------------------------------------------------------

 Structure from the checkpoint file:  "CCOCqdOrCdCCqCrCqdOrO.chk"
 -------------------
 Title Card Required
 -------------------
 Charge =  0 Multiplicity = 1

                         Standard orientation:
 ---------------------------------------------------------------------
 Center     Atomic      Atomic             Coordinates (Angstroms)
 Number     Number       Type             X           Y           Z
 ---------------------------------------------------------------------
      1          6           0       -4.936858   -0.447042   -0.776382
      2          6           0       -3.899041   -0.042992    0.252327
      3          8           0       -2.608484   -0.075749   -0.391611
      4          6           0       -1.558769    0.259100    0.383294
      5          8           0       -1.647567    0.570086    1.547789
      6          6           0       -0.296822    0.190374   -0.395618
      7          6           0        0.875043    0.502291    0.166402
      8          6           0        2.208767    0.464741   -0.522913
      9          6           0        2.973684    1.787541   -0.380809
     10          6           0        3.078824   -0.714425   -0.024485
     11          8           0        4.270127   -0.657957    0.090004
     12          8           0        2.411596   -1.859105    0.233710
     13          1           0       -5.932043   -0.433467   -0.322472
     14          1           0       -4.743491   -1.455720   -1.152016
     15          1           0       -4.935841    0.242838   -1.624884
     16          1           0       -3.881673   -0.722890    1.109899
     17          1           0       -4.073109    0.965781    0.639629
     18          1           0       -0.379196   -0.101497   -1.438278
     19          1           0        0.867675    0.802502    1.213734
     20          1           0        2.042186    0.255951   -1.589503
     21          1           0        3.115610    2.042399    0.673530
     22          1           0        2.424968    2.600898   -0.862231
     23          1           0        3.960638    1.695423   -0.836537
     24          1           0        1.459940   -1.707946    0.139101
 ---------------------------------------------------------------------

 SCF Done:  E(RB3LYP) =  -613.031729784     A.U. after    1 cycles

 The electronic state is 1-A.
 Alpha  occ. eigenvalues --  -19.19093 -19.18910 -19.13179 -19.12872 -10.31500
 Alpha  occ. eigenvalues --  -10.31493 -10.24842 -10.22669 -10.22604 -10.21631
 Alpha  occ. eigenvalues --  -10.19241 -10.19059  -1.10875  -1.10384  -1.02255
 Alpha  occ. eigenvalues --   -1.02067  -0.84359  -0.79236  -0.76467  -0.68298
 Alpha  occ. eigenvalues --   -0.65672  -0.61625  -0.59943  -0.56692  -0.54295
 Alpha  occ. eigenvalues --   -0.50467  -0.49950  -0.49092  -0.46676  -0.45548
 Alpha  occ. eigenvalues --   -0.43183  -0.43081  -0.42735  -0.41428  -0.40285
 Alpha  occ. eigenvalues --   -0.40135  -0.38129  -0.37144  -0.36571  -0.36370
 Alpha  occ. eigenvalues --   -0.35778  -0.32004  -0.30923  -0.30500  -0.28232
 Alpha  occ. eigenvalues --   -0.26672
 Alpha virt. eigenvalues --   -0.05970   0.00837   0.06756   0.08100   0.09256
 Alpha virt. eigenvalues --    0.09953   0.11121   0.12148   0.14236   0.14262
 Alpha virt. eigenvalues --    0.14833   0.15282   0.15675   0.16253   0.17442

 Mulliken charges:
               1
     1  C   -0.392703
     2  C   -0.045671
     3  O   -0.251894
     4  C    0.461500
     5  O   -0.373223
     6  C   -0.241957
     7  C   -0.040580
     8  C   -0.197290
     9  C   -0.388646
    10  C    0.431913
    11  O   -0.311365
    12  O   -0.368637
    13  H    0.126907
    14  H    0.131167
    15  H    0.131449
    16  H    0.126085
    17  H    0.126400
    18  H    0.116831
    19  H    0.139148
    20  H    0.116576
    21  H    0.133612
    22  H    0.120850
    23  H    0.149396
    24  H    0.300132
 Sum of Mulliken charges =  -0.00000

 Dipole moment (field-independent basis, Debye):
    X=             -4.0226    Y=              0.8975    Z=             -2.2464  Tot=              4.6939
 Quadrupole moment (field-independent basis, Debye-Ang):
   XX=            -79.0828   YY=            -71.1040   ZZ=            -72.0986
   XY=              8.7036   XZ=             -0.5411   YZ=             -0.6877

  Exact polarizability: 152.278   6.963  80.452   2.475   2.063  80.687
 Approx polarizability: 192.074   9.276 117.653   7.486   6.740 132.553

                      1                      2                      3
                      A                      A                      A
 Frequencies --     25.7185                47.4617                59.2814
 Red. masses --      4.0522                 7.4643                 2.9581
 Frc consts  --      0.0016                 0.0099                 0.0061
 IR Inten    --      0.4014                 4.7517                 0.1696

                      4                      5                      6
                      A                      A                      A
 Frequencies --     74.6554                87.7578               104.0657
 Red. masses --      5.4681                 3.8775                 2.9679
 Frc consts  --      0.0180                 0.0176                 0.0189
 IR Inten    --      1.2871                 0.7046                 3.7724

                      7                      8                      9
                      A                      A                      A
 Frequencies --    191.6950               201.3053               203.7624
 Red. masses --      1.6607                 1.7851                 1.6849
 Frc consts  --      0.0360                 0.0426                 0.0412
 IR Inten    --      1.9984                 0.9799                 2.4061

                     10                     11                     12
                      A                      A                      A
 Frequencies --    239.1530               268.5524               310.2840
 Red. masses --      3.4510                 1.4765                 4.7913
 Frc consts  --      0.1163                 0.0627                 0.2718
 IR Inten    --      3.7159                 1.1776                12.1731

                     13                     14                     15
                      A                      A                      A
 Frequencies --    328.6880               359.8444               383.2908
 Red. masses --      4.6143                 3.5495                 3.3398
 Frc consts  --      0.2937                 0.2708                 0.2891
 IR Inten    --     10.9358                 6.5023                 4.0396

                     16                     17                     18
                      A                      A                      A
 Frequencies --    497.0435               504.8014               569.5258
 Red. masses --      3.7692                 3.5200                 1.9876
 Frc consts  --      0.5486                 0.5285                 0.3798
 IR Inten    --      2.3212                 3.9283                35.6597

                     19                     20                     21
                      A                      A                      A
 Frequencies --    605.0426               719.5863               740.1757
 Red. masses --      1.7217                 4.3441                 5.9342
 Frc consts  --      0.3713                 1.3253                 1.9155
 IR Inten    --     38.3127                 6.2593                 6.0954

                     22                     23                     24
                      A                      A                      A
 Frequencies --    753.8118               806.6717               830.7952
 Red. masses --      5.0903                 1.1068                 3.5206
 Frc consts  --      1.7042                 0.4243                 1.4317
 IR Inten    --      6.2491                 0.5639                16.3599

                     25                     26                     27
                      A                      A                      A
 Frequencies --    882.6886               910.2317               934.8960
 Red. masses --      2.4250                 2.1902                 1.6251
 Frc consts  --      1.1132                 1.0692                 0.8369
 IR Inten    --      1.6287                 4.3025                24.5647

                     28                     29                     30
                      A                      A                      A
 Frequencies --    982.3243              1034.9605              1057.8758
 Red. masses --      4.5183                 1.2546                 3.0656
 Frc consts  --      2.5688                 0.7918                 2.0213
 IR Inten    --      2.7504                 7.2105                49.0878

                     31                     32                     33
                      A                      A                      A
 Frequencies --   1071.4402              1098.8479              1136.0479
 Red. masses --      1.7487                 2.4184                 2.2088
 Frc consts  --      1.1828                 1.7205                 1.6796
 IR Inten    --     32.8862                 1.8258                 7.9017

                     34                     35                     36
                      A                      A                      A
 Frequencies --   1157.7982              1182.2398              1191.3749
 Red. masses --      1.8672                 1.5666                 2.6983
 Frc consts  --      1.4747                 1.2901                 2.2565
 IR Inten    --     85.4009                 3.5434                42.6945

                     37                     38                     39
                      A                      A                      A
 Frequencies --   1204.7200              1267.8528              1291.6491
 Red. masses --      2.1708                 1.8059                 1.0974
 Frc consts  --      1.8562                 1.7104                 1.0787
 IR Inten    --    228.9547               252.5769                 1.5688

                     40                     41                     42
                      A                      A                      A
 Frequencies --   1301.9251              1321.0769              1339.3413
 Red. masses --      1.3422                 1.3893                 1.8111
 Frc consts  --      1.3404                 1.4286                 1.9142
 IR Inten    --     67.5770                42.2112               223.1741

                     43                     44                     45
                      A                      A                      A
 Frequencies --   1358.6911              1399.9616              1408.9577
 Red. masses --      1.5747                 1.3538                 1.2118
 Frc consts  --      1.7127                 1.5632                 1.4173
 IR Inten    --    188.9312                20.5942                 8.1322

                     46                     47                     48
                      A                      A                      A
 Frequencies --   1423.7800              1486.1408              1490.0287
 Red. masses --      1.4511                 1.0397                 1.0430
 Frc consts  --      1.7332                 1.3529                 1.3644
 IR Inten    --      4.0318                 4.8199                 8.6104

                     49                     50                     51
                      A                      A                      A
 Frequencies --   1494.9895              1495.9458              1518.8171
 Red. masses --      1.0510                 1.0476                 1.0862
 Frc consts  --      1.3840                 1.3813                 1.4763
 IR Inten    --      2.4600                 1.9206                 5.3798

                     52                     53                     54
                      A                      A                      A
 Frequencies --   1701.3432              1797.7576              1871.8088
 Red. masses --      6.6576                11.3860                10.3336
 Frc consts  --     11.3540                21.6812                21.3317
 IR Inten    --    107.1161               168.3971               314.8757

                     55                     56                     57
                      A                      A                      A
 Frequencies --   3012.3576              3046.9885              3052.2182
 Red. masses --      1.0815                 1.0351                 1.0512
 Frc consts  --      5.7820                 5.6623                 5.7696
 IR Inten    --      8.7013                15.9374                12.0795

                     58                     59                     60
                      A                      A                      A
 Frequencies --   3052.3052              3090.1963              3121.9667
 Red. masses --      1.0416                 1.1064                 1.1011
 Frc consts  --      5.7174                 6.2252                 6.3231
 IR Inten    --     18.5566                 6.8000                20.2361

                     61                     62                     63
                      A                      A                      A
 Frequencies --   3122.3987              3126.7980              3146.8730
 Red. masses --      1.1022                 1.1040                 1.1012
 Frc consts  --      6.3314                 6.3596                 6.4251
 IR Inten    --     16.9039                30.3877                 5.6412

                     64                     65                     66
                      A                      A                      A
 Frequencies --   3150.4624              3179.1134              3733.8348
 Red. masses --      1.0888                 1.0901                 1.0653
 Frc consts  --      6.3674                 6.4913                 8.7507
 IR Inten    --      0.7682                 4.8504                96.0959

 - Thermochemistry -
 -------------------
 Temperature   298.150 Kelvin.  Pressure   1.00000 Atm.
 Atom     1 has atomic number  6 and mass  12.00000

 Molecular mass:   172.07356 amu.
 Principal axes and moments of inertia in atomic units:
                           1         2         3
     Eigenvalues --   766.332565554.322905803.07728
           X            0.99982   0.01854   0.00264
           Y           -0.01852   0.99979  -0.00851
           Z           -0.00280   0.00846   0.99996
 This molecule is an asymmetric top.
 Rotational symmetry number  1.
 Warning -- assumption of classical behavior for rotation
           may cause significant error
 Rotational temperatures (Kelvin)      0.11302     0.01559     0.01493
 Rotational constants (GHZ):           2.35504     0.32493     0.31100
 Zero-point vibrational energy     511786.3 (Joules/Mol)
                                  122.31987 (Kcal/Mol)
 Warning -- explicit consideration of  19 degrees of freedom as
           vibrations may cause significant error
 Vibrational temperatures:     37.00    68.29    85.29   107.41   126.26
          (Kelvin)            149.73   275.81   289.63   293.17   344.09
                              386.39   446.43   472.91   517.74   551.47
                              715.13   726.30   819.42   870.52  1035.32
                             1064.95  1084.57  1160.62  1195.33  1269.99
                             1309.62  1345.11  1413.35  1489.08  1522.05
                             1541.56  1581.00  1634.52  1665.81  1700.98
                             1714.12  1733.32  1824.16  1858.39  1873.18
                             1900.73  1927.01  1954.85  2014.23  2027.18
                             2048.50  2138.23  2143.82  2150.96  2152.33
                             2185.24  2447.85  2586.57  2693.12  4334.11
                             4383.94  4391.46  4391.59  4446.10  4491.81
                             4492.44  4498.76  4527.65  4532.81  4574.04
                             5372.16

 Zero-point correction=                           0.194929 (Hartree/Particle)
 Thermal correction to Energy=                    0.208436
 Thermal correction to Enthalpy=                  0.209380
 Thermal correction to Gibbs Free Energy=         0.152874
 Sum of electronic and zero-point Energies=           -612.836801
 Sum of electronic and thermal Energies=              -612.823294
 Sum of electronic and thermal Enthalpies=            -612.822350
 Sum of electronic and thermal Free Energies=         -612.878856

                     E (Thermal)             CV                S
                      KCal/Mol        Cal/Mol-Kelvin    Cal/Mol-Kelvin
 Total                  130.795             47.109            118.927
 Electronic               0.000              0.000              0.000
 Translational            0.889              2.981             41.336
 Rotational               0.889              2.981             31.580
 Vibrational            129.018             41.148             46.011
 Vibration     1          0.593              1.985              6.135
 Vibration     2          0.595              1.979              4.920
 Vibration     3          0.597              1.974              4.481
 Vibration     4          0.599              1.966              4.027
 Vibration     5          0.601              1.958              3.709
 Vibration     6          0.605              1.946              3.377
 Vibration     7          0.634              1.851              2.211
 Vibration     8          0.638              1.838              2.121
 Vibration     9          0.639              1.835              2.099
 Vibration    10          0.657              1.781              1.809
 Vibration    11          0.673              1.731              1.606
 Vibration    12          0.699              1.654              1.361
 Vibration    13          0.712              1.618              1.267
 Vibration    14          0.734              1.555              1.123
 Vibration    15          0.752              1.506              1.026
 Vibration    16          0.853              1.257              0.666
 Vibration    17          0.860              1.239              0.646
 Vibration    18          0.926              1.097              0.505
 Vibration    19          0.964              1.021              0.441

                           ! Non-Optimized Parameters !
 Normal termination of Gaussian 16 at Mon May 22 13:47:19 2023.
