 Gaussian 16, Revision A.03,
 Gaussian 16:  ES64L-G16RevA.03 25-Dec-2016

 -----------------------------
 # opt freq b3lyp/6-31g(2df,p)
 -----------------------------

 -------------------
 Title Card Required
 -------------------
 Symbolic Z-matrix:
 Charge =  0 Multiplicity = 1

 SCF Done:  E(RB3LYP) =  -792.776079052     A.U. after   13 cycles
 SCF Done:  E(RB3LYP) =  -792.782156589     A.U. after   12 cycles
 SCF Done:  E(RB3LYP) =  -792.783729333     A.U. after   11 cycles
 SCF Done:  E(RB3LYP) =  -792.784233972     A.U. after   11 cycles
 SCF Done:  E(RB3LYP) =  -792.784372637     A.U. after   10 cycles
 SCF Done:  E(RB3LYP) =  -792.784482083     A.U. after   11 cycles
 SCF Done:  E(RB3LYP) =  -792.784430848     A.U. after   10 cycles
 SCF Done:  E(RB3LYP) =  -792.784766101     A.U. after   11 cycles
 SCF Done:  E(RB3LYP) =  -792.784511815     A.U. after   12 cycles
 SCF Done:  E(RB3LYP) =  -792.785070792     A.U. after   12 cycles
 SCF Done:  E(RB3LYP) =  -792.795619003     A.U. after   10 cycles
 SCF Done:  E(RB3LYP) =  -792.795767937     A.U. after   10 cycles
 SCF Done:  E(RB3LYP) =  -792.795787811     A.U. after    9 cycles
 SCF Done:  E(RB3LYP) =  -792.795802271     A.U. after    9 cycles
 SCF Done:  E(RB3LYP) =  -792.795804465     A.U. after    8 cycles
 SCF Done:  E(RB3LYP) =  -792.795805450     A.U. after    8 cycles
 SCF Done:  E(RB3LYP) =  -792.795805580     A.U. after    7 cycles
 SCF Done:  E(RB3LYP) =  -792.795805592     A.U. after    6 cycles
 SCF Done:  E(RB3LYP) =  -792.795805603     A.U. after    7 cycles
 Optimization completed.
    -- Stationary point found.
 Normal termination of Gaussian 16 at Tue May 30 01:48:22 2023.

 ----------------------------------------------------------------------
 #N Geom=AllCheck Guess=TCheck SCRF=Check GenChk RB3LYP/6-31G(2df,p) Fr
 eq
 ----------------------------------------------------------------------

 Structure from the checkpoint file:  "CCOCCCdCNCCCdCC1CdCCdCCdC1.chk"
 -------------------
 Title Card Required
 -------------------
 Charge =  0 Multiplicity = 1

                         Standard orientation:
 ---------------------------------------------------------------------
 Center     Atomic      Atomic             Coordinates (Angstroms)
 Number     Number       Type             X           Y           Z
 ---------------------------------------------------------------------
      1          6           0       -9.132721    1.637187   -0.544260
      2          6           0       -7.914355    1.339784    0.314214
      3          8           0       -7.052688    0.485236   -0.405067
      4          6           0       -5.882249    0.142237    0.304836
      5          6           0       -5.027790   -0.777787   -0.568133
      6          6           0       -3.797698   -1.265556    0.141557
      7          6           0       -2.548114   -0.992541   -0.251415
      8          7           0       -1.373433   -1.493008    0.295309
      9          6           0       -0.171355   -0.672421    0.276177
     10          6           0        1.075480   -1.515531    0.581556
     11          6           0        2.331313   -0.691933    0.622752
     12          6           0        3.365218   -0.846079   -0.201169
     13          6           0        4.633988   -0.032683   -0.239993
     14          6           0        5.860372   -0.872725   -0.519155
     15          6           0        7.018838   -0.316353   -0.926906
     16          6           0        7.297508    1.097659   -0.951281
     17          6           0        6.783619    2.022742   -0.091040
     18          6           0        5.877487    1.741234    0.993955
     19          6           0        4.954948    0.757883    1.003228
     20          1           0       -9.823070    2.299670   -0.013347
     21          1           0       -9.660590    0.712268   -0.793698
     22          1           0       -8.834126    2.122100   -1.478098
     23          1           0       -8.217804    0.865285    1.263832
     24          1           0       -7.391494    2.275177    0.579559
     25          1           0       -6.141624   -0.364147    1.251737
     26          1           0       -5.309892    1.046572    0.572989
     27          1           0       -4.752425   -0.238335   -1.481508
     28          1           0       -5.662875   -1.617618   -0.882534
     29          1           0       -3.952123   -1.887332    1.023743
     30          1           0       -2.379090   -0.364545   -1.125192
     31          1           0       -1.510295   -1.979497    1.172422
     32          1           0       -0.225317    0.174514    0.982679
     33          1           0       -0.077940   -0.236182   -0.724887
     34          1           0        1.159861   -2.312453   -0.164604
     35          1           0        0.928101   -2.007661    1.555258
     36          1           0        2.355115    0.093542    1.376824
     37          1           0        3.310746   -1.626092   -0.961575
     38          1           0        4.551046    0.685699   -1.072843
     39          1           0        5.781806   -1.950382   -0.398479
     40          1           0        7.830823   -0.972752   -1.232952
     41          1           0        8.088572    1.425727   -1.621874
     42          1           0        7.199416    3.027057   -0.131707
     43          1           0        5.990139    2.354885    1.885520
     44          1           0        4.431629    0.512967    1.922569
 ---------------------------------------------------------------------

 SCF Done:  E(RB3LYP) =  -792.795805603     A.U. after    1 cycles

 The electronic state is 1-A.
 Alpha  occ. eigenvalues --  -19.12676 -14.33102 -10.21998 -10.21540 -10.21458
 Alpha  occ. eigenvalues --  -10.20133 -10.19683 -10.18957 -10.18926 -10.18915
 Alpha  occ. eigenvalues --  -10.18815 -10.18745 -10.18431 -10.18323 -10.18185
 Alpha  occ. eigenvalues --  -10.18183 -10.17218 -10.16932 -10.15747  -1.02166
 Alpha  occ. eigenvalues --   -0.92052  -0.84733  -0.80590  -0.78538  -0.76952
 Alpha  occ. eigenvalues --   -0.76373  -0.74552  -0.71965  -0.68585  -0.65516
 Alpha  occ. eigenvalues --   -0.62907  -0.61613  -0.60805  -0.59333  -0.56634
 Alpha  occ. eigenvalues --   -0.55815  -0.53449  -0.50660  -0.50021  -0.49060
 Alpha  occ. eigenvalues --   -0.48492  -0.47225  -0.46723  -0.45443  -0.44631
 Alpha  occ. eigenvalues --   -0.44571  -0.43358  -0.42593  -0.42110  -0.41215
 Alpha  occ. eigenvalues --   -0.39243  -0.38747  -0.37687  -0.37381  -0.37068
 Alpha  occ. eigenvalues --   -0.36470  -0.36145  -0.35410  -0.34715  -0.34511
 Alpha  occ. eigenvalues --   -0.34057  -0.33243  -0.32853  -0.31581  -0.30777
 Alpha  occ. eigenvalues --   -0.29839  -0.25084  -0.24892  -0.24425  -0.21991
 Alpha  occ. eigenvalues --   -0.18856
 Alpha virt. eigenvalues --   -0.03126   0.01753   0.02076   0.04739   0.08864
 Alpha virt. eigenvalues --    0.09366   0.09659   0.09829   0.10634   0.10960
 Alpha virt. eigenvalues --    0.12383   0.12663   0.13385   0.13480   0.14142

 Mulliken charges:
               1
     1  C   -0.383437
     2  C   -0.025397
     3  O   -0.242697
     4  C   -0.033130
     5  C   -0.242400
     6  C   -0.164630
     7  C    0.061296
     8  N   -0.300848
     9  C   -0.127992
    10  C   -0.263078
    11  C   -0.075151
    12  C   -0.063665
    13  C   -0.120898
    14  C   -0.085448
    15  C   -0.069271
    16  C   -0.106292
    17  C   -0.106517
    18  C   -0.073948
    19  C   -0.083850
    20  H    0.111153
    21  H    0.124925
    22  H    0.124828
    23  H    0.080736
    24  H    0.081177
    25  H    0.076474
    26  H    0.081584
    27  H    0.098087
    28  H    0.103753
    29  H    0.058643
    30  H    0.090895
    31  H    0.226337
    32  H    0.091054
    33  H    0.117006
    34  H    0.109262
    35  H    0.098104
    36  H    0.083583
    37  H    0.085103
    38  H    0.107947
    39  H    0.092542
    40  H    0.093812
    41  H    0.091208
    42  H    0.090496
    43  H    0.093303
    44  H    0.095339
 Sum of Mulliken charges =  -0.00000

 Dipole moment (field-independent basis, Debye):
    X=              1.5010    Y=              0.4145    Z=              1.5028  Tot=              2.1641
 Quadrupole moment (field-independent basis, Debye-Ang):
   XX=           -118.4567   YY=           -113.4353   ZZ=           -113.8007
   XY=             -2.7006   XZ=             -8.9474   YZ=             -1.0336

  Exact polarizability: 292.826  14.771 173.955 -25.289   6.180 153.674
 Approx polarizability: 341.226  26.830 276.621 -50.953  13.855 254.555

                      1                      2                      3
                      A                      A                      A
 Frequencies --     13.2212                15.3407                31.7016
 Red. masses --      4.1719                 4.2587                 2.2648
 Frc consts  --      0.0004                 0.0006                 0.0013
 IR Inten    --      0.0162                 0.0447                 1.0044

                      4                      5                      6
                      A                      A                      A
 Frequencies --     39.8241                46.5490                59.6277
 Red. masses --      3.3067                 3.6371                 2.4210
 Frc consts  --      0.0031                 0.0046                 0.0051
 IR Inten    --      0.0509                 0.3102                 0.1661

                      7                      8                      9
                      A                      A                      A
 Frequencies --     80.9037                94.4720               116.5154
 Red. masses --      3.2889                 2.9137                 3.0269
 Frc consts  --      0.0127                 0.0153                 0.0242
 IR Inten    --      1.0746                 0.6006                 1.4248

                     10                     11                     12
                      A                      A                      A
 Frequencies --    122.8044               126.8698               140.7118
 Red. masses --      2.1050                 4.1891                 2.6368
 Frc consts  --      0.0187                 0.0397                 0.0308
 IR Inten    --      0.5383                 0.3781                 1.9997

                     13                     14                     15
                      A                      A                      A
 Frequencies --    172.3417               179.9366               214.9484
 Red. masses --      2.9553                 2.8693                 2.5763
 Frc consts  --      0.0517                 0.0547                 0.0701
 IR Inten    --      2.3979                 3.4510                 5.3008

                     16                     17                     18
                      A                      A                      A
 Frequencies --    226.9286               247.8256               271.9711
 Red. masses --      2.9100                 1.1765                 2.9124
 Frc consts  --      0.0883                 0.0426                 0.1269
 IR Inten    --      0.6782                 0.5685                 0.8636

                     19                     20                     21
                      A                      A                      A
 Frequencies --    302.4981               310.4899               354.5919
 Red. masses --      3.6471                 3.3466                 3.3391
 Frc consts  --      0.1966                 0.1901                 0.2474
 IR Inten    --      1.5983                 1.6995                 1.9359

                     22                     23                     24
                      A                      A                      A
 Frequencies --    374.2803               388.5944               416.8415
 Red. masses --      3.0533                 3.1499                 2.8755
 Frc consts  --      0.2520                 0.2802                 0.2944
 IR Inten    --      2.2610                 6.8051                 5.1709

                     25                     26                     27
                      A                      A                      A
 Frequencies --    434.0756               450.9861               480.0265
 Red. masses --      5.1491                 2.9404                 3.0790
 Frc consts  --      0.5716                 0.3524                 0.4180
 IR Inten    --      1.6425                 5.5145                10.4861

                     28                     29                     30
                      A                      A                      A
 Frequencies --    506.6478               566.4317               591.2095
 Red. masses --      3.5774                 3.1249                 2.5030
 Frc consts  --      0.5410                 0.5907                 0.5155
 IR Inten    --      1.7138                 6.6722                 5.9988

                     31                     32                     33
                      A                      A                      A
 Frequencies --    618.4432               669.6361               716.0252
 Red. masses --      2.7276                 1.5026                 2.3012
 Frc consts  --      0.6147                 0.3970                 0.6951
 IR Inten    --      2.9569                96.0554                13.8965

                     34                     35                     36
                      A                      A                      A
 Frequencies --    729.6979               775.1523               781.3308
 Red. masses --      1.5468                 1.4631                 1.3059
 Frc consts  --      0.4853                 0.5180                 0.4697
 IR Inten    --     59.7528                18.7505                 0.8884

                     37                     38                     39
                      A                      A                      A
 Frequencies --    799.2272               820.8348               825.1770
 Red. masses --      1.1977                 1.1901                 1.5480
 Frc consts  --      0.4508                 0.4725                 0.6210
 IR Inten    --      0.6994                 4.3137                12.9934

                     40                     41                     42
                      A                      A                      A
 Frequencies --    830.9363               842.3569               889.1322
 Red. masses --      1.7397                 1.5907                 3.8513
 Frc consts  --      0.7077                 0.6650                 1.7939
 IR Inten    --      0.3449                 0.5584                 0.0784

                     43                     44                     45
                      A                      A                      A
 Frequencies --    897.1340               938.1337               962.1174
 Red. masses --      2.0729                 3.0505                 1.4308
 Frc consts  --      0.9830                 1.5818                 0.7803
 IR Inten    --      7.2376                 2.2798                 0.2532

                     46                     47                     48
                      A                      A                      A
 Frequencies --    977.3773               983.8301               991.6100
 Red. masses --      1.7798                 1.3938                 1.3904
 Frc consts  --      1.0017                 0.7949                 0.8055
 IR Inten    --      4.6491                12.3109                20.4742

                     49                     50                     51
                      A                      A                      A
 Frequencies --   1000.6108              1001.7570              1011.2293
 Red. masses --      1.2691                 1.9364                 1.8913
 Frc consts  --      0.7486                 1.1449                 1.1395
 IR Inten    --      0.0745                 4.9411                 8.9624

                     52                     53                     54
                      A                      A                      A
 Frequencies --   1018.7923              1028.1978              1042.2282
 Red. masses --      2.5831                 1.2241                 3.4527
 Frc consts  --      1.5797                 0.7624                 2.2097
 IR Inten    --      1.6302                28.9945                13.1079

                     55                     56                     57
                      A                      A                      A
 Frequencies --   1047.7023              1058.5895              1071.3086
 Red. masses --      3.0063                 2.9713                 2.1752
 Frc consts  --      1.9443                 1.9618                 1.4709
 IR Inten    --      1.8577                 2.5113                 6.9752

                     58                     59                     60
                      A                      A                      A
 Frequencies --   1085.9696              1112.8390              1134.3642
 Red. masses --      2.4050                 2.5972                 1.9807
 Frc consts  --      1.6711                 1.8951                 1.5017
 IR Inten    --     14.4376                 3.0927                17.1946

                     61                     62                     63
                      A                      A                      A
 Frequencies --   1143.1730              1154.2250              1169.5307
 Red. masses --      3.4316                 2.3138                 3.3644
 Frc consts  --      2.6423                 1.8162                 2.7114
 IR Inten    --    122.3219                75.0869               194.2632

                     64                     65                     66
                      A                      A                      A
 Frequencies --   1185.8290              1194.5374              1206.9332
 Red. masses --      1.4120                 1.5459                 1.1273
 Frc consts  --      1.1698                 1.2997                 0.9675
 IR Inten    --      9.6474                50.8100                 1.5854

                     67                     68                     69
                      A                      A                      A
 Frequencies --   1228.1014              1228.1967              1237.9200
 Red. masses --      1.4132                 1.2989                 1.1103
 Frc consts  --      1.2558                 1.1544                 1.0025
 IR Inten    --     36.0839                 9.1647                 2.3930

                     70                     71                     72
                      A                      A                      A
 Frequencies --   1260.5699              1269.6192              1279.7261
 Red. masses --      1.6861                 1.2826                 1.1633
 Frc consts  --      1.5786                 1.2181                 1.1225
 IR Inten    --     64.8962                83.1644                 1.8603

                     73                     74                     75
                      A                      A                      A
 Frequencies --   1295.4219              1299.7329              1303.5659
 Red. masses --      1.1025                 1.5644                 1.4060
 Frc consts  --      1.0900                 1.5570                 1.4076
 IR Inten    --      1.7002                15.1047                19.2741

                     76                     77                     78
                      A                      A                      A
 Frequencies --   1304.0665              1316.1711              1328.9827
 Red. masses --      1.1300                 1.1708                 1.3354
 Frc consts  --      1.1322                 1.1949                 1.3897
 IR Inten    --      2.8994                 0.7541                 1.0287

                     79                     80                     81
                      A                      A                      A
 Frequencies --   1341.4594              1345.0173              1357.9600
 Red. masses --      1.2859                 1.2519                 1.2503
 Frc consts  --      1.3634                 1.3344                 1.3585
 IR Inten    --      6.1484                 0.0629                 4.5293

                     82                     83                     84
                      A                      A                      A
 Frequencies --   1380.0893              1387.1954              1404.3937
 Red. masses --      1.3523                 1.2662                 1.3454
 Frc consts  --      1.5175                 1.4356                 1.5634
 IR Inten    --      0.2206                49.1577                35.4696

                     85                     86                     87
                      A                      A                      A
 Frequencies --   1406.7580              1427.7060              1448.4664
 Red. masses --      1.3513                 1.5595                 1.4846
 Frc consts  --      1.5756                 1.8728                 1.8352
 IR Inten    --      3.3009                 4.3771                 8.7959

                     88                     89                     90
                      A                      A                      A
 Frequencies --   1473.5752              1481.1459              1482.6562
 Red. masses --      1.7674                 1.1120                 1.0933
 Frc consts  --      2.2612                 1.4373                 1.4160
 IR Inten    --      0.5187                 5.4954                 6.1520

                     91                     92                     93
                      A                      A                      A
 Frequencies --   1483.3644              1496.0645              1499.7813
 Red. masses --      1.0408                 1.3851                 1.0493
 Frc consts  --      1.3493                 1.8266                 1.3905
 IR Inten    --      3.5455                38.1854                 2.6132

                     94                     95                     96
                      A                      A                      A
 Frequencies --   1513.6597              1515.6659              1538.0290
 Red. masses --      1.0887                 1.0845                 1.0953
 Frc consts  --      1.4697                 1.4679                 1.5265
 IR Inten    --     21.1756                 4.4520                 1.4582

                     97                     98                     99
                      A                      A                      A
 Frequencies --   1567.2612              1656.8986              1665.7491
 Red. masses --      7.7171                 7.2497                 4.9143
 Frc consts  --     11.1683                11.7263                 8.0339
 IR Inten    --      2.0979                 0.9903                 0.8645

                    100                    101                    102
                      A                      A                      A
 Frequencies --   1741.1149              1741.7059              2937.8247
 Red. masses --      6.0828                 5.6378                 1.0551
 Frc consts  --     10.8645                10.0765                 5.3655
 IR Inten    --     85.7297               121.5052                14.5149

                    103                    104                    105
                      A                      A                      A
 Frequencies --   2943.8678              2951.0380              2951.3194
 Red. masses --      1.0724                 1.0801                 1.0571
 Frc consts  --      5.4757                 5.5417                 5.4252
 IR Inten    --     68.6720                11.5669                95.0486

                    106                    107                    108
                      A                      A                      A
 Frequencies --   2967.9478              2972.8208              2990.6721
 Red. masses --      1.1046                 1.1009                 1.0685
 Frc consts  --      5.7328                 5.7324                 5.6304
 IR Inten    --     73.9944                29.6381                34.3072

                    109                    110                    111
                      A                      A                      A
 Frequencies --   3010.7561              3043.1690              3057.0505
 Red. masses --      1.0644                 1.0347                 1.0853
 Frc consts  --      5.6848                 5.6454                 5.9761
 IR Inten    --     51.6567                21.4122                14.7705

                    112                    113                    114
                      A                      A                      A
 Frequencies --   3065.9220              3077.1516              3117.1330
 Red. masses --      1.0969                 1.0943                 1.1013
 Frc consts  --      6.0751                 6.1049                 6.3048
 IR Inten    --     24.3056                22.0252                27.0158

                    115                    116                    117
                      A                      A                      A
 Frequencies --   3118.2244              3118.8707              3119.5718
 Red. masses --      1.0881                 1.0884                 1.1026
 Frc consts  --      6.2335                 6.2381                 6.3218
 IR Inten    --     27.0743                12.5275                28.1597

                    118                    119                    120
                      A                      A                      A
 Frequencies --   3133.9546              3136.8280              3140.0559
 Red. masses --      1.0817                 1.0864                 1.0841
 Frc consts  --      6.2597                 6.2983                 6.2982
 IR Inten    --      2.7532                24.6625                 1.4747

                    121                    122                    123
                      A                      A                      A
 Frequencies --   3141.8322              3147.0480              3160.5647
 Red. masses --      1.0876                 1.0855                 1.0925
 Frc consts  --      6.3255                 6.3344                 6.4301
 IR Inten    --     18.2427                 8.4896                44.4412

                    124                    125                    126
                      A                      A                      A
 Frequencies --   3167.4655              3178.0190              3560.3079
 Red. masses --      1.0955                 1.0931                 1.0740
 Frc consts  --      6.4754                 6.5048                 8.0208
 IR Inten    --     27.8870                12.7917                 3.6078

 - Thermochemistry -
 -------------------
 Temperature   298.150 Kelvin.  Pressure   1.00000 Atm.
 Atom     1 has atomic number  6 and mass  12.00000

 Molecular mass:   259.19361 amu.
 Principal axes and moments of inertia in atomic units:
                           1         2         3
     Eigenvalues --  1646.32422********************
           X            0.99999  -0.00400  -0.00074
           Y            0.00400   0.99999   0.00018
           Z            0.00074  -0.00018   1.00000
 This molecule is an asymmetric top.
 Rotational symmetry number  1.
 Warning -- assumption of classical behavior for rotation
           may cause significant error
 Rotational temperatures (Kelvin)      0.05261     0.00308     0.00299
 Rotational constants (GHZ):           1.09622     0.06419     0.06223
 Zero-point vibrational energy    1010918.3 (Joules/Mol)
                                  241.61527 (Kcal/Mol)
 Warning -- explicit consideration of  31 degrees of freedom as
           vibrations may cause significant error
 Vibrational temperatures:     19.02    22.07    45.61    57.30    66.97
          (Kelvin)             85.79   116.40   135.92   167.64   176.69
                              182.54   202.45   247.96   258.89   309.26
                              326.50   356.57   391.31   435.23   446.73
                              510.18   538.51   559.10   599.74   624.54
                              648.87   690.65   728.95   814.97   850.62
                              889.80   963.46  1030.20  1049.87  1115.27
                             1124.16  1149.91  1181.00  1187.25  1195.53
                             1211.96  1279.26  1290.78  1349.77  1384.27
                             1406.23  1415.51  1426.71  1439.66  1441.30
                             1454.93  1465.81  1479.35  1499.53  1507.41
                             1523.07  1541.37  1562.47  1601.13  1632.10
                             1644.77  1660.67  1682.69  1706.14  1718.67
                             1736.51  1766.96  1767.10  1781.09  1813.68
                             1826.70  1841.24  1863.82  1870.03  1875.54
                             1876.26  1893.68  1912.11  1930.06  1935.18
                             1953.80  1985.64  1995.86  2020.61  2024.01
                             2054.15  2084.02  2120.15  2131.04  2133.21
                             2134.23  2152.50  2157.85  2177.82  2180.71
                             2212.88  2254.94  2383.91  2396.64  2505.08
                             2505.93  4226.87  4235.57  4245.89  4246.29
                             4270.21  4277.23  4302.91  4331.81  4378.44
                             4398.41  4411.18  4427.33  4484.86  4486.43
                             4487.36  4488.37  4509.06  4513.20  4517.84
                             4520.40  4527.90  4547.35  4557.28  4572.46
                             5122.49

 Zero-point correction=                           0.385038 (Hartree/Particle)
 Thermal correction to Energy=                    0.406097
 Thermal correction to Enthalpy=                  0.407041
 Thermal correction to Gibbs Free Energy=         0.330641
 Sum of electronic and zero-point Energies=           -792.410767
 Sum of electronic and thermal Energies=              -792.389709
 Sum of electronic and thermal Enthalpies=            -792.388764
 Sum of electronic and thermal Free Energies=         -792.465164

                     E (Thermal)             CV                S
                      KCal/Mol        Cal/Mol-Kelvin    Cal/Mol-Kelvin
 Total                  254.830             77.117            160.797
 Electronic               0.000              0.000              0.000
 Translational            0.889              2.981             42.557
 Rotational               0.889              2.981             35.550
 Vibrational            253.052             71.155             82.690
 Vibration     1          0.593              1.987              7.456
 Vibration     2          0.593              1.986              7.161
 Vibration     3          0.594              1.983              5.720
 Vibration     4          0.594              1.981              5.268
 Vibration     5          0.595              1.979              4.959
 Vibration     6          0.597              1.974              4.469
 Vibration     7          0.600              1.962              3.869
 Vibration     8          0.603              1.953              3.565
 Vibration     9          0.608              1.936              3.157
 Vibration    10          0.610              1.930              3.056
 Vibration    11          0.611              1.926              2.993
 Vibration    12          0.615              1.913              2.794
 Vibration    13          0.626              1.877              2.410
 Vibration    14          0.629              1.867              2.329
 Vibration    15          0.645              1.818              2.001
 Vibration    16          0.651              1.800              1.903
 Vibration    17          0.661              1.766              1.746
 Vibration    18          0.675              1.725              1.584
 Vibration    19          0.694              1.669              1.403
 Vibration    20          0.699              1.654              1.360
 Vibration    21          0.730              1.566              1.146
 Vibration    22          0.745              1.525              1.062
 Vibration    23          0.757              1.495              1.006
 Vibration    24          0.780              1.434              0.903
 Vibration    25          0.795              1.396              0.845
 Vibration    26          0.810              1.359              0.793
 Vibration    27          0.836              1.294              0.710
 Vibration    28          0.862              1.235              0.642
 Vibration    29          0.922              1.104              0.511
 Vibration    30          0.949              1.051              0.465
 Vibration    31          0.978              0.993              0.419

                           ! Non-Optimized Parameters !
 Normal termination of Gaussian 16 at Tue May 30 05:57:19 2023.
