 Gaussian 16, Revision A.03,
 Gaussian 16:  ES64L-G16RevA.03 25-Dec-2016

 -----------------------------
 # opt freq b3lyp/6-31g(2df,p)
 -----------------------------

 -------------------
 Title Card Required
 -------------------
 Symbolic Z-matrix:
 Charge =  0 Multiplicity = 1

 SCF Done:  E(RB3LYP) =  -757.347027146     A.U. after   12 cycles
 SCF Done:  E(RB3LYP) =  -757.364646314     A.U. after   10 cycles
 SCF Done:  E(RB3LYP) =  -757.371229114     A.U. after   11 cycles
 SCF Done:  E(RB3LYP) =  -757.377151231     A.U. after   11 cycles
 SCF Done:  E(RB3LYP) =  -757.380139920     A.U. after   11 cycles
 SCF Done:  E(RB3LYP) =  -757.382377963     A.U. after   11 cycles
 SCF Done:  E(RB3LYP) =  -757.384432522     A.U. after   10 cycles
 SCF Done:  E(RB3LYP) =  -757.386203910     A.U. after   10 cycles
 SCF Done:  E(RB3LYP) =  -757.387721651     A.U. after   11 cycles
 SCF Done:  E(RB3LYP) =  -757.388430619     A.U. after   10 cycles
 SCF Done:  E(RB3LYP) =  -757.388772030     A.U. after   10 cycles
 SCF Done:  E(RB3LYP) =  -757.388865479     A.U. after    9 cycles
 SCF Done:  E(RB3LYP) =  -757.388907006     A.U. after    9 cycles
 SCF Done:  E(RB3LYP) =  -757.388929907     A.U. after    8 cycles
 SCF Done:  E(RB3LYP) =  -757.388940039     A.U. after    8 cycles
 SCF Done:  E(RB3LYP) =  -757.388942865     A.U. after    8 cycles
 SCF Done:  E(RB3LYP) =  -757.388944493     A.U. after    7 cycles
 SCF Done:  E(RB3LYP) =  -757.388944970     A.U. after    6 cycles
 SCF Done:  E(RB3LYP) =  -757.388945076     A.U. after    5 cycles
 Optimization completed.
    -- Stationary point found.
 Normal termination of Gaussian 16 at Wed May 24 03:53:03 2023.

 ----------------------------------------------------------------------
 #N Geom=AllCheck Guess=TCheck SCRF=Check GenChk RB3LYP/6-31G(2df,p) Fr
 eq
 ----------------------------------------------------------------------

 Structure from the checkpoint file:  "CCOCqCCrCqCNrqCOCrCCqCrCC.chk"
 -------------------
 Title Card Required
 -------------------
 Charge =  0 Multiplicity = 1

                         Standard orientation:
 ---------------------------------------------------------------------
 Center     Atomic      Atomic             Coordinates (Angstroms)
 Number     Number       Type             X           Y           Z
 ---------------------------------------------------------------------
      1          6           0        4.485273    0.478812    0.522713
      2          6           0        3.382068    0.146103   -0.468328
      3          8           0        2.327445   -0.474044    0.243816
      4          6           0        1.153595   -0.787724   -0.504583
      5          6           0        0.993211   -2.319171   -0.510969
      6          6           0        2.232971   -3.042730   -1.044987
      7          6           0       -0.072208    0.030626    0.054165
      8          6           0       -0.106230    0.008952    1.605355
      9          7           0       -0.519291   -1.283401    2.168670
     10          6           0        0.054308    1.502650   -0.387199
     11          8           0        1.157053    2.145128    0.222881
     12          6           0        1.200699    3.522271   -0.060126
     13          6           0       -1.382454   -0.548863   -0.557286
     14          6           0       -2.719379    0.200530   -0.290982
     15          6           0       -3.127153    1.079656   -1.485433
     16          6           0       -3.833580   -0.810849    0.055189
     17          6           0       -5.175080   -0.190454    0.458094
     18          1           0        5.333608    0.942680    0.009549
     19          1           0        4.838122   -0.425714    1.027234
     20          1           0        4.113243    1.172487    1.281935
     21          1           0        3.763295   -0.526863   -1.252762
     22          1           0        3.024047    1.063487   -0.953608
     23          1           0        1.299348   -0.460695   -1.547309
     24          1           0        0.133213   -2.591462   -1.130853
     25          1           0        0.768187   -2.647754    0.506890
     26          1           0        2.467878   -2.740307   -2.072897
     27          1           0        2.075029   -4.125965   -1.049678
     28          1           0        3.106637   -2.833039   -0.422838
     29          1           0       -0.735916    0.844852    1.951262
     30          1           0        0.906309    0.219952    1.949236
     31          1           0       -1.530958   -1.357069    2.195336
     32          1           0       -0.207030   -1.346553    3.131624
     33          1           0       -0.861292    2.048171   -0.112203
     34          1           0        0.145211    1.557742   -1.486674
     35          1           0        2.068371    3.937629    0.458352
     36          1           0        0.293404    4.039238    0.292122
     37          1           0        1.304969    3.717279   -1.139708
     38          1           0       -1.479426   -1.568089   -0.178387
     39          1           0       -1.248510   -0.648155   -1.643148
     40          1           0       -2.598280    0.852542    0.585066
     41          1           0       -3.356524    0.454496   -2.357212
     42          1           0       -2.328842    1.766384   -1.778521
     43          1           0       -4.013029    1.682778   -1.266184
     44          1           0       -3.482568   -1.450955    0.875309
     45          1           0       -3.981171   -1.483121   -0.801664
     46          1           0       -5.053066    0.506974    1.295128
     47          1           0       -5.882643   -0.964130    0.772669
     48          1           0       -5.638804    0.359455   -0.366068
 ---------------------------------------------------------------------

 SCF Done:  E(RB3LYP) =  -757.388945076     A.U. after    1 cycles

 The electronic state is 1-A.
 Alpha  occ. eigenvalues --  -19.13802 -19.11725 -14.30128 -10.22284 -10.21922
 Alpha  occ. eigenvalues --  -10.21566 -10.20940 -10.18789 -10.18548 -10.18478
 Alpha  occ. eigenvalues --  -10.17883 -10.17283 -10.17123 -10.17073 -10.16215
 Alpha  occ. eigenvalues --  -10.15683 -10.15601  -1.03149  -1.00922  -0.87154
 Alpha  occ. eigenvalues --   -0.81658  -0.78769  -0.75428  -0.73003  -0.72295
 Alpha  occ. eigenvalues --   -0.69741  -0.66507  -0.65049  -0.63778  -0.61986
 Alpha  occ. eigenvalues --   -0.59265  -0.57661  -0.55810  -0.52487  -0.49457
 Alpha  occ. eigenvalues --   -0.48652  -0.47727  -0.47358  -0.46458  -0.45497
 Alpha  occ. eigenvalues --   -0.44874  -0.43271  -0.42561  -0.41962  -0.41604
 Alpha  occ. eigenvalues --   -0.41206  -0.40799  -0.40422  -0.38702  -0.37965
 Alpha  occ. eigenvalues --   -0.37627  -0.36868  -0.36761  -0.35669  -0.35167
 Alpha  occ. eigenvalues --   -0.34941  -0.33778  -0.33292  -0.32896  -0.32269
 Alpha  occ. eigenvalues --   -0.32203  -0.31486  -0.31169  -0.29730  -0.29456
 Alpha  occ. eigenvalues --   -0.28931  -0.25261  -0.22956  -0.22449
 Alpha virt. eigenvalues --    0.06450   0.07787   0.09818   0.10064   0.10717
 Alpha virt. eigenvalues --    0.11270   0.12363   0.12918   0.13714   0.13853
 Alpha virt. eigenvalues --    0.14052   0.14585   0.14970   0.15646   0.16304

 Mulliken charges:
               1
     1  C   -0.391188
     2  C   -0.027010
     3  O   -0.264836
     4  C    0.110344
     5  C   -0.184848
     6  C   -0.394609
     7  C    0.184806
     8  C   -0.185668
     9  N   -0.517880
    10  C   -0.089292
    11  O   -0.228871
    12  C   -0.229021
    13  C   -0.267713
    14  C    0.040447
    15  C   -0.400073
    16  C   -0.185154
    17  C   -0.393350
    18  H    0.105791
    19  H    0.120355
    20  H    0.126728
    21  H    0.078666
    22  H    0.088864
    23  H    0.054491
    24  H    0.086331
    25  H    0.129448
    26  H    0.100209
    27  H    0.102663
    28  H    0.126181
    29  H    0.071675
    30  H    0.137345
    31  H    0.227441
    32  H    0.227714
    33  H    0.085210
    34  H    0.080349
    35  H    0.126133
    36  H    0.102623
    37  H    0.101430
    38  H    0.117774
    39  H    0.087319
    40  H    0.069901
    41  H    0.111531
    42  H    0.114706
    43  H    0.112577
    44  H    0.091087
    45  H    0.096036
    46  H    0.111482
    47  H    0.112363
    48  H    0.119495
 Sum of Mulliken charges =  -0.00000

 Dipole moment (field-independent basis, Debye):
    X=             -1.4377    Y=              1.5225    Z=             -0.2226  Tot=              2.1059
 Quadrupole moment (field-independent basis, Debye-Ang):
   XX=           -109.0080   YY=           -108.3034   ZZ=           -105.7254
   XY=              3.1230   XZ=             -2.9087   YZ=             -1.0435

  Exact polarizability: 197.532   2.655 168.865  -1.120  -0.566 148.053
 Approx polarizability: 239.635   3.019 232.913   0.966  -0.820 231.405

                      1                      2                      3
                      A                      A                      A
 Frequencies --     28.9807                40.8267                49.2452
 Red. masses --      3.5557                 2.6879                 2.9401
 Frc consts  --      0.0018                 0.0026                 0.0042
 IR Inten    --      0.0559                 0.0146                 0.0374

                      4                      5                      6
                      A                      A                      A
 Frequencies --     53.4535                83.7027                92.6544
 Red. masses --      2.9475                 2.7543                 2.6680
 Frc consts  --      0.0050                 0.0114                 0.0135
 IR Inten    --      0.1343                 1.1571                 0.5614

                      7                      8                      9
                      A                      A                      A
 Frequencies --     99.1863               112.9388               116.5516
 Red. masses --      2.2656                 2.3356                 2.1669
 Frc consts  --      0.0131                 0.0176                 0.0173
 IR Inten    --      0.0704                 0.3172                 0.7558

                     10                     11                     12
                      A                      A                      A
 Frequencies --    136.3483               142.8032               153.3395
 Red. masses --      2.1203                 3.0580                 1.7432
 Frc consts  --      0.0232                 0.0367                 0.0241
 IR Inten    --      2.8833                 1.2288                 3.9380

                     13                     14                     15
                      A                      A                      A
 Frequencies --    187.9012               205.3838               212.8658
 Red. masses --      1.8705                 1.6782                 1.3250
 Frc consts  --      0.0389                 0.0417                 0.0354
 IR Inten    --      7.6612                 8.2503                23.8088

                     16                     17                     18
                      A                      A                      A
 Frequencies --    215.8219               220.9684               235.2618
 Red. masses --      1.2668                 1.9026                 2.2703
 Frc consts  --      0.0348                 0.0547                 0.0740
 IR Inten    --      0.3347                 1.1583                 2.2520

                     19                     20                     21
                      A                      A                      A
 Frequencies --    247.5113               251.8777               258.1872
 Red. masses --      2.7822                 1.4190                 1.4084
 Frc consts  --      0.1004                 0.0530                 0.0553
 IR Inten    --      0.6729                 0.6738                 0.8191

                     22                     23                     24
                      A                      A                      A
 Frequencies --    266.6533               289.3830               299.8876
 Red. masses --      1.3656                 1.8101                 2.5038
 Frc consts  --      0.0572                 0.0893                 0.1327
 IR Inten    --      1.6580                 0.5362                 1.7912

                     25                     26                     27
                      A                      A                      A
 Frequencies --    314.7398               325.0867               363.8766
 Red. masses --      3.4318                 2.9517                 2.5485
 Frc consts  --      0.2003                 0.1838                 0.1988
 IR Inten    --      5.2046                 2.3755                 0.2776

                     28                     29                     30
                      A                      A                      A
 Frequencies --    373.4525               418.3868               435.6146
 Red. masses --      3.1227                 1.9657                 2.4258
 Frc consts  --      0.2566                 0.2027                 0.2712
 IR Inten    --      2.2321                 1.0608                 1.2248

                     31                     32                     33
                      A                      A                      A
 Frequencies --    450.8564               476.3251               528.4934
 Red. masses --      2.6796                 2.6964                 2.6947
 Frc consts  --      0.3209                 0.3604                 0.4435
 IR Inten    --      2.1246                 5.7954                 3.7845

                     34                     35                     36
                      A                      A                      A
 Frequencies --    604.3004               626.9808               759.3611
 Red. masses --      2.8659                 3.5680                 2.3515
 Frc consts  --      0.6166                 0.8264                 0.7989
 IR Inten    --      3.9267                 4.1358                 9.6406

                     37                     38                     39
                      A                      A                      A
 Frequencies --    773.7629               781.6801               818.1101
 Red. masses --      1.3053                 1.3698                 1.0843
 Frc consts  --      0.4604                 0.4931                 0.4276
 IR Inten    --      1.8193                 2.8347                 1.6799

                     40                     41                     42
                      A                      A                      A
 Frequencies --    828.5743               840.8472               866.7012
 Red. masses --      1.4881                 1.7502                 1.8841
 Frc consts  --      0.6019                 0.7291                 0.8339
 IR Inten    --     47.7837                18.3299                 3.5291

                     43                     44                     45
                      A                      A                      A
 Frequencies --    889.1804               890.3746               921.5927
 Red. masses --      1.7712                 1.8695                 2.1160
 Frc consts  --      0.8251                 0.8732                 1.0589
 IR Inten    --      3.9978                15.6367                 1.2393

                     46                     47                     48
                      A                      A                      A
 Frequencies --    945.7806               969.1184               975.2912
 Red. masses --      2.1338                 1.3575                 1.6520
 Frc consts  --      1.1246                 0.7512                 0.9258
 IR Inten    --      8.4135                11.5926                18.9681

                     49                     50                     51
                      A                      A                      A
 Frequencies --    994.0708               997.8111              1004.2270
 Red. masses --      2.3506                 2.9650                 1.7219
 Frc consts  --      1.3686                 1.7393                 1.0231
 IR Inten    --     10.1037                23.9168                 2.3143

                     52                     53                     54
                      A                      A                      A
 Frequencies --   1042.9913              1057.5005              1061.5810
 Red. masses --      2.7183                 1.9262                 2.6947
 Frc consts  --      1.7422                 1.2691                 1.7892
 IR Inten    --      1.7938                 1.0757                 2.0320

                     55                     56                     57
                      A                      A                      A
 Frequencies --   1074.7485              1093.8415              1102.6937
 Red. masses --      1.9745                 2.4818                 2.4911
 Frc consts  --      1.3438                 1.7496                 1.7846
 IR Inten    --      5.7748                 4.2647                37.4164

                     58                     59                     60
                      A                      A                      A
 Frequencies --   1112.1906              1129.5454              1135.0981
 Red. masses --      2.1144                 2.2671                 2.7811
 Frc consts  --      1.5410                 1.7043                 2.1112
 IR Inten    --      6.3015                36.2387                84.7257

                     61                     62                     63
                      A                      A                      A
 Frequencies --   1151.9757              1160.5946              1171.8151
 Red. masses --      3.9391                 2.7878                 2.0452
 Frc consts  --      3.0798                 2.2124                 1.6546
 IR Inten    --    190.7988                15.2628                 7.4479

                     64                     65                     66
                      A                      A                      A
 Frequencies --   1182.7793              1184.2514              1198.4560
 Red. masses --      1.5305                 1.3890                 2.5800
 Frc consts  --      1.2615                 1.1477                 2.1833
 IR Inten    --      1.3121                 4.0428                21.0625

                     67                     68                     69
                      A                      A                      A
 Frequencies --   1208.3041              1217.9570              1242.8779
 Red. masses --      2.2806                 1.5311                 1.7778
 Frc consts  --      1.9617                 1.3382                 1.6181
 IR Inten    --     22.5920                41.2110                10.1811

                     70                     71                     72
                      A                      A                      A
 Frequencies --   1279.0285              1287.7402              1293.6566
 Red. masses --      1.2300                 1.2255                 1.2414
 Frc consts  --      1.1855                 1.1973                 1.2241
 IR Inten    --      6.3014                 3.4924                 0.9362

                     73                     74                     75
                      A                      A                      A
 Frequencies --   1300.8075              1311.8269              1318.3809
 Red. masses --      1.1093                 1.2555                 1.1585
 Frc consts  --      1.1059                 1.2729                 1.1864
 IR Inten    --      0.3849                 0.7721                 1.9051

                     76                     77                     78
                      A                      A                      A
 Frequencies --   1338.3316              1356.1168              1364.8795
 Red. masses --      1.2948                 1.1975                 1.2507
 Frc consts  --      1.3664                 1.2976                 1.3727
 IR Inten    --      1.5092                19.2049                23.0524

                     79                     80                     81
                      A                      A                      A
 Frequencies --   1372.7380              1376.9908              1386.0830
 Red. masses --      1.3142                 1.3672                 1.3535
 Frc consts  --      1.4591                 1.5273                 1.5321
 IR Inten    --      2.0023                 2.1270                 2.9405

                     82                     83                     84
                      A                      A                      A
 Frequencies --   1391.3732              1398.1942              1401.3232
 Red. masses --      1.3886                 1.2460                 1.2396
 Frc consts  --      1.5838                 1.4351                 1.4342
 IR Inten    --      2.6944                 2.3186                 3.2301

                     85                     86                     87
                      A                      A                      A
 Frequencies --   1411.1217              1414.7622              1420.1253
 Red. masses --      1.2639                 1.2213                 1.3822
 Frc consts  --      1.4828                 1.4403                 1.6424
 IR Inten    --      3.4047                 3.8726                11.8532

                     88                     89                     90
                      A                      A                      A
 Frequencies --   1428.5831              1444.2030              1478.6099
 Red. masses --      1.3022                 1.3608                 1.1435
 Frc consts  --      1.5658                 1.6722                 1.4730
 IR Inten    --     15.2499                 5.3286                 1.2630

                     91                     92                     93
                      A                      A                      A
 Frequencies --   1480.1239              1482.4275              1484.8285
 Red. masses --      1.0690                 1.0460                 1.0509
 Frc consts  --      1.3798                 1.3544                 1.3651
 IR Inten    --      0.3738                 4.4842                 4.1905

                     94                     95                     96
                      A                      A                      A
 Frequencies --   1489.9887              1494.5112              1495.2984
 Red. masses --      1.0628                 1.0591                 1.0640
 Frc consts  --      1.3902                 1.3937                 1.4017
 IR Inten    --      1.5362                 3.1781                 4.1492

                     97                     98                     99
                      A                      A                      A
 Frequencies --   1497.3110              1497.6242              1500.0367
 Red. masses --      1.0519                 1.0497                 1.0564
 Frc consts  --      1.3895                 1.3871                 1.4005
 IR Inten    --      7.3020                 2.8105                 1.7751

                    100                    101                    102
                      A                      A                      A
 Frequencies --   1501.8524              1503.9487              1506.5857
 Red. masses --      1.0644                 1.0668                 1.0662
 Frc consts  --      1.4145                 1.4217                 1.4258
 IR Inten    --     12.6626                 5.7270                 4.8444

                    103                    104                    105
                      A                      A                      A
 Frequencies --   1511.3989              1513.3492              1519.9979
 Red. masses --      1.0655                 1.0474                 1.0759
 Frc consts  --      1.4341                 1.4133                 1.4645
 IR Inten    --      3.9411                 2.4217                 3.4562

                    106                    107                    108
                      A                      A                      A
 Frequencies --   1528.4881              1660.0335              2939.5912
 Red. masses --      1.0857                 1.0876                 1.0635
 Frc consts  --      1.4944                 1.7659                 5.4145
 IR Inten    --      3.1071                21.4739                27.7406

                    109                    110                    111
                      A                      A                      A
 Frequencies --   2954.7779              2958.9798              2965.3835
 Red. masses --      1.0755                 1.0763                 1.0404
 Frc consts  --      5.5324                 5.5524                 5.3904
 IR Inten    --     35.5669                37.5869                77.4113

                    112                    113                    114
                      A                      A                      A
 Frequencies --   2977.3930              2993.4256              3003.1650
 Red. masses --      1.0673                 1.0919                 1.0752
 Frc consts  --      5.5746                 5.7644                 5.7134
 IR Inten    --     66.3914                66.2193                 5.9130

                    115                    116                    117
                      A                      A                      A
 Frequencies --   3007.3112              3007.4559              3015.5576
 Red. masses --      1.0784                 1.0884                 1.0725
 Frc consts  --      5.7460                 5.8000                 5.7461
 IR Inten    --     37.9126                30.3546                46.7771

                    118                    119                    120
                      A                      A                      A
 Frequencies --   3026.4587              3029.3459              3031.6094
 Red. masses --      1.0406                 1.0427                 1.0920
 Frc consts  --      5.6157                 5.6380                 5.9132
 IR Inten    --     37.3030                18.2802                31.2990

                    121                    122                    123
                      A                      A                      A
 Frequencies --   3031.9381              3040.1534              3040.8991
 Red. masses --      1.0417                 1.0348                 1.0955
 Frc consts  --      5.6418                 5.6348                 5.9688
 IR Inten    --     33.8408                20.3942                42.3546

                    124                    125                    126
                      A                      A                      A
 Frequencies --   3053.5888              3084.8894              3095.0768
 Red. masses --      1.0636                 1.0966                 1.1001
 Frc consts  --      5.8432                 6.1489                 6.2088
 IR Inten    --     24.2376                21.6823                37.9319

                    127                    128                    129
                      A                      A                      A
 Frequencies --   3095.9524              3099.1380              3107.2007
 Red. masses --      1.0965                 1.0903                 1.0995
 Frc consts  --      6.1922                 6.1697                 6.2545
 IR Inten    --     35.1884                14.1929                48.7518

                    130                    131                    132
                      A                      A                      A
 Frequencies --   3108.4198              3111.5100              3112.2163
 Red. masses --      1.0978                 1.0959                 1.1008
 Frc consts  --      6.2494                 6.2514                 6.2819
 IR Inten    --      6.2257                24.9823                35.9387

                    133                    134                    135
                      A                      A                      A
 Frequencies --   3116.7009              3119.2879              3122.3032
 Red. masses --      1.0998                 1.1024                 1.1011
 Frc consts  --      6.2945                 6.3200                 6.3243
 IR Inten    --     29.3254                29.2963                34.1596

                    136                    137                    138
                      A                      A                      A
 Frequencies --   3131.2456              3502.7631              3578.9752
 Red. masses --      1.0871                 1.0495                 1.0925
 Frc consts  --      6.2797                 7.5865                 8.2448
 IR Inten    --      5.4470                 0.5725                 0.8228

 - Thermochemistry -
 -------------------
 Temperature   298.150 Kelvin.  Pressure   1.00000 Atm.
 Atom     1 has atomic number  6 and mass  12.00000

 Molecular mass:   245.23548 amu.
 Principal axes and moments of inertia in atomic units:
                           1         2         3
     Eigenvalues --  2963.462736536.748677945.07680
           X            0.99999  -0.00291  -0.00199
           Y            0.00291   0.99999   0.00133
           Z            0.00198  -0.00134   1.00000
 This molecule is an asymmetric top.
 Rotational symmetry number  1.
 Warning -- assumption of classical behavior for rotation
           may cause significant error
 Rotational temperatures (Kelvin)      0.02923     0.01325     0.01090
 Rotational constants (GHZ):           0.60900     0.27609     0.22715
 Zero-point vibrational energy    1158050.5 (Joules/Mol)
                                  276.78071 (Kcal/Mol)
 Warning -- explicit consideration of  34 degrees of freedom as
           vibrations may cause significant error
 Vibrational temperatures:     41.70    58.74    70.85    76.91   120.43
          (Kelvin)            133.31   142.71   162.49   167.69   196.17
                              205.46   220.62   270.35   295.50   306.27
                              310.52   317.92   338.49   356.11   362.40
                              371.47   383.65   416.36   431.47   452.84
                              467.73   523.54   537.31   601.97   626.75
                              648.68   685.33   760.38   869.45   902.09
                             1092.55  1113.27  1124.66  1177.08  1192.13
                             1209.79  1246.99  1279.33  1281.05  1325.97
                             1360.77  1394.35  1403.23  1430.25  1435.63
                             1444.86  1500.63  1521.51  1527.38  1546.32
                             1573.79  1586.53  1600.19  1625.16  1633.15
                             1657.44  1669.84  1685.98  1701.76  1703.87
                             1724.31  1738.48  1752.37  1788.22  1840.24
                             1852.77  1861.28  1871.57  1887.43  1896.86
                             1925.56  1951.15  1963.76  1975.06  1981.18
                             1994.26  2001.88  2011.69  2016.19  2030.29
                             2035.53  2043.24  2055.41  2077.89  2127.39
                             2129.57  2132.88  2136.34  2143.76  2150.27
                             2151.40  2154.30  2154.75  2158.22  2160.83
                             2163.85  2167.64  2174.57  2177.37  2186.94
                             2199.15  2388.42  4229.42  4251.27  4257.31
                             4266.53  4283.80  4306.87  4320.88  4326.85
                             4327.06  4338.71  4354.40  4358.55  4361.81
                             4362.28  4374.10  4375.18  4393.43  4438.47
                             4453.13  4454.38  4458.97  4470.57  4472.32
                             4476.77  4477.79  4484.24  4487.96  4492.30
                             4505.16  5039.69  5149.35

 Zero-point correction=                           0.441078 (Hartree/Particle)
 Thermal correction to Energy=                    0.463589
 Thermal correction to Enthalpy=                  0.464534
 Thermal correction to Gibbs Free Energy=         0.389816
 Sum of electronic and zero-point Energies=           -756.947867
 Sum of electronic and thermal Energies=              -756.925356
 Sum of electronic and thermal Enthalpies=            -756.924411
 Sum of electronic and thermal Free Energies=         -756.999129

                     E (Thermal)             CV                S
                      KCal/Mol        Cal/Mol-Kelvin    Cal/Mol-Kelvin
 Total                  290.907             82.260            157.257
 Electronic               0.000              0.000              0.000
 Translational            0.889              2.981             42.392
 Rotational               0.889              2.981             33.398
 Vibrational            289.129             76.299             81.467
 Vibration     1          0.593              1.984              5.898
 Vibration     2          0.594              1.981              5.219
 Vibration     3          0.595              1.978              4.847
 Vibration     4          0.596              1.976              4.685
 Vibration     5          0.601              1.960              3.802
 Vibration     6          0.602              1.954              3.603
 Vibration     7          0.604              1.950              3.470
 Vibration     8          0.607              1.939              3.218
 Vibration     9          0.608              1.936              3.157
 Vibration    10          0.614              1.917              2.854
 Vibration    11          0.616              1.910              2.766
 Vibration    12          0.619              1.899              2.630
 Vibration    13          0.633              1.856              2.248
 Vibration    14          0.640              1.832              2.084
 Vibration    15          0.644              1.821              2.019
 Vibration    16          0.645              1.817              1.994
 Vibration    17          0.648              1.809              1.951
 Vibration    18          0.655              1.787              1.838
 Vibration    19          0.661              1.767              1.748
 Vibration    20          0.664              1.760              1.717
 Vibration    21          0.667              1.749              1.674
 Vibration    22          0.672              1.734              1.618
 Vibration    23          0.686              1.693              1.478
 Vibration    24          0.692              1.674              1.418
 Vibration    25          0.702              1.646              1.337
 Vibration    26          0.709              1.625              1.284
 Vibration    27          0.737              1.547              1.105
 Vibration    28          0.745              1.527              1.066
 Vibration    29          0.781              1.430              0.897
 Vibration    30          0.796              1.393              0.841
 Vibration    31          0.810              1.359              0.793
 Vibration    32          0.833              1.303              0.720
 Vibration    33          0.883              1.187              0.591
 Vibration    34          0.963              1.023              0.442

 Optimization completed.
    -- Stationary point found.
 Normal termination of Gaussian 16 at Wed May 24 09:55:55 2023.
