 Gaussian 16, Revision A.03,
 Gaussian 16:  ES64L-G16RevA.03 25-Dec-2016

 -----------------------------
 # opt freq b3lyp/6-31g(2df,p)
 -----------------------------

 -------------------
 Title Card Required
 -------------------
 Symbolic Z-matrix:
 Charge =  0 Multiplicity = 1

 SCF Done:  E(RB3LYP) =  -654.611204274     A.U. after   14 cycles
 SCF Done:  E(RB3LYP) =  -654.618001658     A.U. after   13 cycles
 SCF Done:  E(RB3LYP) =  -654.622219781     A.U. after   13 cycles
 SCF Done:  E(RB3LYP) =  -654.624714818     A.U. after   12 cycles
 SCF Done:  E(RB3LYP) =  -654.625803007     A.U. after   13 cycles
 SCF Done:  E(RB3LYP) =  -654.627364183     A.U. after   13 cycles
 SCF Done:  E(RB3LYP) =  -654.628782029     A.U. after   13 cycles
 SCF Done:  E(RB3LYP) =  -654.630159370     A.U. after   13 cycles
 SCF Done:  E(RB3LYP) =  -654.631257573     A.U. after   12 cycles
 SCF Done:  E(RB3LYP) =  -654.631547459     A.U. after   12 cycles
 SCF Done:  E(RB3LYP) =  -654.631915781     A.U. after    9 cycles
 SCF Done:  E(RB3LYP) =  -654.631916106     A.U. after    7 cycles
 SCF Done:  E(RB3LYP) =  -654.631916300     A.U. after    8 cycles
 SCF Done:  E(RB3LYP) =  -654.631916353     A.U. after    7 cycles
 SCF Done:  E(RB3LYP) =  -654.631916382     A.U. after    6 cycles
 SCF Done:  E(RB3LYP) =  -654.631916403     A.U. after    6 cycles
 SCF Done:  E(RB3LYP) =  -654.631916413     A.U. after    6 cycles
 SCF Done:  E(RB3LYP) =  -654.631916426     A.U. after    7 cycles
 SCF Done:  E(RB3LYP) =  -654.631916430     A.U. after    6 cycles
 Optimization completed.
    -- Stationary point found.
 Normal termination of Gaussian 16 at Mon May 22 14:11:30 2023.

 ----------------------------------------------------------------------
 #N Geom=AllCheck Guess=TCheck SCRF=Check GenChk RB3LYP/6-31G(2df,p) Fr
 eq
 ----------------------------------------------------------------------

 Structure from the checkpoint file:  "CCOCqCOOrCqCrCCqCrdO.chk"
 -------------------
 Title Card Required
 -------------------
 Charge =  0 Multiplicity = 1

                         Standard orientation:
 ---------------------------------------------------------------------
 Center     Atomic      Atomic             Coordinates (Angstroms)
 Number     Number       Type             X           Y           Z
 ---------------------------------------------------------------------
      1          6           0       -3.363047   -2.401841    0.447370
      2          6           0       -2.590936   -1.387874   -0.379334
      3          8           0       -1.473113   -0.955580    0.387464
      4          6           0       -0.612182   -0.019494   -0.243159
      5          6           0       -1.000627    1.401531    0.179350
      6          8           0       -2.288208    1.663480   -0.361401
      7          8           0       -2.622602    3.024549   -0.013444
      8          6           0        0.836829   -0.390775    0.155661
      9          6           0        1.136394   -1.838559   -0.260917
     10          6           0        1.877756    0.584975   -0.446450
     11          6           0        3.321375    0.201851   -0.128318
     12          6           0        3.780245    0.390312    1.308594
     13          8           0        4.067193   -0.218044   -0.982653
     14          1           0       -4.230964   -2.763893   -0.111964
     15          1           0       -3.715578   -1.949778    1.378986
     16          1           0       -2.731795   -3.258543    0.701021
     17          1           0       -3.227024   -0.533179   -0.640413
     18          1           0       -2.243628   -1.843604   -1.320494
     19          1           0       -0.707791   -0.096017   -1.337701
     20          1           0       -0.297188    2.147408   -0.204937
     21          1           0       -1.026214    1.462914    1.276609
     22          1           0       -3.277918    2.877713    0.684313
     23          1           0        0.882394   -0.329006    1.251263
     24          1           0        1.144411   -1.934746   -1.352784
     25          1           0        0.379828   -2.512209    0.142592
     26          1           0        2.116804   -2.162611    0.098971
     27          1           0        1.709415    1.599833   -0.069713
     28          1           0        1.783433    0.603557   -1.537026
     29          1           0        3.710957    1.447716    1.589397
     30          1           0        4.811503    0.051737    1.413051
     31          1           0        3.138352   -0.163284    2.002314
 ---------------------------------------------------------------------

 SCF Done:  E(RB3LYP) =  -654.631916430     A.U. after    1 cycles

 The electronic state is 1-A.
 Alpha  occ. eigenvalues --  -19.19720 -19.19396 -19.14019 -19.12705 -10.27012
 Alpha  occ. eigenvalues --  -10.24263 -10.23297 -10.22589 -10.20465 -10.19305
 Alpha  occ. eigenvalues --  -10.18981 -10.17634 -10.17405  -1.12007  -1.03787
 Alpha  occ. eigenvalues --   -1.03350  -0.91367  -0.82292  -0.76605  -0.74253
 Alpha  occ. eigenvalues --   -0.71212  -0.69757  -0.63211  -0.60744  -0.58196
 Alpha  occ. eigenvalues --   -0.53873  -0.52875  -0.50498  -0.48270  -0.47689
 Alpha  occ. eigenvalues --   -0.47070  -0.45666  -0.44805  -0.44177  -0.42673
 Alpha  occ. eigenvalues --   -0.42250  -0.41863  -0.39736  -0.39513  -0.38151
 Alpha  occ. eigenvalues --   -0.37805  -0.36882  -0.36326  -0.35849  -0.34827
 Alpha  occ. eigenvalues --   -0.33666  -0.33232  -0.31486  -0.29712  -0.27055
 Alpha  occ. eigenvalues --   -0.25689  -0.24017
 Alpha virt. eigenvalues --   -0.01264   0.02675   0.07410   0.07660   0.09285
 Alpha virt. eigenvalues --    0.10585   0.11706   0.12309   0.12761   0.14203
 Alpha virt. eigenvalues --    0.14742   0.15356   0.15887   0.16478   0.17114

 Mulliken charges:
               1
     1  C   -0.386484
     2  C   -0.049251
     3  O   -0.268742
     4  C    0.080028
     5  C   -0.017744
     6  O   -0.195034
     7  O   -0.319383
     8  C   -0.010185
     9  C   -0.403400
    10  C   -0.306315
    11  C    0.382267
    12  C   -0.479591
    13  O   -0.300427
    14  H    0.116101
    15  H    0.123271
    16  H    0.124016
    17  H    0.113641
    18  H    0.087909
    19  H    0.084197
    20  H    0.106784
    21  H    0.093467
    22  H    0.311910
    23  H    0.084938
    24  H    0.119849
    25  H    0.132432
    26  H    0.121590
    27  H    0.110689
    28  H    0.120105
    29  H    0.138384
    30  H    0.143287
    31  H    0.141692
 Sum of Mulliken charges =  -0.00000

 Dipole moment (field-independent basis, Debye):
    X=             -1.8404    Y=              0.3715    Z=              2.5013  Tot=              3.1275
 Quadrupole moment (field-independent basis, Debye-Ang):
   XX=            -85.4473   YY=            -80.2194   ZZ=            -79.5577
   XY=              4.1636   XZ=              4.7704   YZ=              4.7590

  Exact polarizability: 137.010  -1.623 114.544  -1.409   4.144  97.821
 Approx polarizability: 166.713  -7.024 158.900  -7.613   7.326 157.504

                      1                      2                      3
                      A                      A                      A
 Frequencies --     18.3605                31.0283                42.1869
 Red. masses --      3.2408                 2.5402                 2.9904
 Frc consts  --      0.0006                 0.0014                 0.0031
 IR Inten    --      2.6099                 2.2274                 1.3831

                      4                      5                      6
                      A                      A                      A
 Frequencies --     45.8057                67.7666                87.3933
 Red. masses --      2.2205                 3.9952                 2.9906
 Frc consts  --      0.0027                 0.0108                 0.0135
 IR Inten    --      1.0605                 1.5386                 2.1291

                      7                      8                      9
                      A                      A                      A
 Frequencies --     94.6915               112.0710               136.3550
 Red. masses --      2.5105                 1.3988                 3.9671
 Frc consts  --      0.0133                 0.0104                 0.0435
 IR Inten    --      4.8407                 2.1510                 5.5958

                     10                     11                     12
                      A                      A                      A
 Frequencies --    142.5179               195.4476               217.4572
 Red. masses --      3.9631                 3.5826                 1.1504
 Frc consts  --      0.0474                 0.0806                 0.0321
 IR Inten    --      1.0358                 0.4532                 1.8659

                     13                     14                     15
                      A                      A                      A
 Frequencies --    234.5928               237.6177               246.2777
 Red. masses --      2.1366                 1.4240                 1.1737
 Frc consts  --      0.0693                 0.0474                 0.0419
 IR Inten    --     26.4064                67.7092                 0.3280

                     16                     17                     18
                      A                      A                      A
 Frequencies --    311.8275               334.4604               364.9319
 Red. masses --      4.2290                 3.7577                 3.9353
 Frc consts  --      0.2423                 0.2477                 0.3088
 IR Inten    --      2.0599                 2.6168                 1.4893

                     19                     20                     21
                      A                      A                      A
 Frequencies --    377.6392               397.5257               470.4693
 Red. masses --      2.8640                 2.0344                 3.0641
 Frc consts  --      0.2406                 0.1894                 0.3996
 IR Inten    --      1.3595                 0.3099                 1.0268

                     22                     23                     24
                      A                      A                      A
 Frequencies --    499.1936               544.5194               570.7478
 Red. masses --      3.1957                 3.3848                 2.6511
 Frc consts  --      0.4692                 0.5913                 0.5088
 IR Inten    --      1.4910                21.3810                 7.8548

                     25                     26                     27
                      A                      A                      A
 Frequencies --    607.5932               791.5611               820.7142
 Red. masses --      2.4033                 3.2836                 1.0860
 Frc consts  --      0.5227                 1.2122                 0.4310
 IR Inten    --      3.9974                 1.5488                 0.1806

                     28                     29                     30
                      A                      A                      A
 Frequencies --    836.9540               859.0866               891.9662
 Red. masses --      2.1517                 2.0719                 1.7636
 Frc consts  --      0.8881                 0.9009                 0.8267
 IR Inten    --      0.4936                14.1696                 8.4265

                     31                     32                     33
                      A                      A                      A
 Frequencies --    927.0585               952.7088               959.0197
 Red. masses --      2.5770                 2.4466                 2.4006
 Frc consts  --      1.3049                 1.3084                 1.3008
 IR Inten    --     10.9879                12.5710                 6.6413

                     34                     35                     36
                      A                      A                      A
 Frequencies --    969.4524              1010.5854              1040.6361
 Red. masses --      1.4834                 1.8936                 3.9353
 Frc consts  --      0.8214                 1.1394                 2.5109
 IR Inten    --      2.4337                 1.3888                12.5214

                     37                     38                     39
                      A                      A                      A
 Frequencies --   1052.3972              1092.4462              1106.4257
 Red. masses --      3.1464                 2.6325                 2.2650
 Frc consts  --      2.0532                 1.8511                 1.6337
 IR Inten    --      6.7537                17.5581                12.2907

                     40                     41                     42
                      A                      A                      A
 Frequencies --   1128.2173              1135.6170              1145.2938
 Red. masses --      3.0026                 2.7539                 2.4700
 Frc consts  --      2.2518                 2.0925                 1.9089
 IR Inten    --    102.9574                54.9503                87.9535

                     43                     44                     45
                      A                      A                      A
 Frequencies --   1169.4370              1186.6680              1205.6449
 Red. masses --      2.2424                 1.5395                 2.0886
 Frc consts  --      1.8069                 1.2773                 1.7888
 IR Inten    --     19.7065                 4.0625                10.3231

                     46                     47                     48
                      A                      A                      A
 Frequencies --   1241.0172              1263.6044              1283.5393
 Red. masses --      1.5667                 1.2107                 1.3940
 Frc consts  --      1.4216                 1.1390                 1.3531
 IR Inten    --     60.8190                 4.0641                23.2640

                     49                     50                     51
                      A                      A                      A
 Frequencies --   1298.1850              1317.7506              1349.6656
 Red. masses --      1.1041                 1.3097                 1.3131
 Frc consts  --      1.0963                 1.3400                 1.4093
 IR Inten    --      1.2452                12.7956                24.6193

                     52                     53                     54
                      A                      A                      A
 Frequencies --   1358.0462              1375.8298              1383.7012
 Red. masses --      1.3116                 1.2918                 1.3274
 Frc consts  --      1.4253                 1.4407                 1.4974
 IR Inten    --     11.9904                29.5644                23.5719

                     55                     56                     57
                      A                      A                      A
 Frequencies --   1386.2875              1403.0856              1405.6568
 Red. masses --      1.1401                 1.2405                 1.3990
 Frc consts  --      1.2909                 1.4389                 1.6286
 IR Inten    --     48.7514                 3.4703                 5.7605

                     58                     59                     60
                      A                      A                      A
 Frequencies --   1408.1423              1441.8525              1461.1271
 Red. masses --      1.2388                 1.3794                 1.0549
 Frc consts  --      1.4473                 1.6897                 1.3269
 IR Inten    --      7.1440                 9.4062                 8.0650

                     61                     62                     63
                      A                      A                      A
 Frequencies --   1470.1109              1480.9266              1483.1542
 Red. masses --      1.0788                 1.0637                 1.0410
 Frc consts  --      1.3737                 1.3744                 1.3492
 IR Inten    --      1.7649                 9.5757                 3.6604

                     64                     65                     66
                      A                      A                      A
 Frequencies --   1488.2610              1500.4940              1506.6422
 Red. masses --      1.0507                 1.0465                 1.0822
 Frc consts  --      1.3712                 1.3883                 1.4473
 IR Inten    --      3.3416                 0.5976                 8.5322

                     67                     68                     69
                      A                      A                      A
 Frequencies --   1510.5709              1530.1255              1811.5199
 Red. masses --      1.0494                 1.0862                10.4071
 Frc consts  --      1.4108                 1.4983                20.1218
 IR Inten    --      7.4752                 1.8830               158.8589

                     70                     71                     72
                      A                      A                      A
 Frequencies --   2974.4624              2986.4512              3005.0651
 Red. masses --      1.0686                 1.0798                 1.0628
 Frc consts  --      5.5702                 5.6743                 5.6549
 IR Inten    --     29.7796                19.7965                23.4104

                     73                     74                     75
                      A                      A                      A
 Frequencies --   3019.9443              3034.1903              3039.0459
 Red. masses --      1.0805                 1.0476                 1.0476
 Frc consts  --      5.8058                 5.6824                 5.7004
 IR Inten    --     26.9203                 5.1623                17.7741

                     76                     77                     78
                      A                      A                      A
 Frequencies --   3040.9451              3042.5928              3047.4279
 Red. masses --      1.0430                 1.0353                 1.0921
 Frc consts  --      5.6825                 5.6470                 5.9758
 IR Inten    --     10.8763                18.7848                23.4800

                     79                     80                     81
                      A                      A                      A
 Frequencies --   3073.0235              3095.2072              3097.5619
 Red. masses --      1.0986                 1.1009                 1.0998
 Frc consts  --      6.1123                 6.2139                 6.2171
 IR Inten    --     47.0985                 6.0880                17.3644

                     82                     83                     84
                      A                      A                      A
 Frequencies --   3105.2355              3117.4361              3118.2901
 Red. masses --      1.0983                 1.1013                 1.1027
 Frc consts  --      6.2398                 6.3059                 6.3173
 IR Inten    --     29.7738                26.8973                28.8498

                     85                     86                     87
                      A                      A                      A
 Frequencies --   3145.0615              3152.6443              3743.6119
 Red. masses --      1.0992                 1.1017                 1.0687
 Frc consts  --      6.4060                 6.4517                 8.8242
 IR Inten    --     14.2018                10.8290                29.4487

 - Thermochemistry -
 -------------------
 Temperature   298.150 Kelvin.  Pressure   1.00000 Atm.
 Atom     1 has atomic number  6 and mass  12.00000

 Molecular mass:   190.12051 amu.
 Principal axes and moments of inertia in atomic units:
                           1         2         3
     Eigenvalues --  1796.573354629.578305910.85796
           X            0.99953   0.02871   0.01041
           Y           -0.02883   0.99951   0.01204
           Z           -0.01006  -0.01234   0.99987
 This molecule is an asymmetric top.
 Rotational symmetry number  1.
 Warning -- assumption of classical behavior for rotation
           may cause significant error
 Rotational temperatures (Kelvin)      0.04821     0.01871     0.01465
 Rotational constants (GHZ):           1.00455     0.38983     0.30533
 Zero-point vibrational energy     697828.8 (Joules/Mol)
                                  166.78508 (Kcal/Mol)
 Warning -- explicit consideration of  25 degrees of freedom as
           vibrations may cause significant error
 Vibrational temperatures:     26.42    44.64    60.70    65.90    97.50
          (Kelvin)            125.74   136.24   161.25   196.18   205.05
                              281.21   312.87   337.53   341.88   354.34
                              448.65   481.21   525.06   543.34   571.95
                              676.90   718.23   783.44   821.18   874.19
                             1138.88  1180.82  1204.19  1236.03  1283.34
                             1333.83  1370.74  1379.82  1394.83  1454.01
                             1497.24  1514.16  1571.79  1591.90  1623.25
                             1633.90  1647.82  1682.56  1707.35  1734.65
                             1785.55  1818.04  1846.73  1867.80  1895.95
                             1941.87  1953.93  1979.51  1990.84  1994.56
                             2018.73  2022.43  2026.00  2074.50  2102.24
                             2115.16  2130.72  2133.93  2141.28  2158.88
                             2167.72  2173.37  2201.51  2606.37  4279.59
                             4296.84  4323.62  4345.03  4365.52  4372.51
                             4375.24  4377.61  4384.57  4421.40  4453.31
                             4456.70  4467.74  4485.30  4486.52  4525.04
                             4535.95  5386.22

 Zero-point correction=                           0.265789 (Hartree/Particle)
 Thermal correction to Energy=                    0.282770
 Thermal correction to Enthalpy=                  0.283714
 Thermal correction to Gibbs Free Energy=         0.218344
 Sum of electronic and zero-point Energies=           -654.366127
 Sum of electronic and thermal Energies=              -654.349147
 Sum of electronic and thermal Enthalpies=            -654.348203
 Sum of electronic and thermal Free Energies=         -654.413572

                     E (Thermal)             CV                S
                      KCal/Mol        Cal/Mol-Kelvin    Cal/Mol-Kelvin
 Total                  177.441             58.316            137.582
 Electronic               0.000              0.000              0.000
 Translational            0.889              2.981             41.633
 Rotational               0.889              2.981             32.264
 Vibrational            175.663             52.354             63.685
 Vibration     1          0.593              1.986              6.804
 Vibration     2          0.594              1.983              5.763
 Vibration     3          0.595              1.980              5.154
 Vibration     4          0.595              1.979              4.991
 Vibration     5          0.598              1.970              4.217
 Vibration     6          0.601              1.958              3.718
 Vibration     7          0.603              1.953              3.561
 Vibration     8          0.607              1.939              3.233
 Vibration     9          0.614              1.917              2.854
 Vibration    10          0.616              1.911              2.770
 Vibration    11          0.636              1.846              2.176
 Vibration    12          0.646              1.814              1.980
 Vibration    13          0.654              1.788              1.844
 Vibration    14          0.656              1.783              1.821
 Vibration    15          0.661              1.769              1.757
 Vibration    16          0.700              1.651              1.353
 Vibration    17          0.716              1.607              1.238
 Vibration    18          0.738              1.544              1.101
 Vibration    19          0.748              1.518              1.049
 Vibration    20          0.764              1.475              0.972
 Vibration    21          0.827              1.316              0.736
 Vibration    22          0.855              1.252              0.660
 Vibration    23          0.900              1.152              0.556
 Vibration    24          0.927              1.095              0.503
 Vibration    25          0.966              1.016              0.437

                           ! Non-Optimized Parameters !
 Normal termination of Gaussian 16 at Mon May 22 15:38:17 2023.
