 Gaussian 16, Revision A.03,
 Gaussian 16:  ES64L-G16RevA.03 25-Dec-2016

 -----------------------------
 # opt freq b3lyp/6-31g(2df,p)
 -----------------------------

 -------------------
 Title Card Required
 -------------------
 Symbolic Z-matrix:
 Charge =  0 Multiplicity = 1

 SCF Done:  E(RB3LYP) =  -622.179515919     A.U. after   12 cycles
 SCF Done:  E(RB3LYP) =  -622.186895539     A.U. after   11 cycles
 SCF Done:  E(RB3LYP) =  -622.187932295     A.U. after   10 cycles
 SCF Done:  E(RB3LYP) =  -622.188897111     A.U. after   11 cycles
 SCF Done:  E(RB3LYP) =  -622.185569049     A.U. after   13 cycles
 SCF Done:  E(RB3LYP) =  -622.189782470     A.U. after   10 cycles
 SCF Done:  E(RB3LYP) =  -622.190174793     A.U. after   10 cycles
 SCF Done:  E(RB3LYP) =  -622.190519113     A.U. after   10 cycles
 SCF Done:  E(RB3LYP) =  -622.190656917     A.U. after    9 cycles
 SCF Done:  E(RB3LYP) =  -622.190785680     A.U. after   10 cycles
 SCF Done:  E(RB3LYP) =  -622.190862060     A.U. after    9 cycles
 SCF Done:  E(RB3LYP) =  -622.190894792     A.U. after    9 cycles
 SCF Done:  E(RB3LYP) =  -622.190912692     A.U. after    9 cycles
 SCF Done:  E(RB3LYP) =  -622.190913041     A.U. after    8 cycles
 SCF Done:  E(RB3LYP) =  -622.190914326     A.U. after    8 cycles
 SCF Done:  E(RB3LYP) =  -622.190914376     A.U. after    6 cycles
 SCF Done:  E(RB3LYP) =  -622.190914522     A.U. after    6 cycles
 Optimization completed.
    -- Stationary point found.
 Normal termination of Gaussian 16 at Sat May 27 11:43:12 2023.

 ----------------------------------------------------------------------
 #N Geom=AllCheck Guess=TCheck SCRF=Check GenChk RB3LYP/6-31G(2df,p) Fr
 eq
 ----------------------------------------------------------------------

 Structure from the checkpoint file:  "CCOC1qCOCCqCrCCrCCC1.chk"
 -------------------
 Title Card Required
 -------------------
 Charge =  0 Multiplicity = 1

                         Standard orientation:
 ---------------------------------------------------------------------
 Center     Atomic      Atomic             Coordinates (Angstroms)
 Number     Number       Type             X           Y           Z
 ---------------------------------------------------------------------
      1          6           0        4.991537   -1.475993   -0.070730
      2          6           0        3.528414   -1.265297    0.286585
      3          8           0        3.037628   -0.190834   -0.499221
      4          6           0        1.801221    0.376852   -0.105885
      5          6           0        0.666500   -0.622622   -0.341105
      6          8           0       -0.572842   -0.008504   -0.064118
      7          6           0       -1.674739   -0.885582   -0.187842
      8          6           0       -2.970915   -0.121871    0.086258
      9          6           0       -3.173480    0.996237   -0.944877
     10          6           0       -4.152205   -1.107630    0.140403
     11          6           0       -5.478963   -0.484815    0.586168
     12          6           0        1.764790    1.087254    1.285489
     13          6           0        1.217719    2.364143    0.590023
     14          6           0        1.585606    1.751691   -0.788293
     15          1           0        5.407916   -2.314136    0.496488
     16          1           0        5.574456   -0.577903    0.152374
     17          1           0        5.095823   -1.693358   -1.137667
     18          1           0        3.424717   -1.035847    1.358068
     19          1           0        2.959835   -2.188234    0.095228
     20          1           0        0.798008   -1.506315    0.305407
     21          1           0        0.709862   -0.966879   -1.388226
     22          1           0       -1.567797   -1.722686    0.522985
     23          1           0       -1.698921   -1.323244   -1.201794
     24          1           0       -2.861598    0.337232    1.079193
     25          1           0       -3.351909    0.575943   -1.942659
     26          1           0       -2.285501    1.629870   -1.001058
     27          1           0       -4.027360    1.630824   -0.692512
     28          1           0       -3.897869   -1.925966    0.826709
     29          1           0       -4.280195   -1.569521   -0.848596
     30          1           0       -5.381078   -0.009096    1.568510
     31          1           0       -6.260663   -1.246964    0.663066
     32          1           0       -5.830804    0.275528   -0.117334
     33          1           0        2.776250    1.224674    1.676708
     34          1           0        1.136448    0.635821    2.056421
     35          1           0        1.704707    3.306076    0.850682
     36          1           0        0.140551    2.471828    0.720865
     37          1           0        2.536331    2.119406   -1.180423
     38          1           0        0.827598    1.793444   -1.572888
 ---------------------------------------------------------------------

 SCF Done:  E(RB3LYP) =  -622.190914522     A.U. after    1 cycles

 The electronic state is 1-A.
 Alpha  occ. eigenvalues --  -19.14023 -19.13198 -10.22759 -10.22398 -10.22318
 Alpha  occ. eigenvalues --  -10.22117 -10.18377 -10.18003 -10.17285 -10.17245
 Alpha  occ. eigenvalues --  -10.16948 -10.16928 -10.16630 -10.16596  -1.03590
 Alpha  occ. eigenvalues --   -1.02275  -0.83060  -0.80638  -0.74861  -0.73527
 Alpha  occ. eigenvalues --   -0.70302  -0.66479  -0.65580  -0.62671  -0.61065
 Alpha  occ. eigenvalues --   -0.59024  -0.55966  -0.52767  -0.50416  -0.48502
 Alpha  occ. eigenvalues --   -0.48297  -0.46735  -0.45940  -0.45408  -0.43981
 Alpha  occ. eigenvalues --   -0.42202  -0.41604  -0.40744  -0.39621  -0.38246
 Alpha  occ. eigenvalues --   -0.37937  -0.37486  -0.37007  -0.36435  -0.35135
 Alpha  occ. eigenvalues --   -0.34578  -0.33529  -0.32168  -0.32093  -0.31947
 Alpha  occ. eigenvalues --   -0.31450  -0.31053  -0.30521  -0.28086  -0.25387
 Alpha  occ. eigenvalues --   -0.24132
 Alpha virt. eigenvalues --    0.07841   0.09126   0.09412   0.10562   0.10823
 Alpha virt. eigenvalues --    0.12128   0.12588   0.13219   0.13428   0.14424
 Alpha virt. eigenvalues --    0.14908   0.15361   0.16342   0.16558   0.16681

 Mulliken charges:
               1
     1  C   -0.381416
     2  C   -0.056724
     3  O   -0.305853
     4  C    0.400043
     5  C   -0.122284
     6  O   -0.257899
     7  C   -0.048468
     8  C    0.021385
     9  C   -0.394999
    10  C   -0.169351
    11  C   -0.390955
    12  C   -0.266953
    13  C   -0.210860
    14  C   -0.264322
    15  H    0.111275
    16  H    0.123480
    17  H    0.126343
    18  H    0.091391
    19  H    0.089735
    20  H    0.081237
    21  H    0.092451
    22  H    0.080603
    23  H    0.082157
    24  H    0.078412
    25  H    0.106412
    26  H    0.133575
    27  H    0.112153
    28  H    0.091615
    29  H    0.093463
    30  H    0.114271
    31  H    0.112056
    32  H    0.120192
    33  H    0.099341
    34  H    0.095901
    35  H    0.091274
    36  H    0.115897
    37  H    0.105056
    38  H    0.100365
 Sum of Mulliken charges =  -0.00000

 Dipole moment (field-independent basis, Debye):
    X=             -0.6003    Y=             -1.2664    Z=              0.6385  Tot=              1.5401
 Quadrupole moment (field-independent basis, Debye-Ang):
   XX=            -87.5299   YY=            -87.6571   ZZ=            -89.4507
   XY=             -0.7990   XZ=              2.8584   YZ=             -0.1023

  Exact polarizability: 166.060  -4.002 132.959  -0.578  -0.874 118.003
 Approx polarizability: 190.826  -2.587 188.033  -0.136  -0.725 182.836

                      1                      2                      3
                      A                      A                      A
 Frequencies --     27.9640                34.1392                50.2253
 Red. masses --      2.5502                 3.2479                 3.1086
 Frc consts  --      0.0012                 0.0022                 0.0046
 IR Inten    --      0.0426                 0.0866                 0.0068

                      4                      5                      6
                      A                      A                      A
 Frequencies --     62.1116                85.3872                99.7855
 Red. masses --      2.2733                 2.0212                 2.8920
 Frc consts  --      0.0052                 0.0087                 0.0170
 IR Inten    --      0.0521                 0.0367                 1.1595

                      7                      8                      9
                      A                      A                      A
 Frequencies --    119.4305               127.0865               145.7989
 Red. masses --      2.1493                 2.3036                 2.8591
 Frc consts  --      0.0181                 0.0219                 0.0358
 IR Inten    --      0.3075                 0.2598                 1.7192

                     10                     11                     12
                      A                      A                      A
 Frequencies --    171.3823               192.7925               211.5870
 Red. masses --      2.6986                 2.4972                 1.0904
 Frc consts  --      0.0467                 0.0547                 0.0288
 IR Inten    --      2.8155                 0.9695                 0.0237

                     13                     14                     15
                      A                      A                      A
 Frequencies --    234.8317               251.5760               258.4813
 Red. masses --      2.3835                 1.3605                 1.2555
 Frc consts  --      0.0774                 0.0507                 0.0494
 IR Inten    --      1.2466                 1.1323                 0.3141

                     16                     17                     18
                      A                      A                      A
 Frequencies --    287.2901               315.9632               337.5551
 Red. masses --      2.6562                 2.0550                 2.9675
 Frc consts  --      0.1292                 0.1209                 0.1992
 IR Inten    --      0.1818                 0.7684                 1.7476

                     19                     20                     21
                      A                      A                      A
 Frequencies --    381.0715               404.7285               429.9028
 Red. masses --      3.4909                 2.7151                 2.1895
 Frc consts  --      0.2987                 0.2620                 0.2384
 IR Inten    --      5.8202                 1.7925                 0.2043

                     22                     23                     24
                      A                      A                      A
 Frequencies --    457.2518               514.0287               543.9757
 Red. masses --      3.0484                 2.7486                 2.9247
 Frc consts  --      0.3755                 0.4279                 0.5099
 IR Inten    --      0.7438                 1.5863                 1.4245

                     25                     26                     27
                      A                      A                      A
 Frequencies --    663.7388               730.2188               776.5851
 Red. masses --      2.9559                 1.4855                 1.2694
 Frc consts  --      0.7672                 0.4667                 0.4511
 IR Inten    --      0.4304                 6.1910                 2.1271

                     28                     29                     30
                      A                      A                      A
 Frequencies --    779.9776               821.5288               834.0709
 Red. masses --      1.2589                 1.0921                 1.9973
 Frc consts  --      0.4512                 0.4343                 0.8186
 IR Inten    --      0.2383                 0.3322                 0.2445

                     31                     32                     33
                      A                      A                      A
 Frequencies --    862.0260               878.7983               918.2453
 Red. masses --      2.3433                 2.0945                 1.7974
 Frc consts  --      1.0259                 0.9531                 0.8929
 IR Inten    --      0.3429                 3.8513                 1.3015

                     34                     35                     36
                      A                      A                      A
 Frequencies --    928.5119               933.1226               945.9189
 Red. masses --      1.7174                 1.4485                 2.6087
 Frc consts  --      0.8724                 0.7431                 1.3752
 IR Inten    --      1.9081                 2.9529                 1.0164

                     37                     38                     39
                      A                      A                      A
 Frequencies --    958.3113               978.0785               978.4216
 Red. masses --      2.3068                 1.8594                 1.5474
 Frc consts  --      1.2482                 1.0480                 0.8728
 IR Inten    --      2.3901                 2.4004                12.3361

                     40                     41                     42
                      A                      A                      A
 Frequencies --   1019.5203              1033.9354              1056.4241
 Red. masses --      2.0252                 2.3918                 1.5074
 Frc consts  --      1.2402                 1.5065                 0.9912
 IR Inten    --     13.7012                 6.6510                 0.2872

                     43                     44                     45
                      A                      A                      A
 Frequencies --   1057.6302              1086.4499              1131.4930
 Red. masses --      2.0855                 3.5001                 2.2909
 Frc consts  --      1.3745                 2.4342                 1.7280
 IR Inten    --      6.4712                64.7923                35.0259

                     46                     47                     48
                      A                      A                      A
 Frequencies --   1148.4764              1160.8308              1164.0075
 Red. masses --      3.9427                 2.3837                 3.0816
 Frc consts  --      3.0640                 1.8925                 2.4600
 IR Inten    --    111.9287                32.7834               167.9836

                     49                     50                     51
                      A                      A                      A
 Frequencies --   1179.4655              1182.8852              1190.3514
 Red. masses --      2.0895                 2.3373                 1.9540
 Frc consts  --      1.7127                 1.9269                 1.6313
 IR Inten    --     25.0283                51.7780                54.2420

                     52                     53                     54
                      A                      A                      A
 Frequencies --   1195.2444              1198.8250              1216.7284
 Red. masses --      1.9779                 1.9511                 1.3743
 Frc consts  --      1.6648                 1.6521                 1.1987
 IR Inten    --      3.6228                 6.4971                 3.9835

                     55                     56                     57
                      A                      A                      A
 Frequencies --   1253.3926              1263.4998              1270.9664
 Red. masses --      1.2149                 1.1945                 1.2373
 Frc consts  --      1.1245                 1.1236                 1.1776
 IR Inten    --      0.5222                 7.7993                 3.8782

                     58                     59                     60
                      A                      A                      A
 Frequencies --   1274.5261              1293.5996              1296.6631
 Red. masses --      1.4052                 1.4018                 1.2594
 Frc consts  --      1.3449                 1.3821                 1.2476
 IR Inten    --     29.0728                 3.4321                 0.5896

                     61                     62                     63
                      A                      A                      A
 Frequencies --   1302.7673              1311.4480              1313.3573
 Red. masses --      1.3263                 1.4745                 1.2977
 Frc consts  --      1.3262                 1.4942                 1.3188
 IR Inten    --      7.1336                 2.6555                 1.7132

                     64                     65                     66
                      A                      A                      A
 Frequencies --   1377.9123              1381.4147              1394.0336
 Red. masses --      1.3506                 1.3415                 1.4018
 Frc consts  --      1.5109                 1.5084                 1.6050
 IR Inten    --      1.8015                 1.1382                15.6289

                     67                     68                     69
                      A                      A                      A
 Frequencies --   1399.4688              1407.5762              1413.2739
 Red. masses --      1.2311                 1.3390                 1.2248
 Frc consts  --      1.4206                 1.5630                 1.4414
 IR Inten    --      0.8998                 4.1256                 1.0737

                     70                     71                     72
                      A                      A                      A
 Frequencies --   1424.7177              1444.6735              1457.3058
 Red. masses --      1.3799                 1.4500                 1.0905
 Frc consts  --      1.6503                 1.7830                 1.3646
 IR Inten    --     21.6317                16.1713                 2.9932

                     73                     74                     75
                      A                      A                      A
 Frequencies --   1469.8324              1483.0656              1484.1039
 Red. masses --      1.0901                 1.0409                 1.0690
 Frc consts  --      1.3876                 1.3488                 1.3872
 IR Inten    --      2.5382                 3.9212                 0.5138

                     76                     77                     78
                      A                      A                      A
 Frequencies --   1493.4660              1496.0214              1499.4820
 Red. masses --      1.0581                 1.1333                 1.0444
 Frc consts  --      1.3905                 1.4945                 1.3835
 IR Inten    --      4.3599                 9.4106                 1.5135

                     79                     80                     81
                      A                      A                      A
 Frequencies --   1499.8461              1504.3991              1508.4945
 Red. masses --      1.0453                 1.0794                 1.0740
 Frc consts  --      1.3854                 1.4393                 1.4400
 IR Inten    --      5.8461                 5.1839                 5.7767

                     82                     83                     84
                      A                      A                      A
 Frequencies --   1511.8123              1526.9992              1528.5043
 Red. masses --      1.0474                 1.0899                 1.0868
 Frc consts  --      1.4104                 1.4973                 1.4960
 IR Inten    --      4.3588                 0.8441                 3.2948

                     85                     86                     87
                      A                      A                      A
 Frequencies --   2939.9740              2955.0393              2971.3472
 Red. masses --      1.0545                 1.0547                 1.1004
 Frc consts  --      5.3701                 5.4265                 5.7242
 IR Inten    --     28.7586                54.8973                34.8373

                     88                     89                     90
                      A                      A                      A
 Frequencies --   2975.6304              2989.4837              3004.7047
 Red. masses --      1.0645                 1.0963                 1.0712
 Frc consts  --      5.5533                 5.7724                 5.6982
 IR Inten    --     38.1832                62.7257                12.7357

                     91                     92                     93
                      A                      A                      A
 Frequencies --   3007.5210              3011.2249              3029.7588
 Red. masses --      1.1047                 1.0716                 1.0433
 Frc consts  --      5.8871                 5.7251                 5.6428
 IR Inten    --     34.2138                37.2365                18.5728

                     94                     95                     96
                      A                      A                      A
 Frequencies --   3033.6428              3042.5560              3043.2852
 Red. masses --      1.0385                 1.0346                 1.0977
 Frc consts  --      5.6310                 5.6430                 5.9899
 IR Inten    --     28.8581                21.8811                40.3943

                     97                     98                     99
                      A                      A                      A
 Frequencies --   3058.8791              3068.0227              3076.1640
 Red. masses --      1.0573                 1.0576                 1.0615
 Frc consts  --      5.8286                 5.8655                 5.9182
 IR Inten    --     37.8234                27.4173                33.7131

                    100                    101                    102
                      A                      A                      A
 Frequencies --   3098.5447              3098.9801              3108.9974
 Red. masses --      1.1007                 1.0958                 1.0997
 Frc consts  --      6.2265                 6.2004                 6.2627
 IR Inten    --     35.8106                33.7427                38.1292

                    103                    104                    105
                      A                      A                      A
 Frequencies --   3111.6415              3116.5562              3120.2871
 Red. masses --      1.1080                 1.1014                 1.1028
 Frc consts  --      6.3208                 6.3030                 6.3259
 IR Inten    --      8.9648                25.7980                26.6477

                    106                    107                    108
                      A                      A                      A
 Frequencies --   3123.1467              3126.8285              3140.1793
 Red. masses --      1.1084                 1.1004                 1.1065
 Frc consts  --      6.3700                 6.3390                 6.4287
 IR Inten    --      4.6304                23.4215                52.9998

 - Thermochemistry -
 -------------------
 Temperature   298.150 Kelvin.  Pressure   1.00000 Atm.
 Atom     1 has atomic number  6 and mass  12.00000

 Molecular mass:   200.17763 amu.
 Principal axes and moments of inertia in atomic units:
                           1         2         3
     Eigenvalues --  1272.541476975.153157648.26404
           X            0.99999  -0.00433   0.00244
           Y            0.00434   0.99996  -0.00737
           Z           -0.00241   0.00738   0.99997
 This molecule is an asymmetric top.
 Rotational symmetry number  1.
 Warning -- assumption of classical behavior for rotation
           may cause significant error
 Rotational temperatures (Kelvin)      0.06806     0.01242     0.01132
 Rotational constants (GHZ):           1.41822     0.25874     0.23597
 Zero-point vibrational energy     904934.2 (Joules/Mol)
                                  216.28447 (Kcal/Mol)
 Warning -- explicit consideration of  24 degrees of freedom as
           vibrations may cause significant error
 Vibrational temperatures:     40.23    49.12    72.26    89.36   122.85
          (Kelvin)            143.57   171.83   182.85   209.77   246.58
                              277.39   304.43   337.87   361.96   371.90
                              413.35   454.60   485.67   548.28   582.31
                              618.53   657.88   739.57   782.66   954.97
                             1050.62  1117.33  1122.21  1182.00  1200.04
                             1240.26  1264.39  1321.15  1335.92  1342.56
                             1360.97  1378.80  1407.24  1407.73  1466.86
                             1487.60  1519.96  1521.69  1563.16  1627.97
                             1652.40  1670.18  1674.75  1696.99  1701.91
                             1712.65  1719.69  1724.84  1750.60  1803.35
                             1817.89  1828.64  1833.76  1861.20  1865.61
                             1874.39  1886.88  1889.63  1982.51  1987.55
                             2005.70  2013.52  2025.19  2033.39  2049.85
                             2078.56  2096.74  2114.76  2133.80  2135.29
                             2148.76  2152.44  2157.42  2157.94  2164.49
                             2170.39  2175.16  2197.01  2199.18  4229.97
                             4251.64  4275.11  4281.27  4301.20  4323.10
                             4327.15  4332.48  4359.15  4364.74  4377.56
                             4378.61  4401.04  4414.20  4425.91  4458.11
                             4458.74  4473.15  4476.96  4484.03  4489.40
                             4493.51  4498.81  4518.02

 Zero-point correction=                           0.344671 (Hartree/Particle)
 Thermal correction to Energy=                    0.361953
 Thermal correction to Enthalpy=                  0.362897
 Thermal correction to Gibbs Free Energy=         0.298352
 Sum of electronic and zero-point Energies=           -621.846243
 Sum of electronic and thermal Energies=              -621.828962
 Sum of electronic and thermal Enthalpies=            -621.828017
 Sum of electronic and thermal Free Energies=         -621.892563

                     E (Thermal)             CV                S
                      KCal/Mol        Cal/Mol-Kelvin    Cal/Mol-Kelvin
 Total                  227.129             62.895            135.847
 Electronic               0.000              0.000              0.000
 Translational            0.889              2.981             41.787
 Rotational               0.889              2.981             32.584
 Vibrational            225.351             56.933             61.476
 Vibration     1          0.593              1.984              5.969
 Vibration     2          0.594              1.983              5.573
 Vibration     3          0.595              1.978              4.808
 Vibration     4          0.597              1.972              4.389
 Vibration     5          0.601              1.959              3.763
 Vibration     6          0.604              1.949              3.459
 Vibration     7          0.609              1.933              3.110
 Vibration     8          0.611              1.926              2.990
 Vibration     9          0.617              1.907              2.726
 Vibration    10          0.626              1.878              2.420
 Vibration    11          0.635              1.850              2.201
 Vibration    12          0.643              1.823              2.030
 Vibration    13          0.655              1.788              1.842
 Vibration    14          0.664              1.760              1.720
 Vibration    15          0.667              1.748              1.672
 Vibration    16          0.684              1.697              1.490
 Vibration    17          0.703              1.643              1.331
 Vibration    18          0.718              1.600              1.224
 Vibration    19          0.751              1.511              1.035
 Vibration    20          0.770              1.460              0.945
 Vibration    21          0.791              1.405              0.859
 Vibration    22          0.815              1.345              0.774
 Vibration    23          0.869              1.219              0.624
 Vibration    24          0.899              1.153              0.557

 Optimization completed.
    -- Stationary point found.
 Normal termination of Gaussian 16 at Sat May 27 14:14:32 2023.
