 Gaussian 16, Revision A.03,
 Gaussian 16:  ES64L-G16RevA.03 25-Dec-2016

 -----------------------------
 # opt freq b3lyp/6-31g(2df,p)
 -----------------------------

 -------------------
 Title Card Required
 -------------------
 Symbolic Z-matrix:
 Charge =  0 Multiplicity = 1

 SCF Done:  E(RB3LYP) =  -654.686386309     A.U. after   13 cycles
 SCF Done:  E(RB3LYP) =  -654.697139729     A.U. after   13 cycles
 SCF Done:  E(RB3LYP) =  -654.702732346     A.U. after   12 cycles
 SCF Done:  E(RB3LYP) =  -654.705074710     A.U. after   13 cycles
 SCF Done:  E(RB3LYP) =  -654.703725965     A.U. after   13 cycles
 SCF Done:  E(RB3LYP) =  -654.706323429     A.U. after   12 cycles
 SCF Done:  E(RB3LYP) =  -654.706478801     A.U. after   12 cycles
 SCF Done:  E(RB3LYP) =  -654.707299383     A.U. after   11 cycles
 SCF Done:  E(RB3LYP) =  -654.707937945     A.U. after   13 cycles
 SCF Done:  E(RB3LYP) =  -654.708120509     A.U. after   13 cycles
 SCF Done:  E(RB3LYP) =  -654.708174138     A.U. after   10 cycles
 SCF Done:  E(RB3LYP) =  -654.708186128     A.U. after    9 cycles
 SCF Done:  E(RB3LYP) =  -654.708189819     A.U. after   10 cycles
 SCF Done:  E(RB3LYP) =  -654.708191321     A.U. after    9 cycles
 SCF Done:  E(RB3LYP) =  -654.708191905     A.U. after    7 cycles
 SCF Done:  E(RB3LYP) =  -654.708192030     A.U. after    7 cycles
 SCF Done:  E(RB3LYP) =  -654.708192050     A.U. after    7 cycles
 Optimization completed.
    -- Stationary point found.
 Normal termination of Gaussian 16 at Mon May 22 16:44:35 2023.

 ----------------------------------------------------------------------
 #N Geom=AllCheck Guess=TCheck SCRF=Check GenChk RB3LYP/6-31G(2df,p) Fr
 eq
 ----------------------------------------------------------------------

 Structure from the checkpoint file:  "CCOCqOrCqOCrCqCrCCdO.chk"
 -------------------
 Title Card Required
 -------------------
 Charge =  0 Multiplicity = 1

                         Standard orientation:
 ---------------------------------------------------------------------
 Center     Atomic      Atomic             Coordinates (Angstroms)
 Number     Number       Type             X           Y           Z
 ---------------------------------------------------------------------
      1          6           0        4.665201    0.313074    0.106144
      2          6           0        3.489462   -0.394498   -0.543561
      3          8           0        2.298514   -0.015926    0.143958
      4          6           0        1.138887   -0.654940   -0.316995
      5          8           0        1.146904   -2.020814    0.034832
      6          6           0       -0.062670    0.153798    0.222300
      7          8           0        0.020707    1.449164   -0.356112
      8          6           0        0.577628    2.457301    0.467102
      9          6           0       -1.442084   -0.456799   -0.138189
     10          6           0       -1.771409   -1.731520    0.656587
     11          6           0       -2.560126    0.589229    0.063270
     12          6           0       -3.857962    0.165329   -0.577313
     13          8           0       -4.932926    0.140889   -0.034290
     14          1           0        5.596268    0.039435   -0.399087
     15          1           0        4.749385    0.033355    1.160280
     16          1           0        4.547067    1.398933    0.047615
     17          1           0        3.613165   -1.483830   -0.497362
     18          1           0        3.402779   -0.114432   -1.604814
     19          1           0        1.098257   -0.644351   -1.415887
     20          1           0        1.253113   -2.064946    0.993354
     21          1           0        0.026380    0.220925    1.319018
     22          1           0        0.538035    3.387253   -0.106282
     23          1           0        1.616588    2.235359    0.730012
     24          1           0       -0.006479    2.589730    1.390245
     25          1           0       -1.413345   -0.707632   -1.208867
     26          1           0       -1.736831   -1.534009    1.735210
     27          1           0       -1.078683   -2.540159    0.428877
     28          1           0       -2.786253   -2.072300    0.428176
     29          1           0       -2.250945    1.524169   -0.418390
     30          1           0       -2.740048    0.789462    1.124928
     31          1           0       -3.755602   -0.129311   -1.650205
 ---------------------------------------------------------------------

 SCF Done:  E(RB3LYP) =  -654.708192050     A.U. after    1 cycles

 The electronic state is 1-A.
 Alpha  occ. eigenvalues --  -19.15400 -19.15129 -19.14512 -19.13185 -10.28188
 Alpha  occ. eigenvalues --  -10.26434 -10.24055 -10.23404 -10.22342 -10.20153
 Alpha  occ. eigenvalues --  -10.18428 -10.18329 -10.17534  -1.07632  -1.03863
 Alpha  occ. eigenvalues --   -1.03424  -1.00695  -0.81772  -0.77197  -0.73491
 Alpha  occ. eigenvalues --   -0.70649  -0.67069  -0.63236  -0.62060  -0.58608
 Alpha  occ. eigenvalues --   -0.56793  -0.52824  -0.51275  -0.49466  -0.47641
 Alpha  occ. eigenvalues --   -0.47317  -0.45653  -0.44614  -0.44133  -0.43063
 Alpha  occ. eigenvalues --   -0.41876  -0.41043  -0.40082  -0.39287  -0.38772
 Alpha  occ. eigenvalues --   -0.37773  -0.37112  -0.36569  -0.35254  -0.34494
 Alpha  occ. eigenvalues --   -0.33680  -0.32154  -0.31575  -0.30259  -0.27545
 Alpha  occ. eigenvalues --   -0.25236  -0.24338
 Alpha virt. eigenvalues --   -0.01369   0.06950   0.08609   0.09382   0.10722
 Alpha virt. eigenvalues --    0.11679   0.12555   0.12895   0.13839   0.14697
 Alpha virt. eigenvalues --    0.14796   0.15166   0.15344   0.16159   0.16727

 Mulliken charges:
               1
     1  C   -0.389208
     2  C   -0.046810
     3  O   -0.246227
     4  C    0.195116
     5  O   -0.403445
     6  C    0.031555
     7  O   -0.245463
     8  C   -0.245281
     9  C   -0.006663
    10  C   -0.418186
    11  C   -0.280283
    12  C    0.158414
    13  O   -0.248650
    14  H    0.119821
    15  H    0.124584
    16  H    0.127460
    17  H    0.108346
    18  H    0.096488
    19  H    0.089798
    20  H    0.280812
    21  H    0.068267
    22  H    0.123023
    23  H    0.129782
    24  H    0.103792
    25  H    0.083593
    26  H    0.110386
    27  H    0.140193
    28  H    0.125534
    29  H    0.137700
    30  H    0.107995
    31  H    0.067558
 Sum of Mulliken charges =  -0.00000

 Dipole moment (field-independent basis, Debye):
    X=              4.0312    Y=              0.2329    Z=              0.4620  Tot=              4.0642
 Quadrupole moment (field-independent basis, Debye-Ang):
   XX=            -95.8336   YY=            -78.8804   ZZ=            -76.1887
   XY=              0.1460   XZ=              2.1691   YZ=             -1.1231

  Exact polarizability: 141.792   3.789 106.816  -1.562   0.588  96.098
 Approx polarizability: 169.555   3.479 149.526  -5.819   0.831 154.509

                      1                      2                      3
                      A                      A                      A
 Frequencies --     30.7475                31.4250                52.6241
 Red. masses --      3.2900                 3.9172                 4.4445
 Frc consts  --      0.0018                 0.0023                 0.0073
 IR Inten    --      0.3619                 0.2819                 3.2532

                      4                      5                      6
                      A                      A                      A
 Frequencies --     62.0877                75.6456                89.3856
 Red. masses --      2.8804                 3.0452                 2.3266
 Frc consts  --      0.0065                 0.0103                 0.0110
 IR Inten    --      0.9789                 2.1497                 4.0041

                      7                      8                      9
                      A                      A                      A
 Frequencies --    104.5156               139.3728               168.0062
 Red. masses --      2.1722                 2.8432                 1.4116
 Frc consts  --      0.0140                 0.0325                 0.0235
 IR Inten    --      3.2721                 0.1264                 1.4868

                     10                     11                     12
                      A                      A                      A
 Frequencies --    197.0718               217.5642               238.2654
 Red. masses --      1.6357                 2.0477                 2.9786
 Frc consts  --      0.0374                 0.0571                 0.0996
 IR Inten    --      1.4674                 2.2316                 0.2745

                     13                     14                     15
                      A                      A                      A
 Frequencies --    251.7034               272.9433               282.9975
 Red. masses --      1.3872                 2.7621                 2.5076
 Frc consts  --      0.0518                 0.1212                 0.1183
 IR Inten    --      1.2957                 0.2781                 7.0005

                     16                     17                     18
                      A                      A                      A
 Frequencies --    298.3756               354.6866               386.9642
 Red. masses --      3.0975                 2.5765                 1.6188
 Frc consts  --      0.1625                 0.1910                 0.1428
 IR Inten    --      4.8076                60.1055                30.3539

                     19                     20                     21
                      A                      A                      A
 Frequencies --    403.3854               419.9188               469.0440
 Red. masses --      2.4442                 2.6083                 3.1817
 Frc consts  --      0.2343                 0.2710                 0.4124
 IR Inten    --     20.0353                34.7564                 2.8738

                     22                     23                     24
                      A                      A                      A
 Frequencies --    496.6288               548.2692               562.6365
 Red. masses --      3.7525                 2.9725                 3.0355
 Frc consts  --      0.5453                 0.5265                 0.5662
 IR Inten    --      9.1385                27.5739                14.0339

                     25                     26                     27
                      A                      A                      A
 Frequencies --    639.6289               788.3963               819.8415
 Red. masses --      3.8053                 1.7695                 1.0891
 Frc consts  --      0.9173                 0.6480                 0.4313
 IR Inten    --     28.8718                 0.6270                 0.3340

                     28                     29                     30
                      A                      A                      A
 Frequencies --    881.0989               910.7141               940.9957
 Red. masses --      2.0789                 1.6837                 1.8305
 Frc consts  --      0.9509                 0.8228                 0.9550
 IR Inten    --      4.5674                 0.7802                14.4179

                     31                     32                     33
                      A                      A                      A
 Frequencies --    949.4911               987.0746              1008.2640
 Red. masses --      1.7469                 3.4631                 3.0219
 Frc consts  --      0.9279                 1.9880                 1.8100
 IR Inten    --      0.9339                41.4742                15.8177

                     34                     35                     36
                      A                      A                      A
 Frequencies --   1025.4292              1051.4666              1087.3520
 Red. masses --      2.6785                 3.9724                 3.6183
 Frc consts  --      1.6594                 2.5876                 2.5205
 IR Inten    --     49.3793                64.1333                70.3373

                     37                     38                     39
                      A                      A                      A
 Frequencies --   1116.0165              1117.5281              1131.6755
 Red. masses --      2.8407                 3.7448                 2.3208
 Frc consts  --      2.0846                 2.7555                 1.7512
 IR Inten    --     37.4836               188.8334                53.6341

                     40                     41                     42
                      A                      A                      A
 Frequencies --   1142.4441              1165.3266              1170.7772
 Red. masses --      3.3545                 2.0572                 3.0498
 Frc consts  --      2.5795                 1.6460                 2.4630
 IR Inten    --    130.8227                31.2576                63.7511

                     43                     44                     45
                      A                      A                      A
 Frequencies --   1180.0722              1187.2592              1206.8076
 Red. masses --      1.2707                 1.5373                 1.2850
 Frc consts  --      1.0426                 1.2768                 1.1026
 IR Inten    --      0.7730                 5.5425                38.0565

                     46                     47                     48
                      A                      A                      A
 Frequencies --   1220.7605              1239.8040              1280.2953
 Red. masses --      1.4858                 1.3664                 1.4864
 Frc consts  --      1.3046                 1.2375                 1.4355
 IR Inten    --      8.1898                 9.6487                13.4753

                     49                     50                     51
                      A                      A                      A
 Frequencies --   1294.9971              1314.8637              1343.8216
 Red. masses --      1.1055                 1.3591                 1.2958
 Frc consts  --      1.0923                 1.3844                 1.3787
 IR Inten    --      1.0364                14.2227                 7.4407

                     52                     53                     54
                      A                      A                      A
 Frequencies --   1363.1209              1380.0574              1384.8298
 Red. masses --      1.3281                 1.4162                 1.2709
 Frc consts  --      1.4539                 1.5892                 1.4360
 IR Inten    --      6.9271                 7.6571                30.7518

                     55                     56                     57
                      A                      A                      A
 Frequencies --   1404.8456              1414.0735              1418.5017
 Red. masses --      1.2631                 1.2169                 1.2502
 Frc consts  --      1.4687                 1.4337                 1.4821
 IR Inten    --      7.0165                16.2118                31.1237

                     58                     59                     60
                      A                      A                      A
 Frequencies --   1431.1166              1439.6819              1467.6580
 Red. masses --      1.1930                 1.3937                 1.0950
 Frc consts  --      1.4397                 1.7020                 1.3897
 IR Inten    --      3.8065                 7.0633                 4.1983

                     61                     62                     63
                      A                      A                      A
 Frequencies --   1476.9286              1483.9390              1484.8467
 Red. masses --      1.1542                 1.0483                 1.0452
 Frc consts  --      1.4834                 1.3600                 1.3577
 IR Inten    --      2.9123                 2.5055                 2.9536

                     64                     65                     66
                      A                      A                      A
 Frequencies --   1494.5459              1500.4889              1517.1131
 Red. masses --      1.0494                 1.0472                 1.0499
 Frc consts  --      1.3810                 1.3892                 1.4237
 IR Inten    --      2.5469                 1.9538                 3.8891

                     67                     68                     69
                      A                      A                      A
 Frequencies --   1518.5861              1528.9364              1832.0287
 Red. masses --      1.0484                 1.0882                10.1410
 Frc consts  --      1.4245                 1.4988                20.0538
 IR Inten    --      6.5863                 1.8746               201.1966

                     70                     71                     72
                      A                      A                      A
 Frequencies --   2836.6750              2972.1270              2987.0448
 Red. masses --      1.0808                 1.0796                 1.0642
 Frc consts  --      5.1243                 5.6186                 5.5943
 IR Inten    --    106.7964                 8.4807                42.0270

                     73                     74                     75
                      A                      A                      A
 Frequencies --   2991.5675              3000.5949              3015.1581
 Red. masses --      1.0470                 1.0818                 1.0848
 Frc consts  --      5.5208                 5.7385                 5.8104
 IR Inten    --     46.4723                 8.1439                59.9437

                     76                     77                     78
                      A                      A                      A
 Frequencies --   3031.7075              3039.2955              3042.8661
 Red. masses --      1.0445                 1.0559                 1.0935
 Frc consts  --      5.6561                 5.7469                 5.9652
 IR Inten    --     23.4706                22.2611                23.0981

                     79                     80                     81
                      A                      A                      A
 Frequencies --   3043.7275              3076.9146              3091.2178
 Red. masses --      1.0378                 1.0865                 1.0981
 Frc consts  --      5.6645                 6.0606                 6.1825
 IR Inten    --     16.7991                40.2246                16.0042

                     82                     83                     84
                      A                      A                      A
 Frequencies --   3095.1205              3118.0849              3118.5105
 Red. masses --      1.1029                 1.1031                 1.1024
 Frc consts  --      6.2252                 6.3190                 6.3165
 IR Inten    --     27.8444                26.6930                21.5872

                     85                     86                     87
                      A                      A                      A
 Frequencies --   3119.5265              3160.3091              3784.1949
 Red. masses --      1.1029                 1.0961                 1.0652
 Frc consts  --      6.3234                 6.4499                 8.9875
 IR Inten    --     26.4627                 6.7453                20.6766

 - Thermochemistry -
 -------------------
 Temperature   298.150 Kelvin.  Pressure   1.00000 Atm.
 Atom     1 has atomic number  6 and mass  12.00000

 Molecular mass:   190.12051 amu.
 Principal axes and moments of inertia in atomic units:
                           1         2         3
     Eigenvalues --  1116.648315100.465245927.05584
           X            0.99996   0.00911  -0.00121
           Y           -0.00910   0.99993   0.00733
           Z            0.00127  -0.00732   0.99997
 This molecule is an asymmetric top.
 Rotational symmetry number  1.
 Warning -- assumption of classical behavior for rotation
           may cause significant error
 Rotational temperatures (Kelvin)      0.07757     0.01698     0.01461
 Rotational constants (GHZ):           1.61621     0.35384     0.30449
 Zero-point vibrational energy     702342.0 (Joules/Mol)
                                  167.86376 (Kcal/Mol)
 Warning -- explicit consideration of  24 degrees of freedom as
           vibrations may cause significant error
 Vibrational temperatures:     44.24    45.21    75.71    89.33   108.84
          (Kelvin)            128.61   150.37   200.53   241.72   283.54
                              313.03   342.81   362.15   392.70   407.17
                              429.30   510.31   556.76   580.38   604.17
                              674.85   714.54   788.84   809.51   920.28
                             1134.33  1179.57  1267.70  1310.31  1353.88
                             1366.11  1420.18  1450.67  1475.36  1512.83
                             1564.46  1605.70  1607.87  1628.23  1643.72
                             1676.65  1684.49  1697.86  1708.20  1736.33
                             1756.40  1783.80  1842.06  1863.21  1891.80
                             1933.46  1961.23  1985.59  1992.46  2021.26
                             2034.54  2040.91  2059.06  2071.38  2111.63
                             2124.97  2135.06  2136.36  2150.32  2158.87
                             2182.79  2184.91  2199.80  2635.88  4081.34
                             4276.23  4297.69  4304.20  4317.19  4338.14
                             4361.95  4372.87  4378.01  4379.25  4426.99
                             4447.57  4453.19  4486.23  4486.84  4488.30
                             4546.98  5444.61

 Zero-point correction=                           0.267508 (Hartree/Particle)
 Thermal correction to Energy=                    0.283813
 Thermal correction to Enthalpy=                  0.284757
 Thermal correction to Gibbs Free Energy=         0.222167
 Sum of electronic and zero-point Energies=           -654.440684
 Sum of electronic and thermal Energies=              -654.424380
 Sum of electronic and thermal Enthalpies=            -654.423435
 Sum of electronic and thermal Free Energies=         -654.486025

                     E (Thermal)             CV                S
                      KCal/Mol        Cal/Mol-Kelvin    Cal/Mol-Kelvin
 Total                  178.095             57.100            131.731
 Electronic               0.000              0.000              0.000
 Translational            0.889              2.981             41.633
 Rotational               0.889              2.981             31.890
 Vibrational            176.318             51.138             58.208
 Vibration     1          0.594              1.984              5.781
 Vibration     2          0.594              1.983              5.737
 Vibration     3          0.596              1.977              4.716
 Vibration     4          0.597              1.972              4.390
 Vibration     5          0.599              1.965              4.001
 Vibration     6          0.602              1.957              3.673
 Vibration     7          0.605              1.946              3.368
 Vibration     8          0.615              1.914              2.812
 Vibration     9          0.625              1.882              2.458
 Vibration    10          0.636              1.844              2.160
 Vibration    11          0.646              1.814              1.979
 Vibration    12          0.656              1.782              1.816
 Vibration    13          0.664              1.760              1.719
 Vibration    14          0.676              1.723              1.577
 Vibration    15          0.682              1.705              1.515
 Vibration    16          0.691              1.677              1.426
 Vibration    17          0.731              1.566              1.145
 Vibration    18          0.755              1.498              1.012
 Vibration    19          0.769              1.463              0.950
 Vibration    20          0.783              1.427              0.892
 Vibration    21          0.826              1.319              0.740
 Vibration    22          0.852              1.257              0.667
 Vibration    23          0.904              1.143              0.548
 Vibration    24          0.918              1.112              0.519

                           ! Non-Optimized Parameters !
 Normal termination of Gaussian 16 at Mon May 22 18:22:21 2023.
