 Gaussian 16, Revision A.03,
 Gaussian 16:  ES64L-G16RevA.03 25-Dec-2016

 -----------------------------
 # opt freq b3lyp/6-31g(2df,p)
 -----------------------------

 -------------------
 Title Card Required
 -------------------
 Symbolic Z-matrix:
 Charge =  0 Multiplicity = 1

 SCF Done:  E(RB3LYP) =  -884.854705473     A.U. after   13 cycles
 SCF Done:  E(RB3LYP) =  -884.865277333     A.U. after   12 cycles
 SCF Done:  E(RB3LYP) =  -884.867864647     A.U. after   11 cycles
 SCF Done:  E(RB3LYP) =  -884.868968610     A.U. after   11 cycles
 SCF Done:  E(RB3LYP) =  -884.869330480     A.U. after   10 cycles
 SCF Done:  E(RB3LYP) =  -884.869492607     A.U. after   10 cycles
 SCF Done:  E(RB3LYP) =  -884.869673791     A.U. after   11 cycles
 SCF Done:  E(RB3LYP) =  -884.869686640     A.U. after   11 cycles
 SCF Done:  E(RB3LYP) =  -884.869801002     A.U. after   10 cycles
 SCF Done:  E(RB3LYP) =  -884.869857988     A.U. after   13 cycles
 SCF Done:  E(RB3LYP) =  -884.869996270     A.U. after   10 cycles
 SCF Done:  E(RB3LYP) =  -884.870022965     A.U. after   11 cycles
 SCF Done:  E(RB3LYP) =  -884.870022581     A.U. after   10 cycles
 SCF Done:  E(RB3LYP) =  -884.870037609     A.U. after   10 cycles
 SCF Done:  E(RB3LYP) =  -884.870039762     A.U. after    9 cycles
 SCF Done:  E(RB3LYP) =  -884.870045896     A.U. after   10 cycles
 SCF Done:  E(RB3LYP) =  -884.870046211     A.U. after    7 cycles
 SCF Done:  E(RB3LYP) =  -884.870046225     A.U. after    6 cycles
 SCF Done:  E(RB3LYP) =  -884.870046227     A.U. after    7 cycles
 Optimization completed.
    -- Stationary point found.
 Normal termination of Gaussian 16 at Wed May 24 02:28:54 2023.

 ----------------------------------------------------------------------
 #N Geom=AllCheck Guess=TCheck SCRF=Check GenChk RB3LYP/6-31G(2df,p) Fr
 eq
 ----------------------------------------------------------------------

 Structure from the checkpoint file:  "CCOCCOCCCqCOOCOCrOC.chk"
 -------------------
 Title Card Required
 -------------------
 Charge =  0 Multiplicity = 1

                         Standard orientation:
 ---------------------------------------------------------------------
 Center     Atomic      Atomic             Coordinates (Angstroms)
 Number     Number       Type             X           Y           Z
 ---------------------------------------------------------------------
      1          6           0        7.030073    1.121071    0.316781
      2          6           0        6.112520    0.061813   -0.269832
      3          8           0        4.796042    0.304884    0.181537
      4          6           0        3.858785   -0.625853   -0.306371
      5          6           0        2.497077   -0.251653    0.258806
      6          8           0        1.558167   -1.176922   -0.236934
      7          6           0        0.243177   -0.938544    0.222992
      8          6           0       -0.661394   -1.990640   -0.408973
      9          6           0       -2.104918   -1.995201    0.096140
     10          6           0       -2.901425   -0.719524   -0.233094
     11          8           0       -2.518815    0.278871    0.703890
     12          8           0       -3.374889    1.418412    0.465148
     13          6           0       -2.498006    2.466423    0.099372
     14          8           0       -3.345170    3.538707   -0.143439
     15          6           0       -2.643230    4.727606   -0.436456
     16          8           0       -2.742488   -3.100422   -0.529621
     17          6           0       -3.791204   -3.677455    0.217008
     18          1           0        8.060120    0.959665   -0.014835
     19          1           0        7.007101    1.085835    1.409696
     20          1           0        6.715292    2.119491   -0.000003
     21          1           0        6.438814   -0.946569    0.037000
     22          1           0        6.146513    0.087043   -1.372443
     23          1           0        4.117511   -1.652466    0.000195
     24          1           0        3.818240   -0.613199   -1.407837
     25          1           0        2.241560    0.777457   -0.042237
     26          1           0        2.534644   -0.271218    1.360076
     27          1           0       -0.077052    0.079079   -0.044125
     28          1           0        0.204573   -1.004245    1.323921
     29          1           0       -0.234719   -2.978015   -0.206222
     30          1           0       -0.665097   -1.865768   -1.497796
     31          1           0       -2.113188   -2.124017    1.190521
     32          1           0       -3.975122   -0.914215   -0.134299
     33          1           0       -2.699467   -0.391080   -1.261308
     34          1           0       -1.921187    2.184370   -0.801198
     35          1           0       -1.794770    2.677130    0.925200
     36          1           0       -3.390205    5.505868   -0.602071
     37          1           0       -2.027479    4.625042   -1.343094
     38          1           0       -1.989212    5.029350    0.395650
     39          1           0       -4.175569   -4.516005   -0.368669
     40          1           0       -4.617535   -2.975809    0.403034
     41          1           0       -3.435269   -4.054219    1.187951
 ---------------------------------------------------------------------

 SCF Done:  E(RB3LYP) =  -884.870046227     A.U. after    1 cycles

 The electronic state is 1-A.
 Alpha  occ. eigenvalues --  -19.19924 -19.19451 -19.15470 -19.14489 -19.13778
 Alpha  occ. eigenvalues --  -19.13683 -10.28029 -10.24143 -10.23600 -10.23185
 Alpha  occ. eigenvalues --  -10.22771 -10.22700 -10.22540 -10.22343 -10.22299
 Alpha  occ. eigenvalues --  -10.18001 -10.17484  -1.13037  -1.05398  -1.03765
 Alpha  occ. eigenvalues --   -1.03637  -1.02750  -0.92420  -0.79538  -0.76995
 Alpha  occ. eigenvalues --   -0.73453  -0.71538  -0.69346  -0.67424  -0.63660
 Alpha  occ. eigenvalues --   -0.62685  -0.60422  -0.60148  -0.58169  -0.53624
 Alpha  occ. eigenvalues --   -0.51262  -0.50640  -0.50283  -0.49699  -0.49166
 Alpha  occ. eigenvalues --   -0.47617  -0.47428  -0.46517  -0.45176  -0.44902
 Alpha  occ. eigenvalues --   -0.44243  -0.43935  -0.43388  -0.42728  -0.40708
 Alpha  occ. eigenvalues --   -0.40513  -0.39120  -0.38228  -0.38191  -0.36753
 Alpha  occ. eigenvalues --   -0.35966  -0.34816  -0.34275  -0.33870  -0.33357
 Alpha  occ. eigenvalues --   -0.31943  -0.31678  -0.31223  -0.29990  -0.27120
 Alpha  occ. eigenvalues --   -0.26305  -0.25623  -0.25171  -0.24883
 Alpha virt. eigenvalues --    0.02228   0.07740   0.08543   0.08737   0.09221
 Alpha virt. eigenvalues --    0.09986   0.11627   0.11902   0.12568   0.13165
 Alpha virt. eigenvalues --    0.13981   0.14552   0.14679   0.15136   0.15215

 Mulliken charges:
               1
     1  C   -0.384812
     2  C   -0.024608
     3  O   -0.246192
     4  C   -0.069045
     5  C   -0.069477
     6  O   -0.250441
     7  C   -0.067714
     8  C   -0.213499
     9  C    0.072784
    10  C   -0.040938
    11  O   -0.193358
    12  O   -0.173351
    13  C    0.090264
    14  O   -0.219801
    15  C   -0.232717
    16  O   -0.244702
    17  C   -0.243751
    18  H    0.114400
    19  H    0.126309
    20  H    0.125554
    21  H    0.085928
    22  H    0.085470
    23  H    0.093850
    24  H    0.093283
    25  H    0.091233
    26  H    0.094574
    27  H    0.097049
    28  H    0.089508
    29  H    0.115263
    30  H    0.112010
    31  H    0.080935
    32  H    0.115586
    33  H    0.103180
    34  H    0.081266
    35  H    0.089437
    36  H    0.138780
    37  H    0.112280
    38  H    0.114204
    39  H    0.130948
    40  H    0.110612
    41  H    0.109696
 Sum of Mulliken charges =  -0.00000

 Dipole moment (field-independent basis, Debye):
    X=              1.1898    Y=              0.5009    Z=             -0.3120  Tot=              1.3282
 Quadrupole moment (field-independent basis, Debye-Ang):
   XX=           -103.0423   YY=            -94.7920   ZZ=           -105.0299
   XY=              4.9075   XZ=             -0.8251   YZ=             -6.1868

  Exact polarizability: 172.090  10.105 169.162   0.173  -0.912 120.055
 Approx polarizability: 201.384  -0.097 211.730  -0.207   0.603 187.231

                      1                      2                      3
                      A                      A                      A
 Frequencies --     13.8330                22.3265                27.6985
 Red. masses --      4.0475                 2.5908                 3.8903
 Frc consts  --      0.0005                 0.0008                 0.0018
 IR Inten    --      0.3935                 1.7018                 0.5104

                      4                      5                      6
                      A                      A                      A
 Frequencies --     30.6872                41.5264                45.3227
 Red. masses --      2.2314                 3.1657                 4.1876
 Frc consts  --      0.0012                 0.0032                 0.0051
 IR Inten    --      1.1557                 1.9991                 1.1985

                      7                      8                      9
                      A                      A                      A
 Frequencies --     57.5965                73.2055                84.4321
 Red. masses --      2.6445                 3.1517                 2.0485
 Frc consts  --      0.0052                 0.0100                 0.0086
 IR Inten    --      0.6640                 1.5614                 4.3536

                     10                     11                     12
                      A                      A                      A
 Frequencies --     92.0218               107.5907               115.8809
 Red. masses --      2.3050                 3.4555                 2.8070
 Frc consts  --      0.0115                 0.0236                 0.0222
 IR Inten    --      0.5592                 2.8300                 0.4734

                     13                     14                     15
                      A                      A                      A
 Frequencies --    123.7425               129.5347               160.2775
 Red. masses --      2.1099                 2.1474                 2.8255
 Frc consts  --      0.0190                 0.0212                 0.0428
 IR Inten    --      0.4927                 0.2231                 7.1278

                     16                     17                     18
                      A                      A                      A
 Frequencies --    166.0879               188.0350               205.4566
 Red. masses --      2.4440                 2.2540                 2.5539
 Frc consts  --      0.0397                 0.0470                 0.0635
 IR Inten    --      0.0691                 1.9471                 1.1255

                     19                     20                     21
                      A                      A                      A
 Frequencies --    217.9332               230.2975               246.9099
 Red. masses --      2.4334                 2.0898                 1.1631
 Frc consts  --      0.0681                 0.0653                 0.0418
 IR Inten    --      2.0226                 2.6587                 0.6629

                     22                     23                     24
                      A                      A                      A
 Frequencies --    256.3928               290.7524               333.8818
 Red. masses --      3.4922                 4.7387                 2.6905
 Frc consts  --      0.1353                 0.2360                 0.1767
 IR Inten    --      5.4673                 1.0513                 0.4238

                     25                     26                     27
                      A                      A                      A
 Frequencies --    366.4463               411.6162               435.7024
 Red. masses --      3.8214                 4.2298                 3.8731
 Frc consts  --      0.3023                 0.4222                 0.4332
 IR Inten    --      5.5457                 3.6062                 1.0560

                     28                     29                     30
                      A                      A                      A
 Frequencies --    466.9016               502.3319               533.3234
 Red. masses --      3.3191                 4.2742                 3.6757
 Frc consts  --      0.4263                 0.6355                 0.6160
 IR Inten    --      2.1442                 7.5471                 7.4855

                     31                     32                     33
                      A                      A                      A
 Frequencies --    546.0835               563.0777               803.3300
 Red. masses --      4.8483                 2.7237                 1.1689
 Frc consts  --      0.8518                 0.5088                 0.4444
 IR Inten    --      3.8809                 3.4240                 0.6681

                     34                     35                     36
                      A                      A                      A
 Frequencies --    819.4473               836.3168               895.7429
 Red. masses --      1.0803                 1.0988                 2.1729
 Frc consts  --      0.4274                 0.4528                 1.0272
 IR Inten    --      0.3799                 0.0223                 9.7942

                     37                     38                     39
                      A                      A                      A
 Frequencies --    912.1477               940.5337               968.8366
 Red. masses --      2.3619                 6.3382                 1.5131
 Frc consts  --      1.1578                 3.3034                 0.8368
 IR Inten    --      0.3477                17.4593                 0.4705

                     40                     41                     42
                      A                      A                      A
 Frequencies --    987.2813              1025.2332              1027.7995
 Red. masses --      4.2076                 4.5143                 4.7669
 Frc consts  --      2.4164                 2.7957                 2.9669
 IR Inten    --      3.3706                47.0280                36.9549

                     43                     44                     45
                      A                      A                      A
 Frequencies --   1050.8006              1054.3709              1071.5242
 Red. masses --      3.6092                 4.1284                 3.1571
 Frc consts  --      2.3480                 2.7041                 2.1357
 IR Inten    --      5.6049                42.9455                 6.2658

                     46                     47                     48
                      A                      A                      A
 Frequencies --   1102.4818              1117.2492              1134.3163
 Red. masses --      3.0655                 3.1017                 3.9169
 Frc consts  --      2.1953                 2.2811                 2.9693
 IR Inten    --     46.0862                91.7333                89.7920

                     49                     50                     51
                      A                      A                      A
 Frequencies --   1141.6458              1156.5882              1158.3149
 Red. masses --      2.9620                 1.4736                 2.1606
 Frc consts  --      2.2745                 1.1614                 1.7080
 IR Inten    --     57.0951                25.6579                17.9160

                     52                     53                     54
                      A                      A                      A
 Frequencies --   1160.9548              1167.0884              1169.3912
 Red. masses --      3.1340                 3.3220                 2.4430
 Frc consts  --      2.4887                 2.6660                 1.9683
 IR Inten    --     92.3521               121.6558               207.3801

                     55                     56                     57
                      A                      A                      A
 Frequencies --   1174.5599              1178.7442              1185.2257
 Red. masses --      2.4092                 3.9112                 1.4443
 Frc consts  --      1.9582                 3.2019                 1.1954
 IR Inten    --      4.6403               308.2098                11.2721

                     58                     59                     60
                      A                      A                      A
 Frequencies --   1192.7336              1194.3612              1216.6156
 Red. masses --      1.3628                 1.5346                 1.3235
 Frc consts  --      1.1423                 1.2897                 1.1542
 IR Inten    --     15.5922                 1.2584                 3.3909

                     61                     62                     63
                      A                      A                      A
 Frequencies --   1224.6066              1225.0407              1235.8156
 Red. masses --      1.2973                 1.2106                 1.2058
 Frc consts  --      1.1463                 1.0704                 1.0850
 IR Inten    --     10.6291                12.4520                14.5147

                     64                     65                     66
                      A                      A                      A
 Frequencies --   1253.4852              1265.9866              1290.4852
 Red. masses --      2.2297                 1.2779                 1.0948
 Frc consts  --      2.0641                 1.2067                 1.0742
 IR Inten    --     70.2499                 6.4448                 0.0218

                     67                     68                     69
                      A                      A                      A
 Frequencies --   1296.1232              1297.2329              1308.9746
 Red. masses --      1.1034                 1.2772                 1.1418
 Frc consts  --      1.0921                 1.2663                 1.1527
 IR Inten    --      2.1218                 3.0325                 1.3724

                     70                     71                     72
                      A                      A                      A
 Frequencies --   1343.4032              1348.6903              1391.1080
 Red. masses --      1.2210                 1.2427                 1.4139
 Frc consts  --      1.2983                 1.3318                 1.6121
 IR Inten    --     12.5928                71.0114                11.9585

                     73                     74                     75
                      A                      A                      A
 Frequencies --   1397.0778              1406.4125              1413.1377
 Red. masses --      1.2955                 1.3217                 1.3861
 Frc consts  --      1.4898                 1.5403                 1.6309
 IR Inten    --      0.7869                 4.2375                 2.6027

                     76                     77                     78
                      A                      A                      A
 Frequencies --   1438.4527              1439.7158              1468.4824
 Red. masses --      1.2063                 1.4545                 1.5876
 Frc consts  --      1.4706                 1.7763                 2.0172
 IR Inten    --     75.5156                52.0660                 0.0378

                     79                     80                     81
                      A                      A                      A
 Frequencies --   1480.2897              1483.4520              1485.7862
 Red. masses --      1.1280                 1.0406                 1.1129
 Frc consts  --      1.4563                 1.3492                 1.4475
 IR Inten    --      1.0642                 4.0488                 9.4697

                     82                     83                     84
                      A                      A                      A
 Frequencies --   1487.6491              1488.3243              1492.4733
 Red. masses --      1.0611                 1.0902                 1.0869
 Frc consts  --      1.3835                 1.4228                 1.4265
 IR Inten    --      0.2670                 7.4076                 3.4110

                     85                     86                     87
                      A                      A                      A
 Frequencies --   1499.7025              1508.5197              1509.1931
 Red. masses --      1.0484                 1.0687                 1.0635
 Frc consts  --      1.3893                 1.4329                 1.4272
 IR Inten    --      2.3225                 1.4341                 7.4784

                     88                     89                     90
                      A                      A                      A
 Frequencies --   1513.6769              1518.4231              1520.0399
 Red. masses --      1.0813                 1.0878                 1.0861
 Frc consts  --      1.4597                 1.4777                 1.4785
 IR Inten    --      0.2741                14.6160                11.4910

                     91                     92                     93
                      A                      A                      A
 Frequencies --   1535.4453              1540.6594              1552.4703
 Red. masses --      1.0945                 1.0901                 1.0916
 Frc consts  --      1.5203                 1.5244                 1.5501
 IR Inten    --      1.8531                 1.1161                 0.3109

                     94                     95                     96
                      A                      A                      A
 Frequencies --   2921.0701              2950.7310              2956.0492
 Red. masses --      1.0507                 1.0542                 1.1024
 Frc consts  --      5.2823                 5.4082                 5.6756
 IR Inten    --     46.5894                31.7595                52.6360

                     97                     98                     99
                      A                      A                      A
 Frequencies --   2957.0301              2966.8694              2971.2932
 Red. masses --      1.0671                 1.0573                 1.0561
 Frc consts  --      5.4976                 5.4834                 5.4935
 IR Inten    --     41.2755                 2.2043               110.3172

                    100                    101                    102
                      A                      A                      A
 Frequencies --   2974.9210              2976.8507              2980.2385
 Red. masses --      1.0653                 1.1052                 1.0374
 Frc consts  --      5.5548                 5.7706                 5.4288
 IR Inten    --     22.2295                57.0229                66.5272

                    103                    104                    105
                      A                      A                      A
 Frequencies --   2983.2898              2984.8980              3010.7878
 Red. masses --      1.0512                 1.1034                 1.0954
 Frc consts  --      5.5121                 5.7922                 5.8501
 IR Inten    --     62.2488                 1.0832                97.1396

                    106                    107                    108
                      A                      A                      A
 Frequencies --   3012.5664              3015.4278              3027.0778
 Red. masses --      1.1066                 1.0589                 1.1036
 Frc consts  --      5.9172                 5.6727                 5.9580
 IR Inten    --     40.8887                27.1366                52.2283

                    109                    110                    111
                      A                      A                      A
 Frequencies --   3029.0189              3044.2356              3046.5943
 Red. masses --      1.1026                 1.0347                 1.0598
 Frc consts  --      5.9602                 5.6494                 5.7959
 IR Inten    --     57.3704                18.0905                21.1183

                    112                    113                    114
                      A                      A                      A
 Frequencies --   3069.0322              3094.2056              3115.4822
 Red. masses --      1.1047                 1.1034                 1.0967
 Frc consts  --      6.1304                 6.2240                 6.2715
 IR Inten    --     41.6683                30.2964                29.2774

                    115                    116                    117
                      A                      A                      A
 Frequencies --   3118.8174              3120.4700              3129.9655
 Red. masses --      1.1015                 1.1026                 1.0963
 Frc consts  --      6.3125                 6.3259                 6.3282
 IR Inten    --     26.0450                26.5550                23.6514

 - Thermochemistry -
 -------------------
 Temperature   298.150 Kelvin.  Pressure   1.00000 Atm.
 Atom     1 has atomic number  6 and mass  12.00000

 Molecular mass:   252.15729 amu.
 Principal axes and moments of inertia in atomic units:
                           1         2         3
     Eigenvalues --  4504.64599********************
           X            0.99991   0.01338   0.00047
           Y           -0.01338   0.99988  -0.00780
           Z           -0.00057   0.00779   0.99997
 This molecule is an asymmetric top.
 Rotational symmetry number  1.
 Warning -- assumption of classical behavior for rotation
           may cause significant error
 Rotational temperatures (Kelvin)      0.01923     0.00755     0.00554
 Rotational constants (GHZ):           0.40064     0.15727     0.11543
 Zero-point vibrational energy     933373.1 (Joules/Mol)
                                  223.08153 (Kcal/Mol)
 Warning -- explicit consideration of  32 degrees of freedom as
           vibrations may cause significant error
 Vibrational temperatures:     19.90    32.12    39.85    44.15    59.75
          (Kelvin)             65.21    82.87   105.33   121.48   132.40
                              154.80   166.73   178.04   186.37   230.60
                              238.96   270.54   295.61   313.56   331.35
                              355.25   368.89   418.33   480.38   527.23
                              592.22   626.88   671.77   722.74   767.33
                              785.69   810.14  1155.81  1179.00  1203.27
                             1288.77  1312.38  1353.22  1393.94  1420.48
                             1475.08  1478.77  1511.87  1517.00  1541.68
                             1586.23  1607.47  1632.03  1642.57  1664.07
                             1666.56  1670.36  1679.18  1682.49  1689.93
                             1695.95  1705.28  1716.08  1718.42  1750.44
                             1761.94  1762.56  1778.06  1803.49  1821.47
                             1856.72  1864.83  1866.43  1883.32  1932.86
                             1940.46  2001.49  2010.08  2023.51  2033.19
                             2069.61  2071.43  2112.82  2129.81  2134.36
                             2137.72  2140.40  2141.37  2147.34  2157.74
                             2170.42  2171.39  2177.84  2184.67  2187.00
                             2209.16  2216.67  2233.66  4202.77  4245.44
                             4253.10  4254.51  4268.66  4275.03  4280.25
                             4283.02  4287.90  4292.29  4294.60  4331.85
                             4334.41  4338.53  4355.29  4358.08  4379.98
                             4383.37  4415.65  4451.87  4482.48  4487.28
                             4489.66  4503.32

 Zero-point correction=                           0.355503 (Hartree/Particle)
 Thermal correction to Energy=                    0.377834
 Thermal correction to Enthalpy=                  0.378778
 Thermal correction to Gibbs Free Energy=         0.298043
 Sum of electronic and zero-point Energies=           -884.514543
 Sum of electronic and thermal Energies=              -884.492213
 Sum of electronic and thermal Enthalpies=            -884.491268
 Sum of electronic and thermal Free Energies=         -884.572003

                     E (Thermal)             CV                S
                      KCal/Mol        Cal/Mol-Kelvin    Cal/Mol-Kelvin
 Total                  237.094             74.473            169.921
 Electronic               0.000              0.000              0.000
 Translational            0.889              2.981             42.475
 Rotational               0.889              2.981             35.046
 Vibrational            235.317             68.512             92.401
 Vibration     1          0.593              1.986              7.366
 Vibration     2          0.593              1.985              6.416
 Vibration     3          0.593              1.984              5.988
 Vibration     4          0.594              1.984              5.784
 Vibration     5          0.594              1.981              5.185
 Vibration     6          0.595              1.979              5.012
 Vibration     7          0.596              1.974              4.538
 Vibration     8          0.599              1.967              4.065
 Vibration     9          0.601              1.960              3.785
 Vibration    10          0.602              1.955              3.617
 Vibration    11          0.606              1.943              3.312
 Vibration    12          0.608              1.936              3.168
 Vibration    13          0.610              1.929              3.041
 Vibration    14          0.612              1.924              2.953
 Vibration    15          0.622              1.891              2.547
 Vibration    16          0.624              1.884              2.479
 Vibration    17          0.633              1.856              2.247
 Vibration    18          0.640              1.832              2.084
 Vibration    19          0.646              1.814              1.976
 Vibration    20          0.652              1.795              1.877
 Vibration    21          0.661              1.768              1.753
 Vibration    22          0.666              1.752              1.686
 Vibration    23          0.687              1.691              1.470
 Vibration    24          0.715              1.608              1.241
 Vibration    25          0.739              1.541              1.095
 Vibration    26          0.776              1.445              0.921
 Vibration    27          0.796              1.392              0.840
 Vibration    28          0.824              1.323              0.746
 Vibration    29          0.858              1.245              0.652
 Vibration    30          0.888              1.176              0.580
 Vibration    31          0.901              1.148              0.552
 Vibration    32          0.919              1.111              0.518

 Optimization completed.
    -- Stationary point found.
 Normal termination of Gaussian 16 at Wed May 24 05:26:03 2023.
