 Gaussian 16, Revision A.03,
 Gaussian 16:  ES64L-G16RevA.03 25-Dec-2016

 -----------------------------
 # opt freq b3lyp/6-31g(2df,p)
 -----------------------------

 -------------------
 Title Card Required
 -------------------
 Symbolic Z-matrix:
 Charge =  0 Multiplicity = 1

 SCF Done:  E(RB3LYP) =  -770.347115848     A.U. after   13 cycles
 SCF Done:  E(RB3LYP) =  -770.352892583     A.U. after   11 cycles
 SCF Done:  E(RB3LYP) =  -770.355438135     A.U. after   11 cycles
 SCF Done:  E(RB3LYP) =  -770.356477625     A.U. after   12 cycles
 SCF Done:  E(RB3LYP) =  -770.357185063     A.U. after   10 cycles
 SCF Done:  E(RB3LYP) =  -770.356992933     A.U. after   10 cycles
 SCF Done:  E(RB3LYP) =  -770.357492847     A.U. after   10 cycles
 SCF Done:  E(RB3LYP) =  -770.357673920     A.U. after   10 cycles
 SCF Done:  E(RB3LYP) =  -770.358223628     A.U. after   11 cycles
 SCF Done:  E(RB3LYP) =  -770.299594814     A.U. after   11 cycles
 SCF Done:  E(RB3LYP) =  -770.361670171     A.U. after    9 cycles
 SCF Done:  E(RB3LYP) =  -770.361818599     A.U. after   10 cycles
 SCF Done:  E(RB3LYP) =  -770.361903466     A.U. after   10 cycles
 SCF Done:  E(RB3LYP) =  -770.361940876     A.U. after   10 cycles
 SCF Done:  E(RB3LYP) =  -770.361949766     A.U. after   10 cycles
 SCF Done:  E(RB3LYP) =  -770.361951669     A.U. after    8 cycles
 SCF Done:  E(RB3LYP) =  -770.361951799     A.U. after    9 cycles
 SCF Done:  E(RB3LYP) =  -770.361951955     A.U. after    7 cycles
 SCF Done:  E(RB3LYP) =  -770.361951940     A.U. after    6 cycles
 Optimization completed.
    -- Stationary point found.
 Normal termination of Gaussian 16 at Sun May 28 03:00:10 2023.

 ----------------------------------------------------------------------
 #N Geom=AllCheck Guess=TCheck SCRF=Check GenChk RB3LYP/6-31G(2df,p) Fr
 eq
 ----------------------------------------------------------------------

 Structure from the checkpoint file:  "CCOCCqCOrCCCOCCOO.chk"
 -------------------
 Title Card Required
 -------------------
 Charge =  0 Multiplicity = 1

                         Standard orientation:
 ---------------------------------------------------------------------
 Center     Atomic      Atomic             Coordinates (Angstroms)
 Number     Number       Type             X           Y           Z
 ---------------------------------------------------------------------
      1          6           0       -6.797102   -0.301159   -0.643235
      2          6           0       -5.586178   -1.032245   -0.090521
      3          8           0       -4.434805   -0.232430   -0.297125
      4          6           0       -3.235587   -0.828846    0.172374
      5          6           0       -2.054748    0.121497   -0.041329
      6          6           0       -2.302317    1.479999    0.642037
      7          8           0       -3.278765    2.267770   -0.003558
      8          6           0       -0.764132   -0.548989    0.468332
      9          6           0        0.524937    0.071026   -0.083589
     10          6           0        1.773644   -0.612991    0.456425
     11          8           0        2.908908    0.009808   -0.108946
     12          6           0        4.125602   -0.545666    0.329794
     13          6           0        5.243163    0.215058   -0.374826
     14          8           0        6.457874   -0.333509    0.108848
     15          8           0        7.526369    0.289716   -0.633423
     16          1           0       -7.698640   -0.905868   -0.508119
     17          1           0       -6.670562   -0.100062   -1.710651
     18          1           0       -6.942409    0.652748   -0.127717
     19          1           0       -5.455227   -2.003707   -0.594320
     20          1           0       -5.711628   -1.239541    0.984877
     21          1           0       -3.062996   -1.779676   -0.358197
     22          1           0       -3.333845   -1.068248    1.246027
     23          1           0       -1.963006    0.309145   -1.119203
     24          1           0       -1.381448    2.072533    0.641278
     25          1           0       -2.560764    1.295890    1.701943
     26          1           0       -4.033938    1.683589   -0.152542
     27          1           0       -0.782942   -1.614611    0.202272
     28          1           0       -0.750843   -0.514995    1.567271
     29          1           0        0.584066    1.136738    0.161924
     30          1           0        0.533677    0.001506   -1.177737
     31          1           0        1.764664   -1.688250    0.206501
     32          1           0        1.807637   -0.540265    1.557487
     33          1           0        4.189187   -1.617498    0.083145
     34          1           0        4.236102   -0.451460    1.422533
     35          1           0        5.173993    1.287003   -0.144323
     36          1           0        5.166947    0.084917   -1.460429
     37          1           0        7.891623    0.883166    0.038839
 ---------------------------------------------------------------------

 SCF Done:  E(RB3LYP) =  -770.361951940     A.U. after    1 cycles

 The electronic state is 1-A.
 Alpha  occ. eigenvalues --  -19.19203 -19.18950 -19.15469 -19.14468 -19.10967
 Alpha  occ. eigenvalues --  -10.23860 -10.23430 -10.23367 -10.23097 -10.22937
 Alpha  occ. eigenvalues --  -10.21604 -10.19028 -10.18806 -10.18406 -10.18388
 Alpha  occ. eigenvalues --   -1.11596  -1.04602  -1.03967  -0.99496  -0.91079
 Alpha  occ. eigenvalues --   -0.81864  -0.77951  -0.75505  -0.72057  -0.66797
 Alpha  occ. eigenvalues --   -0.65725  -0.61790  -0.60951  -0.59745  -0.57487
 Alpha  occ. eigenvalues --   -0.53272  -0.51328  -0.50494  -0.49985  -0.48837
 Alpha  occ. eigenvalues --   -0.47827  -0.46791  -0.46099  -0.45095  -0.43776
 Alpha  occ. eigenvalues --   -0.43356  -0.41853  -0.41249  -0.40006  -0.39529
 Alpha  occ. eigenvalues --   -0.38910  -0.38029  -0.36930  -0.36510  -0.35759
 Alpha  occ. eigenvalues --   -0.34589  -0.33992  -0.33259  -0.32956  -0.31891
 Alpha  occ. eigenvalues --   -0.29585  -0.29406  -0.26728  -0.26547  -0.25845
 Alpha  occ. eigenvalues --   -0.24769
 Alpha virt. eigenvalues --    0.03138   0.07640   0.07948   0.08235   0.08990
 Alpha virt. eigenvalues --    0.10845   0.11225   0.11465   0.12749   0.13055
 Alpha virt. eigenvalues --    0.14010   0.14330   0.14633   0.15209   0.16056

 Mulliken charges:
               1
     1  C   -0.392171
     2  C   -0.034236
     3  O   -0.257080
     4  C   -0.069387
     5  C   -0.043081
     6  C   -0.048601
     7  O   -0.433086
     8  C   -0.207344
     9  C   -0.210584
    10  C   -0.051630
    11  O   -0.249885
    12  C   -0.080661
    13  C   -0.024655
    14  O   -0.192884
    15  O   -0.315399
    16  H    0.120461
    17  H    0.132190
    18  H    0.130624
    19  H    0.093259
    20  H    0.092541
    21  H    0.090067
    22  H    0.087895
    23  H    0.088851
    24  H    0.101206
    25  H    0.071928
    26  H    0.286314
    27  H    0.093720
    28  H    0.097725
    29  H    0.116313
    30  H    0.110780
    31  H    0.086121
    32  H    0.086074
    33  H    0.101752
    34  H    0.096667
    35  H    0.098564
    36  H    0.116561
    37  H    0.311070
 Sum of Mulliken charges =  -0.00000

 Dipole moment (field-independent basis, Debye):
    X=             -1.4553    Y=             -2.1496    Z=              1.6946  Tot=              3.1001
 Quadrupole moment (field-independent basis, Debye-Ang):
   XX=            -88.0892   YY=            -96.8155   ZZ=            -92.4893
   XY=             19.8304   XZ=              5.9675   YZ=              1.4747

  Exact polarizability: 183.491   5.002 117.799   1.093  -0.590 109.686
 Approx polarizability: 193.452   4.751 176.072  -0.848  -3.257 171.962

                      1                      2                      3
                      A                      A                      A
 Frequencies --     18.0698                29.2585                34.6284
 Red. masses --      4.6577                 2.8353                 3.2838
 Frc consts  --      0.0009                 0.0014                 0.0023
 IR Inten    --      0.4713                 2.5768                 2.5542

                      4                      5                      6
                      A                      A                      A
 Frequencies --     45.1587                66.6143                79.1919
 Red. masses --      3.8525                 2.3821                 2.1623
 Frc consts  --      0.0046                 0.0062                 0.0080
 IR Inten    --      0.3952                 0.3363                 4.2414

                      7                      8                      9
                      A                      A                      A
 Frequencies --     87.6491                90.9438               113.7708
 Red. masses --      2.8832                 3.8401                 3.3472
 Frc consts  --      0.0131                 0.0187                 0.0255
 IR Inten    --      1.6724                 0.9510                 1.6322

                     10                     11                     12
                      A                      A                      A
 Frequencies --    119.6908               134.4108               150.3151
 Red. masses --      2.8000                 2.3839                 3.8227
 Frc consts  --      0.0236                 0.0254                 0.0509
 IR Inten    --      0.9478                 5.4171                 0.1256

                     13                     14                     15
                      A                      A                      A
 Frequencies --    157.7609               169.7698               190.1302
 Red. masses --      2.8353                 4.7674                 3.5857
 Frc consts  --      0.0416                 0.0810                 0.0764
 IR Inten    --      3.9829                 0.6267                 4.1043

                     16                     17                     18
                      A                      A                      A
 Frequencies --    226.6482               252.0055               256.3421
 Red. masses --      1.1367                 1.1978                 3.0458
 Frc consts  --      0.0344                 0.0448                 0.1179
 IR Inten    --     99.1542                 0.5245                 1.5132

                     19                     20                     21
                      A                      A                      A
 Frequencies --    271.4692               330.2990               357.8305
 Red. masses --      3.7361                 3.9821                 3.3550
 Frc consts  --      0.1622                 0.2560                 0.2531
 IR Inten    --      2.6715                 0.3029                 2.9446

                     22                     23                     24
                      A                      A                      A
 Frequencies --    380.7607               432.5911               467.3122
 Red. masses --      3.9590                 2.8351                 3.7908
 Frc consts  --      0.3382                 0.3126                 0.4877
 IR Inten    --      1.9583                 1.2598                 2.0357

                     25                     26                     27
                      A                      A                      A
 Frequencies --    508.1870               538.0137               552.7573
 Red. masses --      3.1839                 1.4263                 2.0258
 Frc consts  --      0.4845                 0.2432                 0.3647
 IR Inten    --      4.9754                54.1851                26.9011

                     28                     29                     30
                      A                      A                      A
 Frequencies --    585.7693               750.3570               821.2406
 Red. masses --      3.2630                 1.1375                 1.0854
 Frc consts  --      0.6597                 0.3773                 0.4313
 IR Inten    --      9.9197                 2.5749                 0.3797

                     31                     32                     33
                      A                      A                      A
 Frequencies --    833.5110               841.2758               888.6755
 Red. masses --      1.2273                 1.3433                 1.9019
 Frc consts  --      0.5024                 0.5601                 0.8850
 IR Inten    --      0.3273                 2.2499                 3.0911

                     34                     35                     36
                      A                      A                      A
 Frequencies --    905.7504               917.7179               946.8328
 Red. masses --      1.7039                 1.4514                12.0259
 Frc consts  --      0.8236                 0.7202                 6.3521
 IR Inten    --     12.5556                 1.0928                23.0798

                     37                     38                     39
                      A                      A                      A
 Frequencies --   1002.4974              1023.7517              1031.6916
 Red. masses --      3.2484                 1.8598                 4.0466
 Frc consts  --      1.9235                 1.1485                 2.5377
 IR Inten    --     11.4300                14.0060                 6.8054

                     40                     41                     42
                      A                      A                      A
 Frequencies --   1045.3376              1058.1625              1063.1738
 Red. masses --      3.5942                 3.4702                 2.9548
 Frc consts  --      2.3140                 2.2893                 1.9678
 IR Inten    --      3.6679                23.0142                12.4036

                     43                     44                     45
                      A                      A                      A
 Frequencies --   1085.4402              1104.4202              1118.9228
 Red. masses --      4.8561                 2.8837                 2.6267
 Frc consts  --      3.3709                 2.0724                 1.9376
 IR Inten    --     22.6418                37.0738                21.1346

                     46                     47                     48
                      A                      A                      A
 Frequencies --   1138.4050              1144.4389              1160.8494
 Red. masses --      2.8391                 6.1293                 1.8386
 Frc consts  --      2.1678                 4.7299                 1.4597
 IR Inten    --     86.1492               179.0255                 9.7346

                     49                     50                     51
                      A                      A                      A
 Frequencies --   1168.6075              1170.4793              1172.4171
 Red. masses --      3.2996                 4.9159                 1.6682
 Frc consts  --      2.6549                 3.9681                 1.3510
 IR Inten    --    207.0652                74.1255                24.8890

                     52                     53                     54
                      A                      A                      A
 Frequencies --   1190.2215              1212.1162              1229.0571
 Red. masses --      1.5419                 1.1955                 1.2962
 Frc consts  --      1.2870                 1.0349                 1.1536
 IR Inten    --      8.3164                 1.3528                 7.8168

                     55                     56                     57
                      A                      A                      A
 Frequencies --   1237.2893              1267.8956              1282.4041
 Red. masses --      1.1905                 1.2747                 1.1009
 Frc consts  --      1.0738                 1.2073                 1.0667
 IR Inten    --      8.1719                 4.7647                 1.2950

                     58                     59                     60
                      A                      A                      A
 Frequencies --   1287.8998              1297.7317              1299.6352
 Red. masses --      1.1206                 1.2268                 1.1130
 Frc consts  --      1.0951                 1.2173                 1.1076
 IR Inten    --      7.1146                 2.8165                 4.0046

                     61                     62                     63
                      A                      A                      A
 Frequencies --   1315.4055              1328.6208              1347.5228
 Red. masses --      1.0970                 1.2284                 1.2799
 Frc consts  --      1.1183                 1.2776                 1.3693
 IR Inten    --      0.2672                 0.2388                43.9911

                     64                     65                     66
                      A                      A                      A
 Frequencies --   1359.9004              1385.1442              1391.2461
 Red. masses --      1.2671                 1.2879                 1.1268
 Frc consts  --      1.3806                 1.4559                 1.2851
 IR Inten    --      4.0954                17.5573                44.8978

                     67                     68                     69
                      A                      A                      A
 Frequencies --   1392.6399              1402.3089              1410.8820
 Red. masses --      1.2893                 1.4177                 1.3118
 Frc consts  --      1.4733                 1.6426                 1.5385
 IR Inten    --     13.9636                 4.1498                30.7729

                     70                     71                     72
                      A                      A                      A
 Frequencies --   1413.2922              1452.4466              1457.0485
 Red. masses --      1.4495                 1.4602                 1.5387
 Frc consts  --      1.7058                 1.8149                 1.9247
 IR Inten    --     13.1298                 1.6246                 2.4086

                     73                     74                     75
                      A                      A                      A
 Frequencies --   1470.6928              1485.1597              1486.7167
 Red. masses --      1.2026                 1.0412                 1.0841
 Frc consts  --      1.5325                 1.3531                 1.4118
 IR Inten    --     63.3097                 4.1923                 3.4592

                     76                     77                     78
                      A                      A                      A
 Frequencies --   1499.3482              1500.0933              1505.7551
 Red. masses --      1.0579                 1.0854                 1.0793
 Frc consts  --      1.4011                 1.4391                 1.4418
 IR Inten    --      3.8793                 2.0560                 2.7003

                     79                     80                     81
                      A                      A                      A
 Frequencies --   1514.5453              1517.1904              1529.5872
 Red. masses --      1.0857                 1.0841                 1.0875
 Frc consts  --      1.4673                 1.4703                 1.4991
 IR Inten    --      5.4676                 1.7987                 9.8272

                     82                     83                     84
                      A                      A                      A
 Frequencies --   1536.4487              1540.1264              2925.3514
 Red. masses --      1.0974                 1.0907                 1.0726
 Frc consts  --      1.5263                 1.5243                 5.4079
 IR Inten    --      5.3116                 1.7284                47.2220

                     85                     86                     87
                      A                      A                      A
 Frequencies --   2944.7896              2946.6467              2966.9625
 Red. masses --      1.0538                 1.0566                 1.0562
 Frc consts  --      5.3842                 5.4055                 5.4779
 IR Inten    --     28.6034                27.1609                63.5044

                     88                     89                     90
                      A                      A                      A
 Frequencies --   2969.2248              2971.7647              2982.2570
 Red. masses --      1.0549                 1.1047                 1.1005
 Frc consts  --      5.4796                 5.7483                 5.7666
 IR Inten    --     59.1689                46.8514                50.5399

                     91                     92                     93
                      A                      A                      A
 Frequencies --   2993.2201              2997.9108              3002.0802
 Red. masses --      1.1060                 1.1021                 1.0593
 Frc consts  --      5.8381                 5.8358                 5.6251
 IR Inten    --     40.1538                22.5763                29.6858

                     94                     95                     96
                      A                      A                      A
 Frequencies --   3013.0533              3026.3810              3036.7506
 Red. masses --      1.0611                 1.0895                 1.0840
 Frc consts  --      5.6756                 5.8792                 5.8896
 IR Inten    --     47.0701                10.2362                20.9359

                     97                     98                     99
                      A                      A                      A
 Frequencies --   3042.0168              3045.0342              3065.9849
 Red. masses --      1.0701                 1.0348                 1.0887
 Frc consts  --      5.8344                 5.6534                 6.0298
 IR Inten    --     44.6794                15.5215                49.8794

                    100                    101                    102
                      A                      A                      A
 Frequencies --   3069.6829              3087.5309              3118.7808
 Red. masses --      1.1053                 1.1026                 1.1018
 Frc consts  --      6.1367                 6.1926                 6.3144
 IR Inten    --     45.9936                47.7194                25.1303

                    103                    104                    105
                      A                      A                      A
 Frequencies --   3122.9151              3745.3199              3751.5450
 Red. masses --      1.1024                 1.0687                 1.0652
 Frc consts  --      6.3344                 8.8325                 8.8325
 IR Inten    --     22.1928                30.3868               174.3957

 - Thermochemistry -
 -------------------
 Temperature   298.150 Kelvin.  Pressure   1.00000 Atm.
 Atom     1 has atomic number  6 and mass  12.00000

 Molecular mass:   222.14672 amu.
 Principal axes and moments of inertia in atomic units:
                           1         2         3
     Eigenvalues --   814.54174********************
           X            0.99999   0.00488   0.00178
           Y           -0.00488   0.99998  -0.00337
           Z           -0.00179   0.00336   0.99999
 This molecule is an asymmetric top.
 Rotational symmetry number  1.
 Warning -- assumption of classical behavior for rotation
           may cause significant error
 Rotational temperatures (Kelvin)      0.10633     0.00549     0.00533
 Rotational constants (GHZ):           2.21565     0.11437     0.11106
 Zero-point vibrational energy     851818.2 (Joules/Mol)
                                  203.58943 (Kcal/Mol)
 Warning -- explicit consideration of  28 degrees of freedom as
           vibrations may cause significant error
 Vibrational temperatures:     26.00    42.10    49.82    64.97    95.84
          (Kelvin)            113.94   126.11   130.85   163.69   172.21
                              193.39   216.27   226.98   244.26   273.55
                              326.10   362.58   368.82   390.58   475.23
                              514.84   547.83   622.40   672.36   731.17
                              774.08   795.29   842.79  1079.60  1181.58
                             1199.24  1210.41  1278.61  1303.17  1320.39
                             1362.28  1442.37  1472.95  1484.37  1504.01
                             1522.46  1529.67  1561.71  1589.01  1609.88
                             1637.91  1646.59  1670.20  1681.37  1684.06
                             1686.85  1712.46  1743.96  1768.34  1780.18
                             1824.22  1845.09  1853.00  1867.15  1869.89
                             1892.58  1911.59  1938.78  1956.59  1992.91
                             2001.69  2003.70  2017.61  2029.94  2033.41
                             2089.75  2096.37  2116.00  2136.81  2139.05
                             2157.23  2158.30  2166.45  2179.09  2182.90
                             2200.73  2210.61  2215.90  4208.93  4236.90
                             4239.57  4268.80  4272.05  4275.71  4290.80
                             4306.58  4313.32  4319.32  4335.11  4354.29
                             4369.21  4376.78  4381.13  4411.27  4416.59
                             4442.27  4487.23  4493.18  5388.68  5397.64

 Zero-point correction=                           0.324440 (Hartree/Particle)
 Thermal correction to Energy=                    0.343855
 Thermal correction to Enthalpy=                  0.344800
 Thermal correction to Gibbs Free Energy=         0.273162
 Sum of electronic and zero-point Energies=           -770.037512
 Sum of electronic and thermal Energies=              -770.018097
 Sum of electronic and thermal Enthalpies=            -770.017152
 Sum of electronic and thermal Free Energies=         -770.088790

                     E (Thermal)             CV                S
                      KCal/Mol        Cal/Mol-Kelvin    Cal/Mol-Kelvin
 Total                  215.773             66.512            150.775
 Electronic               0.000              0.000              0.000
 Translational            0.889              2.981             42.097
 Rotational               0.889              2.981             33.701
 Vibrational            213.995             60.551             74.977
 Vibration     1          0.593              1.986              6.836
 Vibration     2          0.593              1.984              5.879
 Vibration     3          0.594              1.983              5.545
 Vibration     4          0.595              1.979              5.019
 Vibration     5          0.598              1.970              4.251
 Vibration     6          0.600              1.963              3.911
 Vibration     7          0.601              1.958              3.712
 Vibration     8          0.602              1.956              3.640
 Vibration     9          0.607              1.938              3.204
 Vibration    10          0.609              1.933              3.105
 Vibration    11          0.613              1.919              2.882
 Vibration    12          0.618              1.902              2.668
 Vibration    13          0.621              1.894              2.576
 Vibration    14          0.625              1.880              2.438
 Vibration    15          0.633              1.853              2.227
 Vibration    16          0.650              1.800              1.905
 Vibration    17          0.664              1.759              1.717
 Vibration    18          0.666              1.752              1.687
 Vibration    19          0.675              1.726              1.587
 Vibration    20          0.713              1.615              1.259
 Vibration    21          0.733              1.559              1.132
 Vibration    22          0.750              1.511              1.036
 Vibration    23          0.793              1.399              0.850
 Vibration    24          0.825              1.323              0.745
 Vibration    25          0.863              1.232              0.638
 Vibration    26          0.893              1.166              0.570
 Vibration    27          0.908              1.134              0.538
 Vibration    28          0.943              1.062              0.475

 Optimization completed.
    -- Stationary point found.
 Normal termination of Gaussian 16 at Sun May 28 05:02:33 2023.
