 Gaussian 16, Revision A.03,
 Gaussian 16:  ES64L-G16RevA.03 25-Dec-2016

 -----------------------------
 # opt freq b3lyp/6-31g(2df,p)
 -----------------------------

 -------------------
 Title Card Required
 -------------------
 Symbolic Z-matrix:
 Charge =  0 Multiplicity = 1

 SCF Done:  E(RB3LYP) =  -733.347875272     A.U. after   13 cycles
 SCF Done:  E(RB3LYP) =  -733.357255248     A.U. after   13 cycles
 SCF Done:  E(RB3LYP) =  -733.357958863     A.U. after   12 cycles
 SCF Done:  E(RB3LYP) =  -733.361210659     A.U. after   12 cycles
 SCF Done:  E(RB3LYP) =  -733.362352889     A.U. after   11 cycles
 SCF Done:  E(RB3LYP) =  -733.362749318     A.U. after   10 cycles
 SCF Done:  E(RB3LYP) =  -733.362917349     A.U. after   11 cycles
 SCF Done:  E(RB3LYP) =  -733.362958512     A.U. after   10 cycles
 SCF Done:  E(RB3LYP) =  -733.362989128     A.U. after   10 cycles
 SCF Done:  E(RB3LYP) =  -733.362992237     A.U. after    8 cycles
 SCF Done:  E(RB3LYP) =  -733.362993513     A.U. after    8 cycles
 SCF Done:  E(RB3LYP) =  -733.362994014     A.U. after    8 cycles
 SCF Done:  E(RB3LYP) =  -733.362994235     A.U. after    7 cycles
 SCF Done:  E(RB3LYP) =  -733.362994315     A.U. after    7 cycles
 SCF Done:  E(RB3LYP) =  -733.362994326     A.U. after    6 cycles
 Optimization completed.
    -- Stationary point found.
 Normal termination of Gaussian 16 at Mon May 22 11:11:23 2023.

 ----------------------------------------------------------------------
 #N Geom=AllCheck Guess=TCheck SCRF=Check GenChk RB3LYP/6-31G(2df,p) Fr
 eq
 ----------------------------------------------------------------------

 Structure from the checkpoint file:  "CCOCqdOrCqCCOCCqCrCrOC.chk"
 -------------------
 Title Card Required
 -------------------
 Charge =  0 Multiplicity = 1

                         Standard orientation:
 ---------------------------------------------------------------------
 Center     Atomic      Atomic             Coordinates (Angstroms)
 Number     Number       Type             X           Y           Z
 ---------------------------------------------------------------------
      1          6           0        2.781338    3.446076    0.870364
      2          6           0        2.958613    2.359108   -0.171754
      3          8           0        2.392559    1.143241    0.362592
      4          6           0        2.452201    0.065151   -0.447327
      5          8           0        2.950130    0.065928   -1.540494
      6          6           0        1.757572   -1.129281    0.207408
      7          6           0        0.300423   -1.233913   -0.282689
      8          6           0       -0.592373   -0.076499    0.152775
      9          8           0       -1.912591   -0.377386   -0.240795
     10          6           0       -2.841138    0.637165    0.082136
     11          6           0       -4.238651    0.200508   -0.355649
     12          6           0       -4.673431   -1.079488    0.368436
     13          6           0       -5.241125    1.341037   -0.142199
     14          8           0        2.510605   -2.270971   -0.147126
     15          6           0        2.353210   -3.364384    0.729031
     16          1           0        3.203252    4.385621    0.501415
     17          1           0        3.290912    3.181769    1.801194
     18          1           0        1.722545    3.607781    1.091776
     19          1           0        4.012670    2.181276   -0.405547
     20          1           0        2.452450    2.601803   -1.111373
     21          1           0        1.775237   -0.979285    1.297170
     22          1           0       -0.134119   -2.159165    0.109038
     23          1           0        0.306868   -1.313149   -1.374127
     24          1           0       -0.263745    0.871589   -0.302687
     25          1           0       -0.538394    0.062938    1.246832
     26          1           0       -2.561564    1.579959   -0.418980
     27          1           0       -2.829634    0.833711    1.169856
     28          1           0       -4.179000   -0.015173   -1.430823
     29          1           0       -4.773958   -0.901568    1.446414
     30          1           0       -3.938544   -1.874701    0.224580
     31          1           0       -5.642021   -1.430753   -0.001626
     32          1           0       -5.317672    1.605850    0.919286
     33          1           0       -6.240115    1.049634   -0.480856
     34          1           0       -4.951228    2.243016   -0.691801
     35          1           0        3.027765   -4.148681    0.378060
     36          1           0        1.328407   -3.762940    0.732701
     37          1           0        2.624423   -3.098893    1.762888
 ---------------------------------------------------------------------

 SCF Done:  E(RB3LYP) =  -733.362994326     A.U. after    1 cycles

 The electronic state is 1-A.
 Alpha  occ. eigenvalues --  -19.18344 -19.14396 -19.13862 -19.12373 -10.30044
 Alpha  occ. eigenvalues --  -10.24548 -10.24218 -10.23011 -10.22723 -10.22310
 Alpha  occ. eigenvalues --  -10.18796 -10.18593 -10.18538 -10.17409 -10.16657
 Alpha  occ. eigenvalues --   -1.10097  -1.03888  -1.03316  -1.01134  -0.80866
 Alpha  occ. eigenvalues --   -0.79301  -0.76968  -0.72228  -0.68035  -0.67369
 Alpha  occ. eigenvalues --   -0.66065  -0.62506  -0.60016  -0.56493  -0.55863
 Alpha  occ. eigenvalues --   -0.52202  -0.50518  -0.49133  -0.48652  -0.48012
 Alpha  occ. eigenvalues --   -0.45909  -0.45624  -0.45058  -0.43988  -0.42702
 Alpha  occ. eigenvalues --   -0.42301  -0.40857  -0.40064  -0.39684  -0.39044
 Alpha  occ. eigenvalues --   -0.38257  -0.37952  -0.37454  -0.35588  -0.35359
 Alpha  occ. eigenvalues --   -0.34934  -0.33694  -0.33194  -0.32450  -0.31814
 Alpha  occ. eigenvalues --   -0.30982  -0.30000  -0.27094  -0.25464  -0.25405
 Alpha virt. eigenvalues --    0.01217   0.07912   0.08744   0.08973   0.10162
 Alpha virt. eigenvalues --    0.11486   0.12597   0.12820   0.13598   0.13795
 Alpha virt. eigenvalues --    0.14212   0.14807   0.15201   0.15456   0.15700

 Mulliken charges:
               1
     1  C   -0.392744
     2  C   -0.045445
     3  O   -0.250126
     4  C    0.432599
     5  O   -0.349526
     6  C    0.007474
     7  C   -0.236261
     8  C   -0.061494
     9  O   -0.249354
    10  C   -0.039119
    11  C    0.020752
    12  C   -0.379450
    13  C   -0.392704
    14  O   -0.238265
    15  C   -0.238312
    16  H    0.125068
    17  H    0.130965
    18  H    0.128675
    19  H    0.126757
    20  H    0.123084
    21  H    0.083408
    22  H    0.112032
    23  H    0.131730
    24  H    0.092032
    25  H    0.086496
    26  H    0.080137
    27  H    0.078372
    28  H    0.083745
    29  H    0.105100
    30  H    0.128308
    31  H    0.107351
    32  H    0.112488
    33  H    0.115018
    34  H    0.111053
    35  H    0.134107
    36  H    0.110438
    37  H    0.105609
 Sum of Mulliken charges =  -0.00000

 Dipole moment (field-independent basis, Debye):
    X=             -1.0119    Y=              1.5102    Z=              2.6327  Tot=              3.1993
 Quadrupole moment (field-independent basis, Debye-Ang):
   XX=            -95.1152   YY=            -83.4865   ZZ=            -96.0529
   XY=              2.5880   XZ=              7.5908   YZ=             -3.7389

  Exact polarizability: 149.827  -1.739 147.209  -1.171  -0.478 114.689
 Approx polarizability: 180.389  -0.059 187.804  -6.655   2.996 185.914

                      1                      2                      3
                      A                      A                      A
 Frequencies --     16.9194                17.7230                29.3382
 Red. masses --      4.0601                 2.4702                 3.9155
 Frc consts  --      0.0007                 0.0005                 0.0020
 IR Inten    --      0.9124                 0.1092                 0.2980

                      4                      5                      6
                      A                      A                      A
 Frequencies --     54.6560                58.8423                66.5072
 Red. masses --      3.9101                 2.8955                 2.2854
 Frc consts  --      0.0069                 0.0059                 0.0060
 IR Inten    --      0.3898                 0.1822                 1.5680

                      7                      8                      9
                      A                      A                      A
 Frequencies --     82.8136               111.6965               113.1954
 Red. masses --      2.8205                 2.2510                 2.6491
 Frc consts  --      0.0114                 0.0165                 0.0200
 IR Inten    --      0.8137                 0.8134                 1.1422

                     10                     11                     12
                      A                      A                      A
 Frequencies --    138.4153               152.3066               173.7111
 Red. masses --      2.2968                 2.3797                 1.9864
 Frc consts  --      0.0259                 0.0325                 0.0353
 IR Inten    --      0.7049                 2.0042                 0.6955

                     13                     14                     15
                      A                      A                      A
 Frequencies --    180.7197               217.9646               232.4477
 Red. masses --      2.4864                 1.0976                 1.8697
 Frc consts  --      0.0478                 0.0307                 0.0595
 IR Inten    --      2.2290                 0.2329                 1.3086

                     16                     17                     18
                      A                      A                      A
 Frequencies --    243.9065               251.3466               271.4713
 Red. masses --      1.4707                 1.3612                 2.7168
 Frc consts  --      0.0515                 0.0507                 0.1180
 IR Inten    --      0.3155                 0.0457                 1.4254

                     19                     20                     21
                      A                      A                      A
 Frequencies --    286.9841               324.9115               356.8148
 Red. masses --      3.0986                 4.1345                 3.1757
 Frc consts  --      0.1504                 0.2572                 0.2382
 IR Inten    --      1.8575                11.3194                 2.9428

                     22                     23                     24
                      A                      A                      A
 Frequencies --    371.3774               394.8730               413.6497
 Red. masses --      3.0816                 3.5152                 2.4765
 Frc consts  --      0.2504                 0.3229                 0.2497
 IR Inten    --      2.4216                 7.5700                 1.2622

                     25                     26                     27
                      A                      A                      A
 Frequencies --    447.2537               513.8386               541.4903
 Red. masses --      2.6402                 4.0621                 3.3909
 Frc consts  --      0.3112                 0.6319                 0.5858
 IR Inten    --      0.7122                 1.8154                15.5047

                     28                     29                     30
                      A                      A                      A
 Frequencies --    720.9619               758.8751               807.4201
 Red. masses --      2.3105                 4.2751                 1.1099
 Frc consts  --      0.7076                 1.4506                 0.4263
 IR Inten    --      2.7286                 7.5574                 0.3654

                     31                     32                     33
                      A                      A                      A
 Frequencies --    830.2439               835.7963               879.7708
 Red. masses --      1.8288                 2.4028                 2.4463
 Frc consts  --      0.7427                 0.9890                 1.1156
 IR Inten    --      4.1197                 2.5512                 9.3953

                     34                     35                     36
                      A                      A                      A
 Frequencies --    912.5443               923.7623               931.4415
 Red. masses --      2.9894                 1.3665                 1.1908
 Frc consts  --      1.4667                 0.6870                 0.6087
 IR Inten    --      1.5951                 3.3017                 1.1204

                     37                     38                     39
                      A                      A                      A
 Frequencies --    961.5990               976.2582               996.4634
 Red. masses --      1.4157                 1.8272                 4.3516
 Frc consts  --      0.7713                 1.0261                 2.5458
 IR Inten    --      1.1201                 1.1111                17.7091

                     40                     41                     42
                      A                      A                      A
 Frequencies --   1024.5199              1046.1060              1058.5411
 Red. masses --      4.1835                 2.9169                 2.7937
 Frc consts  --      2.5872                 1.8807                 1.8443
 IR Inten    --     21.2591                 5.1444                25.5914

                     43                     44                     45
                      A                      A                      A
 Frequencies --   1092.3759              1110.3929              1135.5458
 Red. masses --      2.9956                 2.4252                 2.2109
 Frc consts  --      2.1061                 1.7618                 1.6797
 IR Inten    --     19.1352                15.8737                16.8297

                     46                     47                     48
                      A                      A                      A
 Frequencies --   1146.9117              1160.6747              1164.4154
 Red. masses --      4.7141                 2.3342                 5.1003
 Frc consts  --      3.6535                 1.8527                 4.0744
 IR Inten    --    251.9194                21.0896               142.7480

                     49                     50                     51
                      A                      A                      A
 Frequencies --   1182.4810              1182.8810              1189.4489
 Red. masses --      1.3482                 1.5344                 1.9319
 Frc consts  --      1.1107                 1.2650                 1.6104
 IR Inten    --      4.9080                 4.1365                87.4615

                     52                     53                     54
                      A                      A                      A
 Frequencies --   1197.4066              1200.7259              1225.6592
 Red. masses --      2.9259                 1.7513                 1.6886
 Frc consts  --      2.4717                 1.4876                 1.4946
 IR Inten    --    363.5557                 4.4771                 9.2436

                     55                     56                     57
                      A                      A                      A
 Frequencies --   1230.0117              1276.7136              1291.4876
 Red. masses --      1.4284                 1.1838                 1.0983
 Frc consts  --      1.2733                 1.1369                 1.0793
 IR Inten    --     32.8369                 2.3923                 1.2493

                     58                     59                     60
                      A                      A                      A
 Frequencies --   1294.4829              1309.6681              1329.7616
 Red. masses --      1.2838                 1.1239                 1.3406
 Frc consts  --      1.2675                 1.1358                 1.3967
 IR Inten    --      0.4488                 6.9863                 9.8566

                     61                     62                     63
                      A                      A                      A
 Frequencies --   1359.7120              1373.1552              1387.0008
 Red. masses --      1.3197                 1.3329                 1.2830
 Frc consts  --      1.4375                 1.4808                 1.4542
 IR Inten    --     27.6263                 3.0525                11.8655

                     64                     65                     66
                      A                      A                      A
 Frequencies --   1396.2499              1399.4176              1409.6293
 Red. masses --      1.3067                 1.3283                 1.3857
 Frc consts  --      1.5009                 1.5326                 1.6223
 IR Inten    --     13.9133                18.0709                18.3309

                     67                     68                     69
                      A                      A                      A
 Frequencies --   1418.0909              1427.4201              1455.0729
 Red. masses --      1.2499                 1.5632                 1.4461
 Frc consts  --      1.4809                 1.8765                 1.8040
 IR Inten    --     17.8592                 4.4684                 5.1106

                     70                     71                     72
                      A                      A                      A
 Frequencies --   1479.2791              1486.0874              1487.9119
 Red. masses --      1.1175                 1.0407                 1.0840
 Frc consts  --      1.4408                 1.3542                 1.4139
 IR Inten    --      2.2805                 4.5939                 0.5000

                     73                     74                     75
                      A                      A                      A
 Frequencies --   1489.3130              1489.9928              1493.0422
 Red. masses --      1.0574                 1.0432                 1.0790
 Frc consts  --      1.3819                 1.3646                 1.4171
 IR Inten    --      2.0810                 0.8788                 6.9557

                     76                     77                     78
                      A                      A                      A
 Frequencies --   1496.0201              1503.0371              1509.1286
 Red. masses --      1.0472                 1.0488                 1.0751
 Frc consts  --      1.3809                 1.3960                 1.4426
 IR Inten    --      1.9650                 5.2340                 2.0571

                     79                     80                     81
                      A                      A                      A
 Frequencies --   1510.1801              1513.6781              1519.3319
 Red. masses --      1.0714                 1.0651                 1.0861
 Frc consts  --      1.4397                 1.4378                 1.4772
 IR Inten    --     11.2976                 9.9210                 4.7782

                     82                     83                     84
                      A                      A                      A
 Frequencies --   1530.9603              1838.2884              2934.7804
 Red. masses --      1.0925                11.9493                 1.0563
 Frc consts  --      1.5086                23.7913                 5.3604
 IR Inten    --      2.7125               196.7235                25.5604

                     85                     86                     87
                      A                      A                      A
 Frequencies --   2952.0414              2967.8634              2976.4591
 Red. masses --      1.0627                 1.0996                 1.0397
 Frc consts  --      5.4565                 5.7068                 5.4268
 IR Inten    --     60.0447                48.7284                50.4117

                     88                     89                     90
                      A                      A                      A
 Frequencies --   2985.8436              2996.8515              3019.9450
 Red. masses --      1.0971                 1.0813                 1.0790
 Frc consts  --      5.7626                 5.7217                 5.7977
 IR Inten    --     44.5956                37.5436                 8.8451

                     91                     92                     93
                      A                      A                      A
 Frequencies --   3024.2084              3027.3624              3029.7912
 Red. masses --      1.0373                 1.1004                 1.0428
 Frc consts  --      5.5894                 5.9418                 5.6399
 IR Inten    --     25.7007                46.1374                39.5027

                     94                     95                     96
                      A                      A                      A
 Frequencies --   3045.8249              3053.1491              3054.4025
 Red. masses --      1.0350                 1.0577                 1.0590
 Frc consts  --      5.6575                 5.8089                 5.8212
 IR Inten    --     15.1214                17.2497                22.5422

                     97                     98                     99
                      A                      A                      A
 Frequencies --   3087.7710              3091.1621              3093.2119
 Red. masses --      1.0994                 1.1062                 1.0995
 Frc consts  --      6.1760                 6.2279                 6.1982
 IR Inten    --     12.4561                 6.1525                53.9697

                    100                    101                    102
                      A                      A                      A
 Frequencies --   3102.5062              3103.4261              3118.1951
 Red. masses --      1.1008                 1.1043                 1.0962
 Frc consts  --      6.2428                 6.2664                 6.2797
 IR Inten    --     37.1760                18.5713                27.1132

                    103                    104                    105
                      A                      A                      A
 Frequencies --   3120.3230              3125.7058              3125.8445
 Red. masses --      1.1010                 1.0994                 1.1041
 Frc consts  --      6.3160                 6.3286                 6.3562
 IR Inten    --     22.7693                21.9023                31.5805

 - Thermochemistry -
 -------------------
 Temperature   298.150 Kelvin.  Pressure   1.00000 Atm.
 Atom     1 has atomic number  6 and mass  12.00000

 Molecular mass:   218.15181 amu.
 Principal axes and moments of inertia in atomic units:
                           1         2         3
     Eigenvalues --  2623.609187222.299599223.90478
           X            0.99998   0.00383   0.00538
           Y           -0.00380   0.99997  -0.00600
           Z           -0.00540   0.00598   0.99997
 This molecule is an asymmetric top.
 Rotational symmetry number  1.
 Warning -- assumption of classical behavior for rotation
           may cause significant error
 Rotational temperatures (Kelvin)      0.03301     0.01199     0.00939
 Rotational constants (GHZ):           0.68788     0.24988     0.19566
 Zero-point vibrational energy     852095.2 (Joules/Mol)
                                  203.65564 (Kcal/Mol)
 Warning -- explicit consideration of  27 degrees of freedom as
           vibrations may cause significant error
 Vibrational temperatures:     24.34    25.50    42.21    78.64    84.66
          (Kelvin)             95.69   119.15   160.71   162.86   199.15
                              219.14   249.93   260.02   313.60   334.44
                              350.93   361.63   390.59   412.91   467.48
                              513.38   534.33   568.13   595.15   643.50
                              739.30   779.08  1037.30  1091.85  1161.70
                             1194.54  1202.52  1265.79  1312.95  1329.09
                             1340.14  1383.53  1404.62  1433.69  1474.06
                             1505.11  1523.00  1571.69  1597.61  1633.80
                             1650.15  1669.95  1675.33  1701.33  1701.90
                             1711.35  1722.80  1727.58  1763.45  1769.71
                             1836.91  1858.16  1862.47  1884.32  1913.23
                             1956.32  1975.66  1995.58  2008.89  2013.45
                             2028.14  2040.32  2053.74  2093.53  2128.35
                             2138.15  2140.77  2142.79  2143.77  2148.15
                             2152.44  2162.54  2171.30  2172.81  2177.85
                             2185.98  2202.71  2644.89  4222.49  4247.33
                             4270.09  4282.46  4295.96  4311.80  4345.03
                             4351.16  4355.70  4359.19  4382.26  4392.80
                             4394.60  4442.61  4447.49  4450.44  4463.81
                             4465.14  4486.39  4489.45  4497.19  4497.39

 Zero-point correction=                           0.324546 (Hartree/Particle)
 Thermal correction to Energy=                    0.343752
 Thermal correction to Enthalpy=                  0.344696
 Thermal correction to Gibbs Free Energy=         0.273350
 Sum of electronic and zero-point Energies=           -733.038448
 Sum of electronic and thermal Energies=              -733.019242
 Sum of electronic and thermal Enthalpies=            -733.018298
 Sum of electronic and thermal Free Energies=         -733.089645

                     E (Thermal)             CV                S
                      KCal/Mol        Cal/Mol-Kelvin    Cal/Mol-Kelvin
 Total                  215.708             66.295            150.161
 Electronic               0.000              0.000              0.000
 Translational            0.889              2.981             42.043
 Rotational               0.889              2.981             33.524
 Vibrational            213.930             60.333             74.594
 Vibration     1          0.593              1.986              6.966
 Vibration     2          0.593              1.986              6.874
 Vibration     3          0.593              1.984              5.874
 Vibration     4          0.596              1.976              4.641
 Vibration     5          0.596              1.974              4.496
 Vibration     6          0.598              1.970              4.254
 Vibration     7          0.600              1.961              3.823
 Vibration     8          0.607              1.940              3.239
 Vibration     9          0.607              1.939              3.213
 Vibration    10          0.614              1.915              2.826
 Vibration    11          0.619              1.900              2.643
 Vibration    12          0.627              1.875              2.395
 Vibration    13          0.630              1.866              2.321
 Vibration    14          0.646              1.814              1.976
 Vibration    15          0.653              1.791              1.860
 Vibration    16          0.659              1.773              1.774
 Vibration    17          0.663              1.761              1.721
 Vibration    18          0.675              1.726              1.587
 Vibration    19          0.684              1.698              1.492
 Vibration    20          0.709              1.626              1.285
 Vibration    21          0.732              1.561              1.136
 Vibration    22          0.743              1.531              1.074
 Vibration    23          0.762              1.481              0.982
 Vibration    24          0.777              1.441              0.914
 Vibration    25          0.806              1.367              0.804
 Vibration    26          0.869              1.219              0.624
 Vibration    27          0.897              1.158              0.562

 Optimization completed on the basis of negligible forces.
    -- Stationary point found.
 Normal termination of Gaussian 16 at Mon May 22 13:38:58 2023.
