 Gaussian 16, Revision A.03,
 Gaussian 16:  ES64L-G16RevA.03 25-Dec-2016

 -----------------------------
 # opt freq b3lyp/6-31g(2df,p)
 -----------------------------

 -------------------
 Title Card Required
 -------------------
 Symbolic Z-matrix:
 Charge =  0 Multiplicity = 1

 SCF Done:  E(RB3LYP) =  -692.584355132     A.U. after   14 cycles
 SCF Done:  E(RB3LYP) =  -692.606242777     A.U. after   13 cycles
 SCF Done:  E(RB3LYP) =  -692.619346139     A.U. after   13 cycles
 SCF Done:  E(RB3LYP) =  -692.619619842     A.U. after    9 cycles
 SCF Done:  E(RB3LYP) =  -692.619965684     A.U. after    8 cycles
 SCF Done:  E(RB3LYP) =  -692.620221861     A.U. after    8 cycles
 SCF Done:  E(RB3LYP) =  -692.618838076     A.U. after   12 cycles
 SCF Done:  E(RB3LYP) =  -692.621494903     A.U. after   10 cycles
 SCF Done:  E(RB3LYP) =  -692.621785531     A.U. after   10 cycles
 SCF Done:  E(RB3LYP) =  -692.622213212     A.U. after   11 cycles
 SCF Done:  E(RB3LYP) =  -692.636958111     A.U. after   12 cycles
 SCF Done:  E(RB3LYP) =  -692.637068515     A.U. after   11 cycles
 SCF Done:  E(RB3LYP) =  -692.637084441     A.U. after   10 cycles
 SCF Done:  E(RB3LYP) =  -692.637103265     A.U. after   10 cycles
 SCF Done:  E(RB3LYP) =  -692.637113612     A.U. after    9 cycles
 SCF Done:  E(RB3LYP) =  -692.637116200     A.U. after    8 cycles
 SCF Done:  E(RB3LYP) =  -692.637117293     A.U. after    8 cycles
 SCF Done:  E(RB3LYP) =  -692.637117608     A.U. after    7 cycles
 SCF Done:  E(RB3LYP) =  -692.637117716     A.U. after    7 cycles
 Optimization completed.
    -- Stationary point found.
 Normal termination of Gaussian 16 at Sun May 28 02:04:50 2023.

 ----------------------------------------------------------------------
 #N Geom=AllCheck Guess=TCheck SCRF=Check GenChk RB3LYP/6-31G(2df,p) Fr
 eq
 ----------------------------------------------------------------------

 Structure from the checkpoint file:  "CCOCCOCCC1dCqCOOrC1.chk"
 -------------------
 Title Card Required
 -------------------
 Charge =  0 Multiplicity = 1

                         Standard orientation:
 ---------------------------------------------------------------------
 Center     Atomic      Atomic             Coordinates (Angstroms)
 Number     Number       Type             X           Y           Z
 ---------------------------------------------------------------------
      1          6           0        6.975154   -0.385764   -0.598185
      2          6           0        5.788653   -0.633446    0.317653
      3          8           0        4.627513   -0.114472   -0.297955
      4          6           0        3.461865   -0.292425    0.471042
      5          6           0        2.299740    0.305683   -0.307026
      6          8           0        1.132340    0.129397    0.463457
      7          6           0       -0.026568    0.644626   -0.152134
      8          6           0       -1.211576    0.374659    0.777635
      9          6           0       -2.472274    0.947834    0.263311
     10          6           0       -3.704905    0.824246   -0.107386
     11          6           0       -4.917125    0.022723   -0.335030
     12          8           0       -4.622835   -1.320352    0.028658
     13          8           0       -5.799740   -2.095616   -0.286207
     14          6           0       -3.152567    2.224287   -0.170163
     15          1           0        7.892420   -0.777356   -0.148421
     16          1           0        7.105133    0.685477   -0.776423
     17          1           0        6.823837   -0.877343   -1.563408
     18          1           0        5.947106   -0.150159    1.296824
     19          1           0        5.665850   -1.712971    0.509796
     20          1           0        3.547784    0.206808    1.450034
     21          1           0        3.267799   -1.360266    0.663266
     22          1           0        2.211154   -0.194783   -1.284533
     23          1           0        2.492458    1.373339   -0.499493
     24          1           0       -0.193034    0.165473   -1.130796
     25          1           0        0.076422    1.727430   -0.331221
     26          1           0       -0.975852    0.815676    1.755137
     27          1           0       -1.321503   -0.704355    0.924353
     28          1           0       -5.222269    0.070593   -1.390574
     29          1           0       -5.755729    0.412072    0.264233
     30          1           0       -6.122720   -2.299921    0.603298
     31          1           0       -3.460250    2.962810    0.576988
     32          1           0       -2.919207    2.671274   -1.140992
 ---------------------------------------------------------------------

 SCF Done:  E(RB3LYP) =  -692.637117716     A.U. after    1 cycles

 The electronic state is 1-A.
 Alpha  occ. eigenvalues --  -19.19538 -19.19225 -19.14094 -19.13703 -10.24686
 Alpha  occ. eigenvalues --  -10.23067 -10.22695 -10.22487 -10.22371 -10.19747
 Alpha  occ. eigenvalues --  -10.19608 -10.19504 -10.19234 -10.17450  -1.11852
 Alpha  occ. eigenvalues --   -1.03894  -1.02904  -0.91616  -0.86949  -0.78564
 Alpha  occ. eigenvalues --   -0.76002  -0.71361  -0.70067  -0.63479  -0.60613
 Alpha  occ. eigenvalues --   -0.60183  -0.58179  -0.53278  -0.51604  -0.50212
 Alpha  occ. eigenvalues --   -0.49832  -0.48373  -0.47810  -0.47523  -0.45380
 Alpha  occ. eigenvalues --   -0.44566  -0.44329  -0.43443  -0.42029  -0.40342
 Alpha  occ. eigenvalues --   -0.39570  -0.38745  -0.38150  -0.36682  -0.35364
 Alpha  occ. eigenvalues --   -0.34351  -0.32659  -0.31855  -0.31313  -0.30384
 Alpha  occ. eigenvalues --   -0.28385  -0.26657  -0.25863  -0.25120  -0.23371
 Alpha virt. eigenvalues --    0.02243   0.02885   0.07807   0.08703   0.09414
 Alpha virt. eigenvalues --    0.11443   0.11970   0.13023   0.13176   0.14203
 Alpha virt. eigenvalues --    0.14479   0.14847   0.15650   0.15821   0.16639

 Mulliken charges:
               1
     1  C   -0.384919
     2  C   -0.024954
     3  O   -0.245834
     4  C   -0.068873
     5  C   -0.072039
     6  O   -0.250162
     7  C   -0.043745
     8  C   -0.353012
     9  C    0.214603
    10  C    0.191921
    11  C   -0.157735
    12  O   -0.188713
    13  O   -0.313517
    14  C   -0.399955
    15  H    0.114441
    16  H    0.126285
    17  H    0.126551
    18  H    0.085723
    19  H    0.086108
    20  H    0.093473
    21  H    0.094424
    22  H    0.096938
    23  H    0.095856
    24  H    0.096384
    25  H    0.096369
    26  H    0.124705
    27  H    0.129410
    28  H    0.126702
    29  H    0.108497
    30  H    0.312398
    31  H    0.090429
    32  H    0.092243
 Sum of Mulliken charges =   0.00000

 Dipole moment (field-independent basis, Debye):
    X=             -0.2599    Y=              0.3107    Z=              1.2113  Tot=              1.2773
 Quadrupole moment (field-independent basis, Debye-Ang):
   XX=            -69.6010   YY=            -85.5300   ZZ=            -83.7611
   XY=             -2.7182   XZ=             -4.1777   YZ=             -2.9716

  Exact polarizability: 174.094   4.265 119.845   3.428  -2.799 100.512
 Approx polarizability: 198.060   8.614 171.878  10.300  -3.356 154.100

                      1                      2                      3
                      A                      A                      A
 Frequencies --     15.7251                28.6299                39.7407
 Red. masses --      4.7765                 1.9992                 4.2637
 Frc consts  --      0.0007                 0.0010                 0.0040
 IR Inten    --      0.1425                 0.1889                 0.1255

                      4                      5                      6
                      A                      A                      A
 Frequencies --     44.5130                76.1781                80.3001
 Red. masses --      3.1913                 3.0766                 2.7921
 Frc consts  --      0.0037                 0.0105                 0.0106
 IR Inten    --      0.7507                10.1057                 1.1798

                      7                      8                      9
                      A                      A                      A
 Frequencies --     84.4638                97.6776               108.4124
 Red. masses --      3.5806                 3.1255                 2.9147
 Frc consts  --      0.0151                 0.0176                 0.0202
 IR Inten    --      2.5048                 0.8033                 0.6155

                     10                     11                     12
                      A                      A                      A
 Frequencies --    123.0041               132.3950               159.5434
 Red. masses --      2.8850                 2.6016                 3.2526
 Frc consts  --      0.0257                 0.0269                 0.0488
 IR Inten    --      0.2478                 0.0918                 8.0303

                     13                     14                     15
                      A                      A                      A
 Frequencies --    185.1160               229.1056               240.5557
 Red. masses --      3.9855                 1.1154                 3.6767
 Frc consts  --      0.0805                 0.0345                 0.1254
 IR Inten    --      0.8372                94.5817                 2.7013

                     16                     17                     18
                      A                      A                      A
 Frequencies --    246.9315               278.7537               328.2698
 Red. masses --      1.1623                 3.7386                 3.6116
 Frc consts  --      0.0418                 0.1712                 0.2293
 IR Inten    --      0.6982                 2.8525                 6.6016

                     19                     20                     21
                      A                      A                      A
 Frequencies --    363.9274               403.4923               425.1180
 Red. masses --      4.0412                 5.8039                 3.1540
 Frc consts  --      0.3153                 0.5567                 0.3358
 IR Inten    --      3.6828                 2.6921                 0.0146

                     22                     23                     24
                      A                      A                      A
 Frequencies --    483.8050               497.8181               554.7216
 Red. masses --      3.7945                 3.6619                 3.5733
 Frc consts  --      0.5233                 0.5347                 0.6478
 IR Inten    --      0.8605                 0.5384                 2.4993

                     25                     26                     27
                      A                      A                      A
 Frequencies --    755.6384               802.4727               819.5158
 Red. masses --      2.9836                 1.5002                 1.0815
 Frc consts  --      1.0037                 0.5692                 0.4280
 IR Inten    --      4.0742                 2.7303                 0.3387

                     28                     29                     30
                      A                      A                      A
 Frequencies --    836.0162               848.2617               897.7953
 Red. masses --      1.1385                 2.5023                 2.1067
 Frc consts  --      0.4688                 1.0608                 1.0005
 IR Inten    --      0.3835                 7.7040                 9.8437

                     31                     32                     33
                      A                      A                      A
 Frequencies --    955.5572               982.0637              1022.3310
 Red. masses --      9.6518                 1.1664                 2.4632
 Frc consts  --      5.1925                 0.6628                 1.5168
 IR Inten    --      7.7422                 1.7639                17.4516

                     34                     35                     36
                      A                      A                      A
 Frequencies --   1027.3668              1048.7981              1052.5225
 Red. masses --      2.0708                 3.3730                 2.9778
 Frc consts  --      1.2878                 2.1860                 1.9436
 IR Inten    --     12.7742                 1.4395                27.6794

                     37                     38                     39
                      A                      A                      A
 Frequencies --   1056.8703              1063.6634              1089.7257
 Red. masses --      2.5874                 1.7636                 2.0932
 Frc consts  --      1.7028                 1.1756                 1.4645
 IR Inten    --      4.3787                14.4904                11.1627

                     40                     41                     42
                      A                      A                      A
 Frequencies --   1103.8880              1118.5122              1158.5391
 Red. masses --      2.9077                 1.4627                 4.4525
 Frc consts  --      2.0876                 1.0782                 3.5211
 IR Inten    --     15.3698                 1.1211                 5.3660

                     43                     44                     45
                      A                      A                      A
 Frequencies --   1159.2341              1166.8597              1173.9086
 Red. masses --      2.1790                 2.4268                 3.5842
 Frc consts  --      1.7253                 1.9468                 2.9101
 IR Inten    --     22.7881               116.5842                77.1782

                     46                     47                     48
                      A                      A                      A
 Frequencies --   1177.2314              1193.9413              1203.3558
 Red. masses --      5.0889                 1.5977                 3.0543
 Frc consts  --      4.1553                 1.3419                 2.6058
 IR Inten    --    368.5619                 4.1489                 4.2191

                     49                     50                     51
                      A                      A                      A
 Frequencies --   1223.4566              1230.8265              1246.8255
 Red. masses --      1.0953                 1.2177                 1.2936
 Frc consts  --      0.9660                 1.0869                 1.1848
 IR Inten    --      0.5452                 7.0069                 6.7119

                     52                     53                     54
                      A                      A                      A
 Frequencies --   1291.3133              1296.2568              1300.3137
 Red. masses --      1.0940                 1.1035                 1.2645
 Frc consts  --      1.0748                 1.0924                 1.2596
 IR Inten    --      0.0276                 2.1559                 5.4955

                     55                     56                     57
                      A                      A                      A
 Frequencies --   1311.6120              1349.4342              1381.0172
 Red. masses --      1.2386                 1.2584                 1.2876
 Frc consts  --      1.2554                 1.3501                 1.4469
 IR Inten    --     11.4626                73.3304                90.2240

                     58                     59                     60
                      A                      A                      A
 Frequencies --   1393.9218              1395.9871              1408.1664
 Red. masses --      1.2642                 1.2678                 1.3252
 Frc consts  --      1.4473                 1.4556                 1.5483
 IR Inten    --      0.6986                 0.0640                 0.2421

                     61                     62                     63
                      A                      A                      A
 Frequencies --   1434.6487              1466.5786              1478.0235
 Red. masses --      1.4425                 1.5804                 1.0861
 Frc consts  --      1.7493                 2.0028                 1.3980
 IR Inten    --     33.2491                 0.4208                 1.6218

                     64                     65                     66
                      A                      A                      A
 Frequencies --   1483.4669              1499.7195              1500.4046
 Red. masses --      1.0405                 1.0484                 1.0746
 Frc consts  --      1.3491                 1.3893                 1.4254
 IR Inten    --      4.0790                 2.1970                 8.3964

                     67                     68                     69
                      A                      A                      A
 Frequencies --   1513.6351              1520.6740              1530.9623
 Red. masses --      1.0790                 1.0854                 1.0900
 Frc consts  --      1.4565                 1.4788                 1.5052
 IR Inten    --      0.7754                15.1243                 7.1543

                     70                     71                     72
                      A                      A                      A
 Frequencies --   1537.8000              1541.0276              1966.5418
 Red. masses --      1.0975                 1.0884                10.7191
 Frc consts  --      1.5292                 1.5229                24.4238
 IR Inten    --      0.2518                 1.1637                10.2442

                     73                     74                     75
                      A                      A                      A
 Frequencies --   2951.0477              2960.4876              2968.0953
 Red. masses --      1.0542                 1.0537                 1.0547
 Frc consts  --      5.4093                 5.4410                 5.4746
 IR Inten    --     31.2433                19.9503                24.0797

                     76                     77                     78
                      A                      A                      A
 Frequencies --   2975.0015              2977.3931              2977.5232
 Red. masses --      1.0542                 1.1050                 1.0619
 Frc consts  --      5.4972                 5.7715                 5.5468
 IR Inten    --     99.8790                56.2691                41.0702

                     79                     80                     81
                      A                      A                      A
 Frequencies --   2987.3577              2993.0949              3013.5645
 Red. masses --      1.1037                 1.1054                 1.0971
 Frc consts  --      5.8031                 5.8348                 5.8705
 IR Inten    --      0.2087                40.8507                25.7113

                     82                     83                     84
                      A                      A                      A
 Frequencies --   3015.3850              3018.3932              3025.8108
 Red. masses --      1.1093                 1.0479                 1.0631
 Frc consts  --      5.9427                 5.6251                 5.7348
 IR Inten    --     87.1762                92.2038                22.9053

                     85                     86                     87
                      A                      A                      A
 Frequencies --   3044.4135              3077.5446              3086.7807
 Red. masses --      1.0347                 1.1153                 1.0984
 Frc consts  --      5.6501                 6.2235                 6.1662
 IR Inten    --     18.2105                49.4052                15.9536

                     88                     89                     90
                      A                      A                      A
 Frequencies --   3118.9913              3120.7911              3748.7139
 Red. masses --      1.1015                 1.1027                 1.0687
 Frc consts  --      6.3132                 6.3273                 8.8482
 IR Inten    --     25.6790                26.3905                34.3875

 - Thermochemistry -
 -------------------
 Temperature   298.150 Kelvin.  Pressure   1.00000 Atm.
 Atom     1 has atomic number  6 and mass  12.00000

 Molecular mass:   202.12051 amu.
 Principal axes and moments of inertia in atomic units:
                           1         2         3
     Eigenvalues --   968.26274********************
           X            0.99997  -0.00753  -0.00069
           Y            0.00751   0.99975  -0.02084
           Z            0.00085   0.02084   0.99978
 This molecule is an asymmetric top.
 Rotational symmetry number  1.
 Warning -- assumption of classical behavior for rotation
           may cause significant error
 Rotational temperatures (Kelvin)      0.08945     0.00687     0.00653
 Rotational constants (GHZ):           1.86390     0.14319     0.13617
 Zero-point vibrational energy     713604.0 (Joules/Mol)
                                  170.55545 (Kcal/Mol)
 Warning -- explicit consideration of  24 degrees of freedom as
           vibrations may cause significant error
 Vibrational temperatures:     22.62    41.19    57.18    64.04   109.60
          (Kelvin)            115.53   121.52   140.54   155.98   176.98
                              190.49   229.55   266.34   329.63   346.11
                              355.28   401.06   472.31   523.61   580.54
                              611.65   696.09   716.25   798.12  1087.20
                             1154.58  1179.10  1202.84  1220.46  1291.73
                             1374.83  1412.97  1470.91  1478.15  1508.99
                             1514.35  1520.60  1530.37  1567.87  1588.25
                             1609.29  1666.88  1667.88  1678.85  1688.99
                             1693.77  1717.82  1731.36  1760.28  1770.88
                             1793.90  1857.91  1865.02  1870.86  1887.12
                             1941.53  1986.98  2005.54  2008.51  2026.04
                             2064.14  2110.08  2126.55  2134.38  2157.76
                             2158.75  2177.78  2187.91  2202.71  2212.55
                             2217.20  2829.42  4245.90  4259.48  4270.43
                             4280.36  4283.80  4283.99  4298.14  4306.40
                             4335.85  4338.47  4342.79  4353.47  4380.23
                             4427.90  4441.19  4487.53  4490.12  5393.56

 Zero-point correction=                           0.271797 (Hartree/Particle)
 Thermal correction to Energy=                    0.289490
 Thermal correction to Enthalpy=                  0.290435
 Thermal correction to Gibbs Free Energy=         0.222156
 Sum of electronic and zero-point Energies=           -692.365320
 Sum of electronic and thermal Energies=              -692.347627
 Sum of electronic and thermal Enthalpies=            -692.346683
 Sum of electronic and thermal Free Energies=         -692.414962

                     E (Thermal)             CV                S
                      KCal/Mol        Cal/Mol-Kelvin    Cal/Mol-Kelvin
 Total                  181.658             59.441            143.704
 Electronic               0.000              0.000              0.000
 Translational            0.889              2.981             41.816
 Rotational               0.889              2.981             33.447
 Vibrational            179.880             53.479             68.441
 Vibration     1          0.593              1.986              7.112
 Vibration     2          0.593              1.984              5.922
 Vibration     3          0.594              1.981              5.272
 Vibration     4          0.595              1.980              5.047
 Vibration     5          0.599              1.965              3.987
 Vibration     6          0.600              1.963              3.884
 Vibration     7          0.601              1.960              3.784
 Vibration     8          0.603              1.951              3.500
 Vibration     9          0.606              1.942              3.297
 Vibration    10          0.610              1.930              3.053
 Vibration    11          0.613              1.921              2.911
 Vibration    12          0.621              1.892              2.555
 Vibration    13          0.631              1.860              2.276
 Vibration    14          0.652              1.797              1.886
 Vibration    15          0.658              1.778              1.799
 Vibration    16          0.661              1.768              1.752
 Vibration    17          0.679              1.713              1.541
 Vibration    18          0.711              1.619              1.269
 Vibration    19          0.737              1.547              1.105
 Vibration    20          0.769              1.463              0.950
 Vibration    21          0.787              1.416              0.875
 Vibration    22          0.840              1.286              0.700
 Vibration    23          0.853              1.255              0.664
 Vibration    24          0.910              1.129              0.534

                           ! Non-Optimized Parameters !
 Normal termination of Gaussian 16 at Sun May 28 03:22:55 2023.
