 Gaussian 16, Revision A.03,
 Gaussian 16:  ES64L-G16RevA.03 25-Dec-2016

 -----------------------------
 # opt freq b3lyp/6-31g(2df,p)
 -----------------------------

 -------------------
 Title Card Required
 -------------------
 Symbolic Z-matrix:
 Charge =  0 Multiplicity = 1

 SCF Done:  E(RB3LYP) =  -658.894375211     A.U. after   12 cycles
 SCF Done:  E(RB3LYP) =  -658.906453511     A.U. after   11 cycles
 SCF Done:  E(RB3LYP) =  -658.909570859     A.U. after   10 cycles
 SCF Done:  E(RB3LYP) =  -658.911341144     A.U. after   10 cycles
 SCF Done:  E(RB3LYP) =  -658.911825372     A.U. after   10 cycles
 SCF Done:  E(RB3LYP) =  -658.912008378     A.U. after   10 cycles
 SCF Done:  E(RB3LYP) =  -658.912060272     A.U. after    9 cycles
 SCF Done:  E(RB3LYP) =  -658.912100296     A.U. after    9 cycles
 SCF Done:  E(RB3LYP) =  -658.912119612     A.U. after    8 cycles
 SCF Done:  E(RB3LYP) =  -658.912126468     A.U. after    8 cycles
 SCF Done:  E(RB3LYP) =  -658.912129723     A.U. after    8 cycles
 SCF Done:  E(RB3LYP) =  -658.912131177     A.U. after    8 cycles
 SCF Done:  E(RB3LYP) =  -658.912131818     A.U. after    8 cycles
 SCF Done:  E(RB3LYP) =  -658.912131943     A.U. after    7 cycles
 SCF Done:  E(RB3LYP) =  -658.912131969     A.U. after    6 cycles
 Optimization completed.
    -- Stationary point found.
 Normal termination of Gaussian 16 at Wed May 24 12:54:51 2023.

 ----------------------------------------------------------------------
 #N Geom=AllCheck Guess=TCheck SCRF=Check GenChk RB3LYP/6-31G(2df,p) Fr
 eq
 ----------------------------------------------------------------------

 Structure from the checkpoint file:  "CCOCqCNrCCCCCqCrCqCrN.chk"
 -------------------
 Title Card Required
 -------------------
 Charge =  0 Multiplicity = 1

                         Standard orientation:
 ---------------------------------------------------------------------
 Center     Atomic      Atomic             Coordinates (Angstroms)
 Number     Number       Type             X           Y           Z
 ---------------------------------------------------------------------
      1          6           0        5.908234   -1.782925    0.112102
      2          6           0        4.976333   -0.680950    0.589327
      3          8           0        3.856067   -0.649529   -0.282672
      4          6           0        2.817818    0.257908    0.057356
      5          6           0        3.052336    1.636335   -0.577934
      6          7           0        4.164396    2.354493    0.057105
      7          6           0        1.504339   -0.383519   -0.414583
      8          6           0        0.227349    0.243759    0.156731
      9          6           0       -1.045451   -0.489287   -0.285964
     10          6           0       -2.322909    0.129076    0.297458
     11          6           0       -3.637187   -0.483563   -0.224619
     12          6           0       -3.695649   -2.000426    0.017190
     13          6           0       -4.890396    0.204195    0.374216
     14          6           0       -4.856702    1.739697    0.294314
     15          7           0       -6.090629   -0.363032   -0.267162
     16          1           0        6.781762   -1.853850    0.767728
     17          1           0        6.255481   -1.577462   -0.904769
     18          1           0        5.395587   -2.749503    0.108122
     19          1           0        5.483779    0.290562    0.595430
     20          1           0        4.639624   -0.887208    1.620442
     21          1           0        2.778203    0.373341    1.155644
     22          1           0        2.106075    2.202681   -0.566539
     23          1           0        3.314125    1.466133   -1.628457
     24          1           0        3.888634    2.659085    0.986809
     25          1           0        4.371176    3.200731   -0.464576
     26          1           0        1.550048   -1.440427   -0.129770
     27          1           0        1.473905   -0.364673   -1.512416
     28          1           0        0.152414    1.298135   -0.139602
     29          1           0        0.281067    0.241615    1.254813
     30          1           0       -0.966555   -1.543443    0.004001
     31          1           0       -1.104967   -0.479175   -1.383657
     32          1           0       -2.307085    1.202622    0.078032
     33          1           0       -2.297340    0.041263    1.394081
     34          1           0       -3.673001   -0.309379   -1.313086
     35          1           0       -3.525284   -2.228110    1.077243
     36          1           0       -2.936198   -2.532635   -0.561704
     37          1           0       -4.677462   -2.388771   -0.257225
     38          1           0       -4.947047   -0.080806    1.435069
     39          1           0       -4.709994    2.074757   -0.740435
     40          1           0       -4.064975    2.180396    0.906987
     41          1           0       -5.809248    2.152465    0.644292
     42          1           0       -6.123482   -0.057706   -1.238035
     43          1           0       -6.922844    0.023564    0.169793
 ---------------------------------------------------------------------

 SCF Done:  E(RB3LYP) =  -658.912131969     A.U. after    1 cycles

 The electronic state is 1-A.
 Alpha  occ. eigenvalues --  -19.11883 -14.30859 -14.30293 -10.22101 -10.20757
 Alpha  occ. eigenvalues --  -10.20529 -10.19825 -10.17888 -10.17582 -10.17313
 Alpha  occ. eigenvalues --  -10.17213 -10.17088 -10.17003 -10.16224 -10.15621
 Alpha  occ. eigenvalues --   -1.01222  -0.88083  -0.87518  -0.80565  -0.78092
 Alpha  occ. eigenvalues --   -0.74880  -0.71898  -0.70961  -0.67727  -0.63821
 Alpha  occ. eigenvalues --   -0.61712  -0.59535  -0.57579  -0.56762  -0.55161
 Alpha  occ. eigenvalues --   -0.49307  -0.47896  -0.47600  -0.47024  -0.45215
 Alpha  occ. eigenvalues --   -0.44897  -0.44382  -0.42646  -0.42442  -0.41341
 Alpha  occ. eigenvalues --   -0.40910  -0.40119  -0.38688  -0.38543  -0.37736
 Alpha  occ. eigenvalues --   -0.36732  -0.36247  -0.35850  -0.35223  -0.34335
 Alpha  occ. eigenvalues --   -0.33488  -0.33011  -0.32724  -0.31756  -0.31231
 Alpha  occ. eigenvalues --   -0.30913  -0.30005  -0.29360  -0.25202  -0.23207
 Alpha  occ. eigenvalues --   -0.22049
 Alpha virt. eigenvalues --    0.07871   0.08302   0.09324   0.10486   0.11022
 Alpha virt. eigenvalues --    0.11490   0.12013   0.12341   0.13326   0.13850
 Alpha virt. eigenvalues --    0.14489   0.14854   0.15511   0.16558   0.17025

 Mulliken charges:
               1
     1  C   -0.381098
     2  C   -0.038801
     3  O   -0.267871
     4  C    0.129273
     5  C   -0.150418
     6  N   -0.508335
     7  C   -0.203391
     8  C   -0.193177
     9  C   -0.189086
    10  C   -0.196443
    11  C    0.049869
    12  C   -0.395013
    13  C    0.043853
    14  C   -0.401791
    15  N   -0.507690
    16  H    0.107839
    17  H    0.122048
    18  H    0.117832
    19  H    0.114949
    20  H    0.071155
    21  H    0.051336
    22  H    0.077480
    23  H    0.110619
    24  H    0.222550
    25  H    0.226816
    26  H    0.101553
    27  H    0.095985
    28  H    0.093301
    29  H    0.090982
    30  H    0.101326
    31  H    0.091005
    32  H    0.090583
    33  H    0.087330
    34  H    0.056866
    35  H    0.101452
    36  H    0.107640
    37  H    0.135265
    38  H    0.075154
    39  H    0.105640
    40  H    0.116249
    41  H    0.100041
    42  H    0.216645
    43  H    0.220477
 Sum of Mulliken charges =  -0.00000

 Dipole moment (field-independent basis, Debye):
    X=             -1.0978    Y=              2.8078    Z=              0.5714  Tot=              3.0684
 Quadrupole moment (field-independent basis, Debye-Ang):
   XX=            -99.6779   YY=            -95.2839   ZZ=            -94.4195
   XY=             -2.3332   XZ=              3.6004   YZ=             -1.2437

  Exact polarizability: 190.828  -3.509 146.092   2.278   0.357 128.173
 Approx polarizability: 212.761  -1.206 202.585   1.828   0.231 207.771

                      1                      2                      3
                      A                      A                      A
 Frequencies --     16.0166                27.6297                41.8149
 Red. masses --      2.9332                 3.6526                 3.0427
 Frc consts  --      0.0004                 0.0016                 0.0031
 IR Inten    --      0.0581                 0.0317                 0.1373

                      4                      5                      6
                      A                      A                      A
 Frequencies --     47.1104                63.0448                76.2394
 Red. masses --      2.0362                 3.1716                 2.7079
 Frc consts  --      0.0027                 0.0074                 0.0093
 IR Inten    --      0.1208                 0.4698                 0.3218

                      7                      8                      9
                      A                      A                      A
 Frequencies --     86.8124               107.7509               118.8129
 Red. masses --      2.0835                 2.5033                 2.5504
 Frc consts  --      0.0093                 0.0171                 0.0212
 IR Inten    --      1.2334                 1.0645                 1.7501

                     10                     11                     12
                      A                      A                      A
 Frequencies --    140.3202               154.2503               173.5144
 Red. masses --      2.7170                 2.2155                 3.2213
 Frc consts  --      0.0315                 0.0311                 0.0571
 IR Inten    --      2.5805                 0.7353                 0.0991

                     13                     14                     15
                      A                      A                      A
 Frequencies --    214.0906               226.1444               240.0021
 Red. masses --      2.3493                 1.1486                 1.1810
 Frc consts  --      0.0634                 0.0346                 0.0401
 IR Inten    --      5.2687                 2.2404                21.3109

                     16                     17                     18
                      A                      A                      A
 Frequencies --    245.4114               248.6438               250.3792
 Red. masses --      1.5393                 1.3253                 1.3165
 Frc consts  --      0.0546                 0.0483                 0.0486
 IR Inten    --     25.5700                 4.1782                 8.6053

                     19                     20                     21
                      A                      A                      A
 Frequencies --    259.5756               308.0880               334.8156
 Red. masses --      1.3532                 2.8040                 2.6893
 Frc consts  --      0.0537                 0.1568                 0.1776
 IR Inten    --      0.9105                 2.0125                 1.6681

                     22                     23                     24
                      A                      A                      A
 Frequencies --    366.6855               382.5222               389.6240
 Red. masses --      2.1563                 3.3854                 2.5161
 Frc consts  --      0.1708                 0.2919                 0.2250
 IR Inten    --      5.1113                 3.3681                 1.5055

                     25                     26                     27
                      A                      A                      A
 Frequencies --    436.9373               439.0491               476.5160
 Red. masses --      2.6512                 3.2546                 2.4694
 Frc consts  --      0.2982                 0.3696                 0.3304
 IR Inten    --     11.0934                12.3016                 5.0972

                     28                     29                     30
                      A                      A                      A
 Frequencies --    501.8924               547.8713               579.0394
 Red. masses --      2.5249                 2.4626                 3.0240
 Frc consts  --      0.3747                 0.4355                 0.5974
 IR Inten    --      2.0683                 1.1432                 6.9742

                     31                     32                     33
                      A                      A                      A
 Frequencies --    734.8081               768.0627               801.4971
 Red. masses --      1.0983                 1.3602                 1.9709
 Frc consts  --      0.3494                 0.4728                 0.7460
 IR Inten    --      2.7555                 0.4908                 4.2474

                     34                     35                     36
                      A                      A                      A
 Frequencies --    817.3472               822.5237               865.1779
 Red. masses --      1.4689                 1.1023                 1.7921
 Frc consts  --      0.5782                 0.4394                 0.7904
 IR Inten    --     41.6348                 8.1719                 7.7775

                     37                     38                     39
                      A                      A                      A
 Frequencies --    875.6098               880.7638               905.3237
 Red. masses --      1.8134                 1.8641                 1.6299
 Frc consts  --      0.8191                 0.8520                 0.7871
 IR Inten    --     77.5973                41.1962                47.4067

                     40                     41                     42
                      A                      A                      A
 Frequencies --    932.8605               947.0290               977.4366
 Red. masses --      1.5693                 1.6021                 1.5842
 Frc consts  --      0.8046                 0.8466                 0.8917
 IR Inten    --     12.1068                11.9161                40.2623

                     43                     44                     45
                      A                      A                      A
 Frequencies --    984.3715              1012.2467              1018.8439
 Red. masses --      1.3509                 3.2719                 1.6875
 Frc consts  --      0.7712                 1.9752                 1.0321
 IR Inten    --      3.2050                 3.1518                 2.1981

                     46                     47                     48
                      A                      A                      A
 Frequencies --   1030.7360              1052.5780              1061.0383
 Red. masses --      2.4806                 2.4384                 1.9192
 Frc consts  --      1.5528                 1.5917                 1.2730
 IR Inten    --      3.4580                14.5917                 5.6884

                     49                     50                     51
                      A                      A                      A
 Frequencies --   1070.6035              1077.3422              1083.6518
 Red. masses --      1.7108                 2.7631                 2.3112
 Frc consts  --      1.1553                 1.8895                 1.5991
 IR Inten    --      1.6361                 2.2162                12.1308

                     52                     53                     54
                      A                      A                      A
 Frequencies --   1094.9924              1114.8516              1134.2702
 Red. masses --      1.6882                 1.9475                 2.5249
 Frc consts  --      1.1926                 1.4262                 1.9140
 IR Inten    --     12.4045                 5.5515                71.0616

                     55                     56                     57
                      A                      A                      A
 Frequencies --   1148.3716              1156.6855              1168.8938
 Red. masses --      2.8795                 2.6003                 1.9904
 Frc consts  --      2.2374                 2.0498                 1.6023
 IR Inten    --    125.3864                54.5630                19.0045

                     58                     59                     60
                      A                      A                      A
 Frequencies --   1187.9331              1189.7737              1221.6248
 Red. masses --      1.8136                 1.5280                 1.7423
 Frc consts  --      1.5079                 1.2744                 1.5320
 IR Inten    --      0.6100                 3.4090                 1.9060

                     61                     62                     63
                      A                      A                      A
 Frequencies --   1239.4020              1259.7210              1285.1048
 Red. masses --      1.4650                 1.4012                 1.3737
 Frc consts  --      1.3259                 1.3101                 1.3366
 IR Inten    --      3.8323                 1.4682                 0.7625

                     64                     65                     66
                      A                      A                      A
 Frequencies --   1290.9491              1311.2307              1316.2883
 Red. masses --      1.1099                 1.2245                 1.2083
 Frc consts  --      1.0898                 1.2404                 1.2334
 IR Inten    --      2.8445                 3.1789                 0.8118

                     67                     68                     69
                      A                      A                      A
 Frequencies --   1327.6668              1332.9195              1335.5070
 Red. masses --      1.2296                 1.1502                 1.2187
 Frc consts  --      1.2770                 1.2040                 1.2807
 IR Inten    --      1.7367                 5.7832                 6.8113

                     70                     71                     72
                      A                      A                      A
 Frequencies --   1354.0804              1365.0279              1368.3294
 Red. masses --      1.2266                 1.2817                 1.3399
 Frc consts  --      1.3251                 1.4071                 1.4781
 IR Inten    --      6.7793                20.1879                 7.3443

                     73                     74                     75
                      A                      A                      A
 Frequencies --   1373.0647              1388.4875              1397.0073
 Red. masses --      1.3062                 1.3920                 1.4635
 Frc consts  --      1.4509                 1.5812                 1.6828
 IR Inten    --      7.8062                10.3914                 1.0140

                     76                     77                     78
                      A                      A                      A
 Frequencies --   1401.3762              1402.5366              1404.0819
 Red. masses --      1.3728                 1.3326                 1.2631
 Frc consts  --      1.5884                 1.5445                 1.4672
 IR Inten    --      2.5988                 4.9023                14.9981

                     79                     80                     81
                      A                      A                      A
 Frequencies --   1411.3872              1427.4133              1440.0588
 Red. masses --      1.2640                 1.4599                 1.4177
 Frc consts  --      1.4835                 1.7526                 1.7322
 IR Inten    --      4.0195                 3.9679                 4.3464

                     82                     83                     84
                      A                      A                      A
 Frequencies --   1479.9055              1482.5356              1482.8248
 Red. masses --      1.0764                 1.0422                 1.0745
 Frc consts  --      1.3889                 1.3497                 1.3920
 IR Inten    --      0.2475                 3.2207                 0.8629

                     85                     86                     87
                      A                      A                      A
 Frequencies --   1490.7875              1492.5422              1495.4085
 Red. masses --      1.0731                 1.0771                 1.0653
 Frc consts  --      1.4052                 1.4137                 1.4036
 IR Inten    --      1.8624                 2.5904                 6.6785

                     88                     89                     90
                      A                      A                      A
 Frequencies --   1496.2658              1502.4529              1504.5675
 Red. masses --      1.0799                 1.0460                 1.0545
 Frc consts  --      1.4244                 1.3912                 1.4064
 IR Inten    --      0.3947                 1.3222                 9.7865

                     91                     92                     93
                      A                      A                      A
 Frequencies --   1511.9848              1513.3789              1536.6467
 Red. masses --      1.0946                 1.0530                 1.0861
 Frc consts  --      1.4743                 1.4209                 1.5110
 IR Inten    --      0.7997                 3.9501                 1.7372

                     94                     95                     96
                      A                      A                      A
 Frequencies --   1654.8505              1657.4054              2936.9856
 Red. masses --      1.0900                 1.0885                 1.0803
 Frc consts  --      1.7587                 1.7617                 5.4902
 IR Inten    --     21.2803                24.1518                 9.9019

                     97                     98                     99
                      A                      A                      A
 Frequencies --   2951.1661              2958.0492              2962.9099
 Red. masses --      1.0716                 1.0699                 1.0800
 Frc consts  --      5.4989                 5.5158                 5.5862
 IR Inten    --     86.7236                84.4385                12.3773

                    100                    101                    102
                      A                      A                      A
 Frequencies --   2995.6176              3001.9907              3002.4254
 Red. masses --      1.0700                 1.0684                 1.0718
 Frc consts  --      5.6573                 5.6726                 5.6924
 IR Inten    --      1.8991                12.1806                13.9953

                    103                    104                    105
                      A                      A                      A
 Frequencies --   3013.0161              3019.6976              3023.0431
 Red. masses --      1.0638                 1.0381                 1.0657
 Frc consts  --      5.6898                 5.5771                 5.7381
 IR Inten    --     37.2042                22.0312                54.3326

                    106                    107                    108
                      A                      A                      A
 Frequencies --   3028.4163              3035.2704              3039.9121
 Red. masses --      1.0454                 1.0905                 1.0348
 Frc consts  --      5.6488                 5.9191                 5.6344
 IR Inten    --     31.7317                 8.3397                23.9664

                    109                    110                    111
                      A                      A                      A
 Frequencies --   3048.8800              3054.3309              3063.3780
 Red. masses --      1.0933                 1.0895                 1.0903
 Frc consts  --      5.9879                 5.9881                 6.0285
 IR Inten    --      3.5948                15.9717                27.9812

                    112                    113                    114
                      A                      A                      A
 Frequencies --   3068.0569              3078.8407              3084.8075
 Red. masses --      1.0995                 1.1012                 1.1003
 Frc consts  --      6.0978                 6.1504                 6.1690
 IR Inten    --      9.6448               103.2336                42.8772

                    115                    116                    117
                      A                      A                      A
 Frequencies --   3099.4612              3104.5984              3113.5411
 Red. masses --      1.0930                 1.0988                 1.1011
 Frc consts  --      6.1863                 6.2398                 6.2890
 IR Inten    --     34.1898                37.9694                30.3179

                    118                    119                    120
                      A                      A                      A
 Frequencies --   3116.0936              3139.6370              3466.8784
 Red. masses --      1.1025                 1.0990                 1.0499
 Frc consts  --      6.3074                 6.3826                 7.4346
 IR Inten    --     31.5036                13.6982                 1.3281

                    121                    122                    123
                      A                      A                      A
 Frequencies --   3485.1207              3547.6502              3563.0946
 Red. masses --      1.0496                 1.0907                 1.0919
 Frc consts  --      7.5109                 8.0881                 8.1678
 IR Inten    --      0.5237                 0.4830                 0.1705

 - Thermochemistry -
 -------------------
 Temperature   298.150 Kelvin.  Pressure   1.00000 Atm.
 Atom     1 has atomic number  6 and mass  12.00000

 Molecular mass:   216.22016 amu.
 Principal axes and moments of inertia in atomic units:
                           1         2         3
     Eigenvalues --  1354.40120********************
           X            0.99999  -0.00365   0.00135
           Y            0.00365   0.99999  -0.00046
           Z           -0.00135   0.00047   1.00000
 This molecule is an asymmetric top.
 Rotational symmetry number  1.
 Warning -- assumption of classical behavior for rotation
           may cause significant error
 Rotational temperatures (Kelvin)      0.06395     0.00703     0.00649
 Rotational constants (GHZ):           1.33250     0.14650     0.13516
 Zero-point vibrational energy    1042987.7 (Joules/Mol)
                                  249.28003 (Kcal/Mol)
 Warning -- explicit consideration of  30 degrees of freedom as
           vibrations may cause significant error
 Vibrational temperatures:     23.04    39.75    60.16    67.78    90.71
          (Kelvin)            109.69   124.90   155.03   170.95   201.89
                              221.93   249.65   308.03   325.37   345.31
                              353.09   357.74   360.24   373.47   443.27
                              481.72   527.58   550.36   560.58   628.66
                              631.69   685.60   722.11   788.26   833.11
                             1057.22  1105.07  1153.18  1175.98  1183.43
                             1244.80  1259.81  1267.22  1302.56  1342.18
                             1362.56  1406.31  1416.29  1456.40  1465.89
                             1483.00  1514.43  1526.60  1540.36  1550.06
                             1559.13  1575.45  1604.02  1631.96  1652.25
                             1664.21  1681.78  1709.17  1711.82  1757.65
                             1783.22  1812.46  1848.98  1857.39  1886.57
                             1893.85  1910.22  1917.77  1921.50  1948.22
                             1963.97  1968.72  1975.53  1997.72  2009.98
                             2016.27  2017.94  2020.16  2030.67  2053.73
                             2071.92  2129.25  2133.04  2133.45  2144.91
                             2147.44  2151.56  2152.79  2161.69  2164.74
                             2175.41  2177.41  2210.89  2380.96  2384.64
                             4225.67  4246.07  4255.97  4262.97  4310.03
                             4319.20  4319.82  4335.06  4344.67  4349.48
                             4357.22  4367.08  4373.76  4386.66  4394.50
                             4407.52  4414.25  4429.77  4438.35  4459.43
                             4466.82  4479.69  4483.36  4517.24  4988.06
                             5014.31  5104.28  5126.50

 Zero-point correction=                           0.397253 (Hartree/Particle)
 Thermal correction to Energy=                    0.417389
 Thermal correction to Enthalpy=                  0.418333
 Thermal correction to Gibbs Free Energy=         0.346341
 Sum of electronic and zero-point Energies=           -658.514879
 Sum of electronic and thermal Energies=              -658.494743
 Sum of electronic and thermal Enthalpies=            -658.493799
 Sum of electronic and thermal Free Energies=         -658.565791

                     E (Thermal)             CV                S
                      KCal/Mol        Cal/Mol-Kelvin    Cal/Mol-Kelvin
 Total                  261.916             72.649            151.520
 Electronic               0.000              0.000              0.000
 Translational            0.889              2.981             42.017
 Rotational               0.889              2.981             33.765
 Vibrational            260.138             66.687             75.738
 Vibration     1          0.593              1.986              7.075
 Vibration     2          0.593              1.984              5.993
 Vibration     3          0.594              1.980              5.171
 Vibration     4          0.595              1.979              4.935
 Vibration     5          0.597              1.972              4.360
 Vibration     6          0.599              1.965              3.985
 Vibration     7          0.601              1.958              3.731
 Vibration     8          0.606              1.943              3.309
 Vibration     9          0.609              1.934              3.120
 Vibration    10          0.615              1.913              2.800
 Vibration    11          0.620              1.898              2.619
 Vibration    12          0.627              1.875              2.397
 Vibration    13          0.644              1.819              2.009
 Vibration    14          0.650              1.801              1.909
 Vibration    15          0.657              1.779              1.803
 Vibration    16          0.660              1.770              1.763
 Vibration    17          0.662              1.765              1.740
 Vibration    18          0.663              1.762              1.728
 Vibration    19          0.668              1.747              1.665
 Vibration    20          0.698              1.658              1.373
 Vibration    21          0.716              1.606              1.237
 Vibration    22          0.740              1.541              1.094
 Vibration    23          0.752              1.507              1.029
 Vibration    24          0.758              1.492              1.002
 Vibration    25          0.797              1.390              0.836
 Vibration    26          0.799              1.385              0.830
 Vibration    27          0.833              1.302              0.720
 Vibration    28          0.857              1.246              0.653
 Vibration    29          0.903              1.144              0.549
 Vibration    30          0.936              1.077              0.487

                           ! Non-Optimized Parameters !
 Normal termination of Gaussian 16 at Wed May 24 15:54:13 2023.
