 Gaussian 16, Revision A.03,
 Gaussian 16:  ES64L-G16RevA.03 25-Dec-2016

 -----------------------------
 # opt freq b3lyp/6-31g(2df,p)
 -----------------------------

 -------------------
 Title Card Required
 -------------------
 Symbolic Z-matrix:
 Charge =  0 Multiplicity = 1

 SCF Done:  E(RB3LYP) =  -541.373849924     A.U. after   12 cycles
 SCF Done:  E(RB3LYP) =  -541.380489486     A.U. after   11 cycles
 SCF Done:  E(RB3LYP) =  -541.382288981     A.U. after   10 cycles
 SCF Done:  E(RB3LYP) =  -541.383424260     A.U. after   10 cycles
 SCF Done:  E(RB3LYP) =  -541.383775315     A.U. after   10 cycles
 SCF Done:  E(RB3LYP) =  -541.383923822     A.U. after   10 cycles
 SCF Done:  E(RB3LYP) =  -541.383966781     A.U. after   10 cycles
 SCF Done:  E(RB3LYP) =  -541.383986604     A.U. after    9 cycles
 SCF Done:  E(RB3LYP) =  -541.383988862     A.U. after    7 cycles
 SCF Done:  E(RB3LYP) =  -541.383989954     A.U. after    7 cycles
 SCF Done:  E(RB3LYP) =  -541.383990221     A.U. after    7 cycles
 SCF Done:  E(RB3LYP) =  -541.383990313     A.U. after    7 cycles
 SCF Done:  E(RB3LYP) =  -541.383990331     A.U. after    6 cycles
 Optimization completed.
    -- Stationary point found.
 Normal termination of Gaussian 16 at Mon May 22 08:40:28 2023.

 ----------------------------------------------------------------------
 #N Geom=AllCheck Guess=TCheck SCRF=Check GenChk RB3LYP/6-31G(2df,p) Fr
 eq
 ----------------------------------------------------------------------

 Structure from the checkpoint file:  "CCOCqCOrCCCqCrO.chk"
 -------------------
 Title Card Required
 -------------------
 Charge =  0 Multiplicity = 1

                         Standard orientation:
 ---------------------------------------------------------------------
 Center     Atomic      Atomic             Coordinates (Angstroms)
 Number     Number       Type             X           Y           Z
 ---------------------------------------------------------------------
      1          6           0        3.851536   -1.833423    0.030025
      2          6           0        3.031834   -0.618422    0.432361
      3          8           0        1.804511   -0.664766   -0.282256
      4          6           0        0.820043    0.284295    0.090767
      5          6           0        1.105459    1.672073   -0.500432
      6          8           0        2.219292    2.337904    0.078680
      7          6           0       -0.527288   -0.272114   -0.395079
      8          6           0       -1.750710    0.339738    0.297768
      9          6           0       -3.101979   -0.134812   -0.258701
     10          6           0       -3.363361   -1.627433   -0.053137
     11          8           0       -4.164111    0.647226    0.284442
     12          1           0        4.806601   -1.842052    0.564216
     13          1           0        4.057419   -1.817878   -1.044202
     14          1           0        3.313511   -2.757511    0.260906
     15          1           0        3.572652    0.310331    0.217872
     16          1           0        2.828850   -0.634663    1.517418
     17          1           0        0.795972    0.370617    1.194300
     18          1           0        0.201478    2.296618   -0.437077
     19          1           0        1.350012    1.545106   -1.560129
     20          1           0        2.005246    2.527329    0.997873
     21          1           0       -0.494949   -1.352380   -0.227183
     22          1           0       -0.601085   -0.130089   -1.481963
     23          1           0       -1.740355    1.432039    0.211049
     24          1           0       -1.713389    0.112922    1.374296
     25          1           0       -3.130286    0.085454   -1.333563
     26          1           0       -3.315896   -1.885840    1.012872
     27          1           0       -2.629446   -2.245926   -0.578030
     28          1           0       -4.359111   -1.885798   -0.423113
     29          1           0       -4.217965    0.449399    1.226095
 ---------------------------------------------------------------------

 SCF Done:  E(RB3LYP) =  -541.383990331     A.U. after    1 cycles

 The electronic state is 1-A.
 Alpha  occ. eigenvalues --  -19.13944 -19.13089 -19.13057 -10.23145 -10.23104
 Alpha  occ. eigenvalues --  -10.22451 -10.21798 -10.18308 -10.18257 -10.17612
 Alpha  occ. eigenvalues --  -10.16954  -1.02986  -1.01349  -1.01230  -0.80535
 Alpha  occ. eigenvalues --   -0.76372  -0.72922  -0.69950  -0.65447  -0.61081
 Alpha  occ. eigenvalues --   -0.58991  -0.58206  -0.51561  -0.49286  -0.48054
 Alpha  occ. eigenvalues --   -0.47071  -0.46287  -0.43755  -0.43231  -0.42134
 Alpha  occ. eigenvalues --   -0.41811  -0.40345  -0.38564  -0.37334  -0.37123
 Alpha  occ. eigenvalues --   -0.35735  -0.34904  -0.34289  -0.33918  -0.32407
 Alpha  occ. eigenvalues --   -0.31487  -0.31092  -0.28462  -0.26542  -0.23542
 Alpha virt. eigenvalues --    0.07057   0.07451   0.09289   0.10417   0.11588
 Alpha virt. eigenvalues --    0.11992   0.13377   0.13562   0.14587   0.15527
 Alpha virt. eigenvalues --    0.16010   0.16988   0.17581   0.17752   0.17927

 Mulliken charges:
               1
     1  C   -0.380710
     2  C   -0.044564
     3  O   -0.266903
     4  C    0.101973
     5  C   -0.067821
     6  O   -0.414965
     7  C   -0.218035
     8  C   -0.209549
     9  C    0.134590
    10  C   -0.399313
    11  O   -0.432691
    12  H    0.111420
    13  H    0.125392
    14  H    0.119104
    15  H    0.114693
    16  H    0.072591
    17  H    0.046588
    18  H    0.090124
    19  H    0.120468
    20  H    0.280927
    21  H    0.111052
    22  H    0.101784
    23  H    0.106362
    24  H    0.082020
    25  H    0.089654
    26  H    0.103461
    27  H    0.124011
    28  H    0.125011
    29  H    0.273326
 Sum of Mulliken charges =  -0.00000

 Dipole moment (field-independent basis, Debye):
    X=             -0.1584    Y=             -0.5784    Z=              2.1413  Tot=              2.2237
 Quadrupole moment (field-independent basis, Debye-Ang):
   XX=            -77.3368   YY=            -71.7702   ZZ=            -64.2972
   XY=              1.9137   XZ=             -0.3984   YZ=              2.2824

  Exact polarizability: 120.513  -2.109  96.560   0.526   1.124  88.755
 Approx polarizability: 141.327  -2.568 132.507  -0.126   2.201 139.515

                      1                      2                      3
                      A                      A                      A
 Frequencies --     29.4061                47.1099                53.5536
 Red. masses --      3.0094                 3.4383                 1.8466
 Frc consts  --      0.0015                 0.0045                 0.0031
 IR Inten    --      0.8697                 0.2006                 0.3436

                      4                      5                      6
                      A                      A                      A
 Frequencies --     75.9801                97.6180               132.3512
 Red. masses --      3.4167                 3.1516                 3.0611
 Frc consts  --      0.0116                 0.0177                 0.0316
 IR Inten    --      1.6818                 4.7249                 0.8728

                      7                      8                      9
                      A                      A                      A
 Frequencies --    140.5453               200.3223               227.9065
 Red. masses --      2.1113                 2.8191                 2.3303
 Frc consts  --      0.0246                 0.0667                 0.0713
 IR Inten    --      1.0331                 2.2011                 2.5139

                     10                     11                     12
                      A                      A                      A
 Frequencies --    246.9047               251.2046               255.8276
 Red. masses --      1.1452                 1.7770                 1.8885
 Frc consts  --      0.0411                 0.0661                 0.0728
 IR Inten    --      1.8868                 0.9516                 3.3101

                     13                     14                     15
                      A                      A                      A
 Frequencies --    280.4445               300.3256               323.3249
 Red. masses --      1.1675                 1.1824                 3.9532
 Frc consts  --      0.0541                 0.0628                 0.2435
 IR Inten    --     90.8791               101.6321                 6.5417

                     16                     17                     18
                      A                      A                      A
 Frequencies --    399.7008               418.5132               441.2391
 Red. masses --      2.6935                 3.4537                 2.7480
 Frc consts  --      0.2535                 0.3564                 0.3152
 IR Inten    --      1.1821                 3.8780                31.8660

                     19                     20                     21
                      A                      A                      A
 Frequencies --    459.7065               535.2528               580.5712
 Red. masses --      2.2229                 2.5934                 3.3487
 Frc consts  --      0.2768                 0.4378                 0.6650
 IR Inten    --      6.4269                 6.8117                 6.9161

                     22                     23                     24
                      A                      A                      A
 Frequencies --    760.4362               819.5444               843.4084
 Red. masses --      1.2720                 1.0941                 2.5519
 Frc consts  --      0.4334                 0.4330                 1.0695
 IR Inten    --      3.8734                 1.0403                 5.6223

                     25                     26                     27
                      A                      A                      A
 Frequencies --    846.7105               902.0149               939.7738
 Red. masses --      2.1621                 1.7396                 1.8073
 Frc consts  --      0.9133                 0.8339                 0.9404
 IR Inten    --     10.7435                 9.6464                14.2498

                     28                     29                     30
                      A                      A                      A
 Frequencies --    960.9367               997.5668              1037.1740
 Red. masses --      1.9861                 1.4808                 2.9810
 Frc consts  --      1.0805                 0.8682                 1.8894
 IR Inten    --      7.8336                16.6345                 3.2320

                     31                     32                     33
                      A                      A                      A
 Frequencies --   1049.8490              1062.9999              1084.9160
 Red. masses --      3.9477                 2.4451                 2.3722
 Frc consts  --      2.5636                 1.6278                 1.6451
 IR Inten    --     52.2693                15.0478                85.9609

                     34                     35                     36
                      A                      A                      A
 Frequencies --   1102.1641              1114.4562              1133.7368
 Red. masses --      2.3710                 2.3555                 1.7601
 Frc consts  --      1.6970                 1.7237                 1.3329
 IR Inten    --     30.8557                51.9322                77.8904

                     37                     38                     39
                      A                      A                      A
 Frequencies --   1151.0308              1161.3474              1187.1648
 Red. masses --      2.9094                 3.0905                 1.5917
 Frc consts  --      2.2710                 2.4558                 1.3217
 IR Inten    --     53.5378                90.7992                 7.3328

                     40                     41                     42
                      A                      A                      A
 Frequencies --   1189.7127              1243.0617              1267.2963
 Red. masses --      1.5500                 1.4040                 1.2771
 Frc consts  --      1.2926                 1.2782                 1.2085
 IR Inten    --     13.7443                16.5002                21.7270

                     43                     44                     45
                      A                      A                      A
 Frequencies --   1293.0868              1293.8441              1319.3430
 Red. masses --      1.1619                 1.2071                 1.2377
 Frc consts  --      1.1447                 1.1906                 1.2693
 IR Inten    --      3.3360                 4.9066                 5.6175

                     46                     47                     48
                      A                      A                      A
 Frequencies --   1341.8835              1359.2571              1375.2769
 Red. masses --      1.2676                 1.2438                 1.2918
 Frc consts  --      1.3448                 1.3540                 1.4395
 IR Inten    --      2.6077                24.3995                21.0440

                     49                     50                     51
                      A                      A                      A
 Frequencies --   1387.9040              1400.4357              1402.9610
 Red. masses --      1.5049                 1.2750                 1.2621
 Frc consts  --      1.7080                 1.4732                 1.4636
 IR Inten    --      7.8697                 7.8152                 6.4657

                     52                     53                     54
                      A                      A                      A
 Frequencies --   1405.2580              1416.7239              1423.5374
 Red. masses --      1.2785                 1.3036                 1.2308
 Frc consts  --      1.4875                 1.5416                 1.4696
 IR Inten    --     27.6393                23.3612                48.9377

                     55                     56                     57
                      A                      A                      A
 Frequencies --   1437.2794              1480.5871              1482.8962
 Red. masses --      1.4206                 1.0751                 1.0410
 Frc consts  --      1.7290                 1.3886                 1.3488
 IR Inten    --      4.8974                 0.6266                 3.9472

                     58                     59                     60
                      A                      A                      A
 Frequencies --   1486.3993              1493.3169              1497.2081
 Red. masses --      1.0865                 1.0599                 1.0653
 Frc consts  --      1.4144                 1.3926                 1.4070
 IR Inten    --      2.8794                 4.9935                 1.9911

                     61                     62                     63
                      A                      A                      A
 Frequencies --   1501.2194              1503.4381              1536.2220
 Red. masses --      1.0450                 1.0853                 1.0873
 Frc consts  --      1.3876                 1.4454                 1.5119
 IR Inten    --      1.5041                 7.7808                 3.2835

                     64                     65                     66
                      A                      A                      A
 Frequencies --   2915.6148              2953.8516              2990.3438
 Red. masses --      1.0808                 1.0709                 1.0667
 Frc consts  --      5.4133                 5.5051                 5.6201
 IR Inten    --     32.5562                61.3173                56.2948

                     67                     68                     69
                      A                      A                      A
 Frequencies --   2994.4789              3020.5087              3023.2509
 Red. masses --      1.0685                 1.0573                 1.0583
 Frc consts  --      5.6448                 5.6837                 5.6992
 IR Inten    --     20.4094                 7.6248                16.7456

                     70                     71                     72
                      A                      A                      A
 Frequencies --   3033.7209              3041.6741              3055.6058
 Red. masses --      1.0741                 1.0348                 1.0891
 Frc consts  --      5.8246                 5.6404                 5.9910
 IR Inten    --     41.7454                20.4751                18.4097

                     73                     74                     75
                      A                      A                      A
 Frequencies --   3060.9024              3082.9780              3090.6163
 Red. masses --      1.0920                 1.0950                 1.0969
 Frc consts  --      6.0280                 6.1323                 6.1731
 IR Inten    --     15.1754                24.2699                43.2224

                     76                     77                     78
                      A                      A                      A
 Frequencies --   3097.2617              3115.8231              3118.3505
 Red. masses --      1.0936                 1.1012                 1.1026
 Frc consts  --      6.1813                 6.2990                 6.3172
 IR Inten    --     28.8322                27.8591                31.5104

                     79                     80                     81
                      A                      A                      A
 Frequencies --   3121.4974              3796.4675              3814.3774
 Red. masses --      1.1017                 1.0658                 1.0661
 Frc consts  --      6.3250                 9.0511                 9.1392
 IR Inten    --     24.5370                11.5163                16.9627

 - Thermochemistry -
 -------------------
 Temperature   298.150 Kelvin.  Pressure   1.00000 Atm.
 Atom     1 has atomic number  6 and mass  12.00000

 Molecular mass:   162.12559 amu.
 Principal axes and moments of inertia in atomic units:
                           1         2         3
     Eigenvalues --  1036.129844251.209195074.53249
           X            1.00000  -0.00208   0.00215
           Y            0.00207   1.00000   0.00139
           Z           -0.00216  -0.00139   1.00000
 This molecule is an asymmetric top.
 Rotational symmetry number  1.
 Warning -- assumption of classical behavior for rotation
           may cause significant error
 Rotational temperatures (Kelvin)      0.08359     0.02037     0.01707
 Rotational constants (GHZ):           1.74181     0.42452     0.35565
 Zero-point vibrational energy     678991.5 (Joules/Mol)
                                  162.28286 (Kcal/Mol)
 Warning -- explicit consideration of  21 degrees of freedom as
           vibrations may cause significant error
 Vibrational temperatures:     42.31    67.78    77.05   109.32   140.45
          (Kelvin)            190.42   202.21   288.22   327.91   355.24
                              361.43   368.08   403.50   432.10   465.19
                              575.08   602.15   634.84   661.42   770.11
                              835.31  1094.10  1179.14  1213.48  1218.23
                             1297.80  1352.12  1382.57  1435.28  1492.26
                             1510.50  1529.42  1560.95  1585.77  1603.45
                             1631.19  1656.08  1670.92  1708.07  1711.73
                             1788.49  1823.36  1860.46  1861.55  1898.24
                             1930.67  1955.67  1978.72  1996.88  2014.91
                             2018.55  2021.85  2038.35  2048.15  2067.92
                             2130.23  2133.56  2138.60  2148.55  2154.15
                             2159.92  2163.11  2210.28  4194.92  4249.93
                             4302.44  4308.39  4345.84  4349.78  4364.85
                             4376.29  4396.34  4403.96  4435.72  4446.71
                             4456.27  4482.97  4486.61  4491.14  5462.27
                             5488.04

 Zero-point correction=                           0.258614 (Hartree/Particle)
 Thermal correction to Energy=                    0.273053
 Thermal correction to Enthalpy=                  0.273997
 Thermal correction to Gibbs Free Energy=         0.216224
 Sum of electronic and zero-point Energies=           -541.125376
 Sum of electronic and thermal Energies=              -541.110938
 Sum of electronic and thermal Enthalpies=            -541.109994
 Sum of electronic and thermal Free Energies=         -541.167766

                     E (Thermal)             CV                S
                      KCal/Mol        Cal/Mol-Kelvin    Cal/Mol-Kelvin
 Total                  171.343             51.128            121.593
 Electronic               0.000              0.000              0.000
 Translational            0.889              2.981             41.158
 Rotational               0.889              2.981             31.481
 Vibrational            169.566             45.166             48.954
 Vibration     1          0.593              1.984              5.869
 Vibration     2          0.595              1.979              4.935
 Vibration     3          0.596              1.976              4.682
 Vibration     4          0.599              1.965              3.992
 Vibration     5          0.603              1.951              3.501
 Vibration     6          0.612              1.921              2.912
 Vibration     7          0.615              1.913              2.796
 Vibration     8          0.638              1.839              2.130
 Vibration     9          0.651              1.798              1.895
 Vibration    10          0.661              1.768              1.753
 Vibration    11          0.663              1.761              1.722
 Vibration    12          0.666              1.753              1.690
 Vibration    13          0.680              1.710              1.531
 Vibration    14          0.693              1.673              1.415
 Vibration    15          0.708              1.629              1.293
 Vibration    16          0.766              1.471              0.964
 Vibration    17          0.781              1.430              0.897
 Vibration    18          0.801              1.380              0.823
 Vibration    19          0.818              1.339              0.767
 Vibration    20          0.890              1.172              0.576
 Vibration    21          0.937              1.073              0.484

 Optimization completed.
    -- Stationary point found.
 Normal termination of Gaussian 16 at Mon May 22 09:51:03 2023.
