 Gaussian 16, Revision A.03,
 Gaussian 16:  ES64L-G16RevA.03 25-Dec-2016

 -----------------------------
 # opt freq b3lyp/6-31g(2df,p)
 -----------------------------

 -------------------
 Title Card Required
 -------------------
 Symbolic Z-matrix:
 Charge =  0 Multiplicity = 1

 SCF Done:  E(RB3LYP) =  -906.569056499     A.U. after   12 cycles
 SCF Done:  E(RB3LYP) =  -906.578682633     A.U. after   11 cycles
 SCF Done:  E(RB3LYP) =  -906.580568049     A.U. after   10 cycles
 SCF Done:  E(RB3LYP) =  -906.581678820     A.U. after   10 cycles
 SCF Done:  E(RB3LYP) =  -906.582661031     A.U. after   10 cycles
 SCF Done:  E(RB3LYP) =  -906.583147026     A.U. after   10 cycles
 SCF Done:  E(RB3LYP) =  -906.584046574     A.U. after   10 cycles
 SCF Done:  E(RB3LYP) =  -906.584769748     A.U. after   11 cycles
 SCF Done:  E(RB3LYP) =  -906.585231701     A.U. after   12 cycles
 SCF Done:  E(RB3LYP) =  -906.584610249     A.U. after   12 cycles
 SCF Done:  E(RB3LYP) =  -906.585974838     A.U. after   10 cycles
 SCF Done:  E(RB3LYP) =  -906.586209408     A.U. after   10 cycles
 SCF Done:  E(RB3LYP) =  -906.586165870     A.U. after    9 cycles
 SCF Done:  E(RB3LYP) =  -906.586217909     A.U. after   10 cycles
 SCF Done:  E(RB3LYP) =  -906.586216626     A.U. after    8 cycles
 SCF Done:  E(RB3LYP) =  -906.586219152     A.U. after    8 cycles
 SCF Done:  E(RB3LYP) =  -906.586219496     A.U. after    7 cycles
 SCF Done:  E(RB3LYP) =  -906.586219634     A.U. after    6 cycles
 SCF Done:  E(RB3LYP) =  -906.586219714     A.U. after    6 cycles
 Optimization completed.
    -- Stationary point found.
 Normal termination of Gaussian 16 at Mon May 22 20:33:17 2023.

 ----------------------------------------------------------------------
 #N Geom=AllCheck Guess=TCheck SCRF=Check GenChk RB3LYP/6-31G(2df,p) Fr
 eq
 ----------------------------------------------------------------------

 Structure from the checkpoint file:  "CCOCCOCOCCCNC1CqCCrC1CO.chk"
 -------------------
 Title Card Required
 -------------------
 Charge =  0 Multiplicity = 1

                         Standard orientation:
 ---------------------------------------------------------------------
 Center     Atomic      Atomic             Coordinates (Angstroms)
 Number     Number       Type             X           Y           Z
 ---------------------------------------------------------------------
      1          6           0       -9.587367    0.093544   -0.291867
      2          6           0       -8.311005   -0.729419   -0.329423
      3          8           0       -7.211169    0.134297   -0.125080
      4          6           0       -5.970343   -0.530223   -0.141787
      5          6           0       -4.888431    0.512906    0.090630
      6          8           0       -3.645176   -0.153843    0.069971
      7          6           0       -2.566639    0.701623    0.277908
      8          8           0       -1.429486   -0.098274    0.235254
      9          6           0       -0.233198    0.632689    0.417936
     10          6           0        0.935260   -0.341092    0.366110
     11          6           0        2.287027    0.356004    0.508618
     12          7           0        3.376192   -0.618016    0.505093
     13          6           0        4.679546   -0.020627    0.604719
     14          6           0        5.898277   -0.654419   -0.010738
     15          6           0        5.834538   -1.933892   -0.823546
     16          6           0        5.783399   -3.190427    0.054871
     17          6           0        5.379825    0.664203   -0.558173
     18          6           0        6.136372    1.953529   -0.353837
     19          8           0        5.289532    3.094574   -0.266769
     20          1           0      -10.459583   -0.548384   -0.447245
     21          1           0       -9.574353    0.857741   -1.074210
     22          1           0       -9.692381    0.594785    0.674540
     23          1           0       -8.211563   -1.246970   -1.298695
     24          1           0       -8.329796   -1.510133    0.449875
     25          1           0       -5.797242   -1.033398   -1.106810
     26          1           0       -5.916421   -1.300155    0.644728
     27          1           0       -5.057679    1.013223    1.057404
     28          1           0       -4.942044    1.283406   -0.694999
     29          1           0       -2.654312    1.213424    1.260178
     30          1           0       -2.528993    1.485473   -0.508964
     31          1           0       -0.250230    1.161585    1.386381
     32          1           0       -0.131741    1.402222   -0.366929
     33          1           0        0.890103   -0.882556   -0.587731
     34          1           0        0.822003   -1.086646    1.159595
     35          1           0        2.328390    0.897280    1.463236
     36          1           0        2.404738    1.122937   -0.279988
     37          1           0        3.310165   -1.198734   -0.323462
     38          1           0        4.830989    0.452206    1.573591
     39          1           0        6.797972   -0.583131    0.598633
     40          1           0        6.708685   -1.977340   -1.486039
     41          1           0        4.964929   -1.915928   -1.492969
     42          1           0        6.663728   -3.250380    0.704064
     43          1           0        5.755528   -4.099927   -0.553481
     44          1           0        4.897736   -3.178264    0.697335
     45          1           0        4.866878    0.584493   -1.517470
     46          1           0        6.893612    2.086573   -1.143840
     47          1           0        6.674675    1.917791    0.600054
     48          1           0        4.809688    3.164493   -1.097977
 ---------------------------------------------------------------------

 SCF Done:  E(RB3LYP) =  -906.586219714     A.U. after    1 cycles

 The electronic state is 1-A.
 Alpha  occ. eigenvalues --  -19.14422 -19.14228 -19.13794 -19.12971 -14.31478
 Alpha  occ. eigenvalues --  -10.27400 -10.23117 -10.22897 -10.22754 -10.22508
 Alpha  occ. eigenvalues --  -10.22496 -10.20811 -10.20460 -10.18955 -10.18726
 Alpha  occ. eigenvalues --  -10.18147 -10.18016 -10.17507 -10.17190  -1.07068
 Alpha  occ. eigenvalues --   -1.03353  -1.01450  -1.00994  -0.91610  -0.84155
 Alpha  occ. eigenvalues --   -0.78193  -0.76743  -0.75881  -0.72674  -0.68998
 Alpha  occ. eigenvalues --   -0.67029  -0.63418  -0.62642  -0.61214  -0.60276
 Alpha  occ. eigenvalues --   -0.59283  -0.58381  -0.55786  -0.51316  -0.51201
 Alpha  occ. eigenvalues --   -0.50842  -0.50097  -0.48864  -0.48100  -0.47259
 Alpha  occ. eigenvalues --   -0.46884  -0.46571  -0.44615  -0.43865  -0.43313
 Alpha  occ. eigenvalues --   -0.42944  -0.41914  -0.40949  -0.40362  -0.38804
 Alpha  occ. eigenvalues --   -0.38379  -0.38173  -0.37783  -0.37230  -0.36933
 Alpha  occ. eigenvalues --   -0.35738  -0.34844  -0.34801  -0.34258  -0.33575
 Alpha  occ. eigenvalues --   -0.33285  -0.32875  -0.32154  -0.31488  -0.29714
 Alpha  occ. eigenvalues --   -0.28497  -0.26980  -0.25856  -0.25554  -0.24885
 Alpha  occ. eigenvalues --   -0.20917
 Alpha virt. eigenvalues --    0.07061   0.07489   0.08365   0.08893   0.09466
 Alpha virt. eigenvalues --    0.09920   0.11082   0.11874   0.12292   0.12557
 Alpha virt. eigenvalues --    0.13284   0.13944   0.14186   0.14366   0.15360

 Mulliken charges:
               1
     1  C   -0.385016
     2  C   -0.025491
     3  O   -0.246735
     4  C   -0.069589
     5  C   -0.073933
     6  O   -0.237319
     7  C    0.061028
     8  O   -0.234400
     9  C   -0.055924
    10  C   -0.218592
    11  C   -0.118459
    12  N   -0.309987
    13  C    0.033182
    14  C   -0.049405
    15  C   -0.218557
    16  C   -0.375163
    17  C   -0.097696
    18  C   -0.082414
    19  O   -0.415372
    20  H    0.114885
    21  H    0.126171
    22  H    0.126429
    23  H    0.086582
    24  H    0.086932
    25  H    0.097087
    26  H    0.097729
    27  H    0.099523
    28  H    0.098850
    29  H    0.069094
    30  H    0.067242
    31  H    0.091738
    32  H    0.087644
    33  H    0.102321
    34  H    0.121064
    35  H    0.106205
    36  H    0.074328
    37  H    0.214136
    38  H    0.092076
    39  H    0.081256
    40  H    0.100002
    41  H    0.088004
    42  H    0.114639
    43  H    0.109357
    44  H    0.134509
    45  H    0.066256
    46  H    0.084275
    47  H    0.103591
    48  H    0.277917
 Sum of Mulliken charges =  -0.00000

 Dipole moment (field-independent basis, Debye):
    X=             -0.0096    Y=              0.0413    Z=             -1.6472  Tot=              1.6477
 Quadrupole moment (field-independent basis, Debye-Ang):
   XX=           -106.2875   YY=           -123.2727   ZZ=           -115.0238
   XY=             -3.4231   XZ=             -5.8820   YZ=             -1.0318

  Exact polarizability: 230.705  -2.980 170.080  -0.487   0.051 145.572
 Approx polarizability: 249.813  -3.155 239.782   0.835   0.526 228.520

                      1                      2                      3
                      A                      A                      A
 Frequencies --     11.5175                19.6591                21.1433
 Red. masses --      4.4763                 1.8594                 4.5115
 Frc consts  --      0.0003                 0.0004                 0.0012
 IR Inten    --      0.0779                 0.1578                 0.0672

                      4                      5                      6
                      A                      A                      A
 Frequencies --     33.1396                47.0076                56.5393
 Red. masses --      3.9036                 4.5669                 1.9570
 Frc consts  --      0.0025                 0.0059                 0.0037
 IR Inten    --      0.1146                 0.3757                 4.1554

                      7                      8                      9
                      A                      A                      A
 Frequencies --     61.7018                66.4301                74.9608
 Red. masses --      3.5112                 3.3122                 2.8370
 Frc consts  --      0.0079                 0.0086                 0.0094
 IR Inten    --      1.3866                 0.7372                 2.6403

                     10                     11                     12
                      A                      A                      A
 Frequencies --     90.1328                91.7290                99.0872
 Red. masses --      2.0234                 3.8379                 4.2461
 Frc consts  --      0.0097                 0.0190                 0.0246
 IR Inten    --      2.0487                 0.6315                 0.3692

                     13                     14                     15
                      A                      A                      A
 Frequencies --    117.8154               134.6309               139.3932
 Red. masses --      2.0744                 2.9796                 2.0811
 Frc consts  --      0.0170                 0.0318                 0.0238
 IR Inten    --      1.2702                 4.9874                 1.4634

                     16                     17                     18
                      A                      A                      A
 Frequencies --    146.3931               153.2095               166.7240
 Red. masses --      3.5058                 3.1665                 2.5134
 Frc consts  --      0.0443                 0.0438                 0.0412
 IR Inten    --      0.4202                 3.7734                 4.4232

                     19                     20                     21
                      A                      A                      A
 Frequencies --    190.7969               203.1954               237.5195
 Red. masses --      3.2274                 2.1224                 1.8152
 Frc consts  --      0.0692                 0.0516                 0.0603
 IR Inten    --      4.6717                 2.3283                16.9829

                     22                     23                     24
                      A                      A                      A
 Frequencies --    246.8999               256.5677               281.0104
 Red. masses --      1.1615                 1.2845                 2.3427
 Frc consts  --      0.0417                 0.0498                 0.1090
 IR Inten    --      0.6566                70.3023                 8.7979

                     25                     26                     27
                      A                      A                      A
 Frequencies --    291.6049               332.4824               335.3967
 Red. masses --      2.7358                 3.0216                 3.8877
 Frc consts  --      0.1371                 0.1968                 0.2577
 IR Inten    --     17.6110                22.3446                18.3174

                     28                     29                     30
                      A                      A                      A
 Frequencies --    365.5433               422.2337               430.4309
 Red. masses --      3.1734                 3.1019                 3.3659
 Frc consts  --      0.2498                 0.3258                 0.3674
 IR Inten    --      0.5714                 0.1810                 5.3012

                     31                     32                     33
                      A                      A                      A
 Frequencies --    474.9177               525.5935               552.8553
 Red. masses --      3.0980                 3.4295                 3.3155
 Frc consts  --      0.4117                 0.5582                 0.5971
 IR Inten    --      3.0169                 1.1837                 6.3752

                     34                     35                     36
                      A                      A                      A
 Frequencies --    586.3462               611.6470               721.4285
 Red. masses --      4.3264                 2.8462                 1.4525
 Frc consts  --      0.8764                 0.6274                 0.4454
 IR Inten    --      5.8064                 0.1758                81.0461

                     37                     38                     39
                      A                      A                      A
 Frequencies --    766.1849               772.9011               810.9078
 Red. masses --      1.9781                 1.0965                 1.3879
 Frc consts  --      0.6842                 0.3859                 0.5377
 IR Inten    --      3.3253                 0.2016                 5.5820

                     40                     41                     42
                      A                      A                      A
 Frequencies --    819.6479               837.0461               868.3933
 Red. masses --      1.0796                 1.0952                 1.6730
 Frc consts  --      0.4273                 0.4521                 0.7433
 IR Inten    --      0.4221                 0.0183                 2.7658

                     43                     44                     45
                      A                      A                      A
 Frequencies --    895.4584               898.2542               927.9242
 Red. masses --      1.3022                 2.1043                 2.1253
 Frc consts  --      0.6152                 1.0004                 1.0782
 IR Inten    --      1.7864                 8.1537                 9.6498

                     46                     47                     48
                      A                      A                      A
 Frequencies --    959.2597               970.5422              1020.3144
 Red. masses --      1.9662                 2.0492                 1.7163
 Frc consts  --      1.0660                 1.1373                 1.0527
 IR Inten    --      5.8280                13.4751                 0.9832

                     49                     50                     51
                      A                      A                      A
 Frequencies --   1023.9978              1040.1568              1045.0653
 Red. masses --      4.3724                 2.4103                 4.0757
 Frc consts  --      2.7013                 1.5364                 2.6227
 IR Inten    --     28.7967                26.8110                33.0376

                     52                     53                     54
                      A                      A                      A
 Frequencies --   1056.3865              1061.9727              1066.4737
 Red. masses --      3.0472                 2.6421                 2.4563
 Frc consts  --      2.0035                 1.7556                 1.6460
 IR Inten    --     15.1714                10.4873                 8.9691

                     55                     56                     57
                      A                      A                      A
 Frequencies --   1075.2789              1098.0176              1104.6769
 Red. masses --      2.5269                 2.6110                 1.8051
 Frc consts  --      1.7214                 1.8547                 1.2978
 IR Inten    --     13.2081                13.4214                22.1958

                     58                     59                     60
                      A                      A                      A
 Frequencies --   1115.2854              1136.4486              1139.3485
 Red. masses --      1.9994                 1.6355                 2.1942
 Frc consts  --      1.4653                 1.2445                 1.6782
 IR Inten    --      8.2002                30.0414                21.9791

                     61                     62                     63
                      A                      A                      A
 Frequencies --   1146.2863              1150.2906              1157.3202
 Red. masses --      1.9931                 1.7636                 1.9894
 Frc consts  --      1.5430                 1.3749                 1.5700
 IR Inten    --     54.1772                35.7376                87.3646

                     64                     65                     66
                      A                      A                      A
 Frequencies --   1158.7839              1173.1116              1175.2766
 Red. masses --      3.1688                 1.6809                 4.4201
 Frc consts  --      2.5070                 1.3629                 3.5971
 IR Inten    --      5.3581               176.8268               703.7951

                     67                     68                     69
                      A                      A                      A
 Frequencies --   1178.8522              1195.3846              1204.7259
 Red. masses --      4.7339                 1.5558                 2.2354
 Frc consts  --      3.8761                 1.3098                 1.9115
 IR Inten    --     11.2838                 1.6027                11.5960

                     70                     71                     72
                      A                      A                      A
 Frequencies --   1211.5720              1225.4815              1234.1826
 Red. masses --      3.5638                 1.3731                 1.2589
 Frc consts  --      3.0822                 1.2150                 1.1298
 IR Inten    --     18.1105                 3.7175                17.8276

                     73                     74                     75
                      A                      A                      A
 Frequencies --   1239.1050              1255.1217              1259.7777
 Red. masses --      1.4497                 1.1796                 1.4723
 Frc consts  --      1.3114                 1.0949                 1.3767
 IR Inten    --      6.3051                 4.5425                11.0867

                     76                     77                     78
                      A                      A                      A
 Frequencies --   1282.2308              1292.6875              1292.7768
 Red. masses --      1.2681                 1.1022                 1.3662
 Frc consts  --      1.2284                 1.0852                 1.3453
 IR Inten    --      1.9492                 0.4055                 8.7070

                     79                     80                     81
                      A                      A                      A
 Frequencies --   1296.5265              1304.9677              1309.7115
 Red. masses --      1.1034                 1.1781                 1.0592
 Frc consts  --      1.0928                 1.1821                 1.0705
 IR Inten    --      2.1873                 3.1065                 1.2094

                     82                     83                     84
                      A                      A                      A
 Frequencies --   1332.7529              1346.4268              1350.0299
 Red. masses --      1.2744                 1.2282                 1.2355
 Frc consts  --      1.3337                 1.3119                 1.3267
 IR Inten    --     15.8421                 0.5707                94.0354

                     85                     86                     87
                      A                      A                      A
 Frequencies --   1369.5473              1385.0716              1397.8379
 Red. masses --      1.2966                 1.3759                 1.2398
 Frc consts  --      1.4329                 1.5551                 1.4273
 IR Inten    --      1.7271                 5.8138                 4.4357

                     88                     89                     90
                      A                      A                      A
 Frequencies --   1405.0197              1410.8379              1415.2595
 Red. masses --      1.3511                 1.2568                 1.3640
 Frc consts  --      1.5715                 1.4739                 1.6097
 IR Inten    --      6.2842                10.8659                 4.3971

                     91                     92                     93
                      A                      A                      A
 Frequencies --   1419.6804              1425.9801              1453.7620
 Red. masses --      1.2354                 1.4633                 1.6957
 Frc consts  --      1.4670                 1.7531                 2.1114
 IR Inten    --     41.8166                84.4438                 9.0250

                     94                     95                     96
                      A                      A                      A
 Frequencies --   1457.0070              1483.4944              1487.2437
 Red. masses --      1.5180                 1.0405                 1.3652
 Frc consts  --      1.8986                 1.3492                 1.7792
 IR Inten    --     17.0503                 4.0997                35.5950

                     97                     98                     99
                      A                      A                      A
 Frequencies --   1491.7298              1496.2635              1498.3080
 Red. masses --      1.1804                 1.0878                 1.0465
 Frc consts  --      1.5476                 1.4348                 1.3841
 IR Inten    --      9.4222                 0.9576                 3.6561

                    100                    101                    102
                      A                      A                      A
 Frequencies --   1499.7469              1501.5474              1509.3538
 Red. masses --      1.0487                 1.0874                 1.1115
 Frc consts  --      1.3898                 1.4445                 1.4919
 IR Inten    --      2.8509                 4.2597                 8.1492

                    103                    104                    105
                      A                      A                      A
 Frequencies --   1514.4604              1517.4265              1520.6658
 Red. masses --      1.0795                 1.0921                 1.3084
 Frc consts  --      1.4588                 1.4815                 1.7826
 IR Inten    --      6.0681                 0.0985                38.0393

                    106                    107                    108
                      A                      A                      A
 Frequencies --   1524.7238              1535.9209              1540.6433
 Red. masses --      1.1053                 1.1271                 1.0932
 Frc consts  --      1.5140                 1.5666                 1.5288
 IR Inten    --      0.8878                 0.3067                 0.7601

                    109                    110                    111
                      A                      A                      A
 Frequencies --   1554.9637              2867.0366              2881.5166
 Red. masses --      1.0880                 1.0482                 1.1079
 Frc consts  --      1.5500                 5.0765                 5.4197
 IR Inten    --      0.5222                48.0515               102.9088

                    112                    113                    114
                      A                      A                      A
 Frequencies --   2922.2677              2950.1765              2952.5183
 Red. masses --      1.0724                 1.0547                 1.0543
 Frc consts  --      5.3958                 5.4085                 5.4151
 IR Inten    --     47.1940                61.6849                30.7485

                    115                    116                    117
                      A                      A                      A
 Frequencies --   2967.7665              2969.6289              2973.9681
 Red. masses --      1.0706                 1.0547                 1.1044
 Frc consts  --      5.5558                 5.4798                 5.7552
 IR Inten    --     85.5148                 5.0764                43.9995

                    118                    119                    120
                      A                      A                      A
 Frequencies --   2975.1656              2978.7662              2990.4818
 Red. masses --      1.0539                 1.1054                 1.1038
 Frc consts  --      5.4965                 5.7788                 5.8161
 IR Inten    --    108.2221                59.6358                 0.0505

                    121                    122                    123
                      A                      A                      A
 Frequencies --   3016.6294              3017.8633              3023.5463
 Red. masses --      1.0601                 1.1094                 1.0771
 Frc consts  --      5.6836                 5.9532                 5.8017
 IR Inten    --     22.0801                95.0713                 2.1951

                    124                    125                    126
                      A                      A                      A
 Frequencies --   3033.4686              3035.9199              3042.5845
 Red. masses --      1.0358                 1.0712                 1.1000
 Frc consts  --      5.6156                 5.8172                 5.9999
 IR Inten    --     27.3494                47.7835                29.7915

                    127                    128                    129
                      A                      A                      A
 Frequencies --   3044.4503              3059.8301              3088.9474
 Red. masses --      1.0347                 1.0907                 1.0996
 Frc consts  --      5.6503                 6.0163                 6.1819
 IR Inten    --     17.8971                14.8804                28.8086

                    130                    131                    132
                      A                      A                      A
 Frequencies --   3098.6776              3099.7750              3110.8292
 Red. masses --      1.0882                 1.1008                 1.0896
 Frc consts  --      6.1561                 6.2317                 6.2124
 IR Inten    --     11.8755                29.9359                 3.8815

                    133                    134                    135
                      A                      A                      A
 Frequencies --   3113.0248              3119.0975              3120.7654
 Red. masses --      1.0989                 1.1015                 1.1027
 Frc consts  --      6.2744                 6.3136                 6.3272
 IR Inten    --     39.1850                25.4277                26.4369

                    136                    137                    138
                      A                      A                      A
 Frequencies --   3124.1310              3533.4272              3817.6030
 Red. masses --      1.0876                 1.0729                 1.0662
 Frc consts  --      6.2543                 7.8926                 9.1553
 IR Inten    --     48.9797                 0.1076                14.2617

 - Thermochemistry -
 -------------------
 Temperature   298.150 Kelvin.  Pressure   1.00000 Atm.
 Atom     1 has atomic number  6 and mass  12.00000

 Molecular mass:   275.20966 amu.
 Principal axes and moments of inertia in atomic units:
                           1         2         3
     Eigenvalues --  1998.94972********************
           X            0.99999  -0.00432  -0.00022
           Y            0.00432   0.99998   0.00463
           Z            0.00020  -0.00463   0.99999
 This molecule is an asymmetric top.
 Rotational symmetry number  1.
 Warning -- assumption of classical behavior for rotation
           may cause significant error
 Rotational temperatures (Kelvin)      0.04333     0.00311     0.00294
 Rotational constants (GHZ):           0.90284     0.06470     0.06130
 Zero-point vibrational energy    1122260.9 (Joules/Mol)
                                  268.22679 (Kcal/Mol)
 Warning -- explicit consideration of  35 degrees of freedom as
           vibrations may cause significant error
 Vibrational temperatures:     16.57    28.29    30.42    47.68    67.63
          (Kelvin)             81.35    88.78    95.58   107.85   129.68
                              131.98   142.56   169.51   193.70   200.56
                              210.63   220.43   239.88   274.51   292.35
                              341.74   355.23   369.14   404.31   419.55
                              478.37   482.56   525.94   607.50   619.29
                              683.30   756.21   795.44   843.62   880.02
                             1037.97  1102.37  1112.03  1166.72  1179.29
                             1204.32  1249.42  1288.36  1292.39  1335.08
                             1380.16  1396.39  1468.00  1473.30  1496.55
                             1503.62  1519.90  1527.94  1534.42  1547.09
                             1579.80  1589.38  1604.65  1635.10  1639.27
                             1649.25  1655.01  1665.13  1667.23  1687.85
                             1690.96  1696.11  1719.89  1733.33  1743.18
                             1763.19  1775.71  1782.80  1805.84  1812.54
                             1844.84  1859.89  1860.02  1865.41  1877.56
                             1884.38  1917.53  1937.21  1942.39  1970.47
                             1992.81  2011.18  2021.51  2029.88  2036.24
                             2042.60  2051.67  2091.64  2096.31  2134.42
                             2139.81  2146.27  2152.79  2155.73  2157.80
                             2160.39  2171.62  2178.97  2183.24  2187.90
                             2193.74  2209.85  2216.64  2237.25  4125.03
                             4145.86  4204.49  4244.65  4248.02  4269.95
                             4272.63  4278.88  4280.60  4285.78  4302.64
                             4340.26  4342.03  4350.21  4364.48  4368.01
                             4377.60  4380.28  4402.41  4444.31  4458.31
                             4459.88  4475.79  4478.95  4487.69  4490.09
                             4494.93  5083.81  5492.68

 Zero-point correction=                           0.427447 (Hartree/Particle)
 Thermal correction to Energy=                    0.451862
 Thermal correction to Enthalpy=                  0.452806
 Thermal correction to Gibbs Free Energy=         0.367517
 Sum of electronic and zero-point Energies=           -906.158773
 Sum of electronic and thermal Energies=              -906.134358
 Sum of electronic and thermal Enthalpies=            -906.133414
 Sum of electronic and thermal Free Energies=         -906.218703

                     E (Thermal)             CV                S
                      KCal/Mol        Cal/Mol-Kelvin    Cal/Mol-Kelvin
 Total                  283.548             84.082            179.506
 Electronic               0.000              0.000              0.000
 Translational            0.889              2.981             42.736
 Rotational               0.889              2.981             35.750
 Vibrational            281.770             78.120            101.021
 Vibration     1          0.593              1.987              7.730
 Vibration     2          0.593              1.986              6.668
 Vibration     3          0.593              1.985              6.524
 Vibration     4          0.594              1.983              5.632
 Vibration     5          0.595              1.979              4.939
 Vibration     6          0.596              1.975              4.574
 Vibration     7          0.597              1.973              4.402
 Vibration     8          0.598              1.970              4.256
 Vibration     9          0.599              1.966              4.019
 Vibration    10          0.602              1.956              3.657
 Vibration    11          0.602              1.955              3.623
 Vibration    12          0.604              1.950              3.472
 Vibration    13          0.608              1.935              3.136
 Vibration    14          0.613              1.919              2.879
 Vibration    15          0.615              1.914              2.812
 Vibration    16          0.617              1.907              2.719
 Vibration    17          0.619              1.899              2.632
 Vibration    18          0.624              1.883              2.472
 Vibration    19          0.634              1.853              2.220
 Vibration    20          0.639              1.835              2.104
 Vibration    21          0.656              1.783              1.821
 Vibration    22          0.661              1.768              1.753
 Vibration    23          0.666              1.752              1.685
 Vibration    24          0.681              1.709              1.528
 Vibration    25          0.687              1.689              1.465
 Vibration    26          0.714              1.611              1.248
 Vibration    27          0.717              1.605              1.234
 Vibration    28          0.739              1.543              1.098
 Vibration    29          0.785              1.422              0.884
 Vibration    30          0.792              1.404              0.857
 Vibration    31          0.832              1.306              0.724
 Vibration    32          0.881              1.193              0.597
 Vibration    33          0.908              1.133              0.538
 Vibration    34          0.943              1.061              0.474
 Vibration    35          0.971              1.007              0.430

                           ! Non-Optimized Parameters !
 Normal termination of Gaussian 16 at Tue May 23 02:06:57 2023.
