 Gaussian 16, Revision A.03,
 Gaussian 16:  ES64L-G16RevA.03 25-Dec-2016

 -----------------------------
 # opt freq b3lyp/6-31g(2df,p)
 -----------------------------

 -------------------
 Title Card Required
 -------------------
 Symbolic Z-matrix:
 Charge =  0 Multiplicity = 1

 SCF Done:  E(RB3LYP) =  -698.603417381     A.U. after   12 cycles
 SCF Done:  E(RB3LYP) =  -698.616133583     A.U. after   11 cycles
 SCF Done:  E(RB3LYP) =  -698.622835262     A.U. after   10 cycles
 SCF Done:  E(RB3LYP) =  -698.624268714     A.U. after   10 cycles
 SCF Done:  E(RB3LYP) =  -698.626286009     A.U. after   11 cycles
 SCF Done:  E(RB3LYP) =  -698.628271440     A.U. after   10 cycles
 SCF Done:  E(RB3LYP) =  -698.629508376     A.U. after   11 cycles
 SCF Done:  E(RB3LYP) =  -698.630266604     A.U. after   10 cycles
 SCF Done:  E(RB3LYP) =  -698.630742192     A.U. after   10 cycles
 SCF Done:  E(RB3LYP) =  -698.630809481     A.U. after    9 cycles
 SCF Done:  E(RB3LYP) =  -698.630835140     A.U. after    9 cycles
 SCF Done:  E(RB3LYP) =  -698.630843235     A.U. after    8 cycles
 SCF Done:  E(RB3LYP) =  -698.630844655     A.U. after    7 cycles
 SCF Done:  E(RB3LYP) =  -698.630845312     A.U. after    7 cycles
 SCF Done:  E(RB3LYP) =  -698.630845529     A.U. after    7 cycles
 SCF Done:  E(RB3LYP) =  -698.630845651     A.U. after    6 cycles
 SCF Done:  E(RB3LYP) =  -698.630845666     A.U. after    5 cycles
 Optimization completed.
    -- Stationary point found.
 Normal termination of Gaussian 16 at Wed May 24 22:27:26 2023.

 ----------------------------------------------------------------------
 #N Geom=AllCheck Guess=TCheck SCRF=Check GenChk RB3LYP/6-31G(2df,p) Fr
 eq
 ----------------------------------------------------------------------

 Structure from the checkpoint file:  "CCOCCqOCCrCqCCrCCOC.chk"
 -------------------
 Title Card Required
 -------------------
 Charge =  0 Multiplicity = 1

                         Standard orientation:
 ---------------------------------------------------------------------
 Center     Atomic      Atomic             Coordinates (Angstroms)
 Number     Number       Type             X           Y           Z
 ---------------------------------------------------------------------
      1          6           0       -5.316642   -0.129307   -0.352088
      2          6           0       -4.115373   -0.865938    0.215843
      3          8           0       -2.937740   -0.222353   -0.225936
      4          6           0       -1.755731   -0.843091    0.236578
      5          6           0       -0.547913   -0.034859   -0.239138
      6          8           0       -0.539839    1.232415    0.404021
      7          6           0       -1.175067    2.294425   -0.296176
      8          6           0       -1.010797    3.561318    0.526700
      9          6           0        0.808240   -0.715345    0.065882
     10          6           0        0.899815   -2.165748   -0.479336
     11          6           0        0.654243   -3.263579    0.562778
     12          6           0        1.953780    0.162987   -0.473890
     13          6           0        3.299459   -0.134202    0.175274
     14          8           0        4.279442    0.680427   -0.433261
     15          6           0        5.561422    0.494019    0.111385
     16          1           0       -6.245476   -0.611489   -0.032933
     17          1           0       -5.283925   -0.127528   -1.445322
     18          1           0       -5.329256    0.908778   -0.007661
     19          1           0       -4.116787   -1.919297   -0.113761
     20          1           0       -4.152105   -0.875984    1.318353
     21          1           0       -1.710519   -1.876472   -0.139068
     22          1           0       -1.745509   -0.882720    1.338497
     23          1           0       -0.637117    0.099627   -1.329555
     24          1           0       -2.234533    2.064451   -0.454448
     25          1           0       -0.708764    2.418771   -1.287518
     26          1           0       -1.478182    3.444323    1.508867
     27          1           0       -1.481846    4.408043    0.017878
     28          1           0        0.047773    3.792689    0.678037
     29          1           0        0.896236   -0.744434    1.161733
     30          1           0        1.896126   -2.321290   -0.907047
     31          1           0        0.205648   -2.287239   -1.320986
     32          1           0        1.391354   -3.202549    1.371017
     33          1           0        0.735348   -4.258817    0.113720
     34          1           0       -0.336699   -3.187324    1.020918
     35          1           0        1.718606    1.214536   -0.295951
     36          1           0        2.048542    0.026250   -1.558846
     37          1           0        3.575115   -1.198170    0.067523
     38          1           0        3.248827    0.072284    1.259189
     39          1           0        6.245577    1.160109   -0.420565
     40          1           0        5.912557   -0.544025   -0.009047
     41          1           0        5.591488    0.739483    1.185502
 ---------------------------------------------------------------------

 SCF Done:  E(RB3LYP) =  -698.630845666     A.U. after    1 cycles

 The electronic state is 1-A.
 Alpha  occ. eigenvalues --  -19.13769 -19.13164 -19.12653 -10.22769 -10.22566
 Alpha  occ. eigenvalues --  -10.22080 -10.21878 -10.21814 -10.21334 -10.18408
 Alpha  occ. eigenvalues --  -10.18079 -10.17586 -10.17497 -10.16787 -10.16634
 Alpha  occ. eigenvalues --   -1.03574  -1.02518  -1.01451  -0.81571  -0.76903
 Alpha  occ. eigenvalues --   -0.74911  -0.74660  -0.70999  -0.68575  -0.64253
 Alpha  occ. eigenvalues --   -0.61910  -0.60504  -0.59676  -0.58384  -0.56155
 Alpha  occ. eigenvalues --   -0.50218  -0.49506  -0.47859  -0.47468  -0.47081
 Alpha  occ. eigenvalues --   -0.46840  -0.44754  -0.44005  -0.42971  -0.42247
 Alpha  occ. eigenvalues --   -0.41804  -0.40983  -0.40028  -0.38484  -0.38327
 Alpha  occ. eigenvalues --   -0.37608  -0.37126  -0.36370  -0.35243  -0.34881
 Alpha  occ. eigenvalues --   -0.34831  -0.34091  -0.32566  -0.32014  -0.31648
 Alpha  occ. eigenvalues --   -0.30967  -0.30534  -0.29973  -0.25509  -0.24767
 Alpha  occ. eigenvalues --   -0.23898
 Alpha virt. eigenvalues --    0.08543   0.09020   0.09576   0.10131   0.11245
 Alpha virt. eigenvalues --    0.11805   0.12834   0.13253   0.13439   0.14067
 Alpha virt. eigenvalues --    0.14616   0.14937   0.15621   0.15862   0.16415

 Mulliken charges:
               1
     1  C   -0.387323
     2  C   -0.027410
     3  O   -0.244104
     4  C   -0.067862
     5  C    0.070922
     6  O   -0.266922
     7  C   -0.042534
     8  C   -0.386064
     9  C    0.019040
    10  C   -0.199355
    11  C   -0.385381
    12  C   -0.225094
    13  C   -0.060823
    14  O   -0.228564
    15  C   -0.226359
    16  H    0.114983
    17  H    0.126176
    18  H    0.127221
    19  H    0.083965
    20  H    0.087399
    21  H    0.085878
    22  H    0.089418
    23  H    0.072593
    24  H    0.111737
    25  H    0.081679
    26  H    0.122089
    27  H    0.110875
    28  H    0.122849
    29  H    0.074591
    30  H    0.097561
    31  H    0.097603
    32  H    0.116578
    33  H    0.111989
    34  H    0.118729
    35  H    0.120737
    36  H    0.095676
    37  H    0.079727
    38  H    0.083805
    39  H    0.123995
    40  H    0.099156
    41  H    0.100827
 Sum of Mulliken charges =  -0.00000

 Dipole moment (field-independent basis, Debye):
    X=             -0.6584    Y=             -1.5223    Z=              0.4212  Tot=              1.7112
 Quadrupole moment (field-independent basis, Debye-Ang):
   XX=            -87.7372   YY=            -94.0691   ZZ=            -96.4412
   XY=             -0.9622   XZ=              2.0710   YZ=             -0.3101

  Exact polarizability: 175.455   0.342 150.857   0.489  -1.031 119.535
 Approx polarizability: 200.726  -0.021 198.402   0.466  -1.471 191.437

                      1                      2                      3
                      A                      A                      A
 Frequencies --     23.0496                33.5700                41.5429
 Red. masses --      3.7769                 2.7696                 2.3610
 Frc consts  --      0.0012                 0.0018                 0.0024
 IR Inten    --      0.0223                 0.1818                 0.0550

                      4                      5                      6
                      A                      A                      A
 Frequencies --     56.0440                63.8606                76.1099
 Red. masses --      2.2064                 2.1439                 2.6018
 Frc consts  --      0.0041                 0.0052                 0.0089
 IR Inten    --      0.3481                 2.6704                 0.9843

                      7                      8                      9
                      A                      A                      A
 Frequencies --     81.8506                89.4465                98.4139
 Red. masses --      2.2880                 2.2484                 2.5668
 Frc consts  --      0.0090                 0.0106                 0.0146
 IR Inten    --      1.2407                 0.3415                 1.4520

                     10                     11                     12
                      A                      A                      A
 Frequencies --    125.2171               146.8913               159.4064
 Red. masses --      3.0826                 3.0155                 3.1749
 Frc consts  --      0.0285                 0.0383                 0.0475
 IR Inten    --      2.7954                 0.4718                 0.7997

                     13                     14                     15
                      A                      A                      A
 Frequencies --    198.4710               210.0662               227.1837
 Red. masses --      1.3065                 2.6613                 3.6765
 Frc consts  --      0.0303                 0.0692                 0.1118
 IR Inten    --      0.7165                 0.9182                 1.1092

                     16                     17                     18
                      A                      A                      A
 Frequencies --    233.6631               240.0032               248.8028
 Red. masses --      1.2674                 1.4687                 1.2397
 Frc consts  --      0.0408                 0.0498                 0.0452
 IR Inten    --      2.5545                 0.5528                 0.7339

                     19                     20                     21
                      A                      A                      A
 Frequencies --    256.5024               278.6732               300.5496
 Red. masses --      1.5729                 2.8149                 2.8559
 Frc consts  --      0.0610                 0.1288                 0.1520
 IR Inten    --      2.1811                 1.3528                 1.0436

                     22                     23                     24
                      A                      A                      A
 Frequencies --    326.8607               369.1924               426.1275
 Red. masses --      2.9346                 2.8155                 3.0619
 Frc consts  --      0.1847                 0.2261                 0.3276
 IR Inten    --      4.7925                 0.4256                 0.3171

                     25                     26                     27
                      A                      A                      A
 Frequencies --    443.7252               488.2167               496.8106
 Red. masses --      2.9752                 3.2585                 2.7744
 Frc consts  --      0.3451                 0.4576                 0.4035
 IR Inten    --      3.5135                 4.4657                 0.9103

                     28                     29                     30
                      A                      A                      A
 Frequencies --    564.3878               582.6351               772.7491
 Red. masses --      2.8732                 2.6363                 1.2215
 Frc consts  --      0.5392                 0.5273                 0.4298
 IR Inten    --      5.4135                 3.1366                 7.2619

                     31                     32                     33
                      A                      A                      A
 Frequencies --    792.2181               820.3404               820.8243
 Red. masses --      1.2934                 1.0854                 1.0893
 Frc consts  --      0.4783                 0.4304                 0.4324
 IR Inten    --      3.1221                 0.1510                 0.7984

                     34                     35                     36
                      A                      A                      A
 Frequencies --    851.5402               881.6722               904.1242
 Red. masses --      2.0547                 1.8771                 1.8926
 Frc consts  --      0.8778                 0.8597                 0.9115
 IR Inten    --      6.1907                 5.1177                 5.4347

                     37                     38                     39
                      A                      A                      A
 Frequencies --    949.5403               981.2719               994.7698
 Red. masses --      2.2824                 4.2284                 1.7086
 Frc consts  --      1.2124                 2.3988                 0.9962
 IR Inten    --      7.6403                21.5466                 4.7201

                     40                     41                     42
                      A                      A                      A
 Frequencies --   1019.8242              1027.0735              1041.2295
 Red. masses --      3.4241                 1.6042                 2.7075
 Frc consts  --      2.0982                 0.9970                 1.7295
 IR Inten    --      3.2048                12.7443                 5.3890

                     43                     44                     45
                      A                      A                      A
 Frequencies --   1055.2313              1068.9774              1089.3931
 Red. masses --      2.5865                 2.4520                 2.5623
 Frc consts  --      1.6969                 1.6509                 1.7916
 IR Inten    --      3.3969                 3.7237                23.8667

                     46                     47                     48
                      A                      A                      A
 Frequencies --   1117.8792              1122.1502              1141.4114
 Red. masses --      2.3277                 3.1806                 3.1937
 Frc consts  --      1.7138                 2.3597                 2.4515
 IR Inten    --     28.2966                61.1677               116.0850

                     49                     50                     51
                      A                      A                      A
 Frequencies --   1149.1827              1160.0901              1161.9562
 Red. masses --      3.5022                 2.4060                 3.6527
 Frc consts  --      2.7250                 1.9078                 2.9057
 IR Inten    --     69.9150                81.8107               261.1124

                     52                     53                     54
                      A                      A                      A
 Frequencies --   1173.9707              1179.0454              1185.2632
 Red. masses --      3.2484                 2.1435                 1.3825
 Frc consts  --      2.6378                 1.7556                 1.1443
 IR Inten    --     13.3402                38.8574                 5.3698

                     55                     56                     57
                      A                      A                      A
 Frequencies --   1187.8502              1190.7333              1224.0335
 Red. masses --      1.5356                 1.5925                 1.5814
 Frc consts  --      1.2766                 1.3303                 1.3960
 IR Inten    --      3.4375                 8.4382                42.0363

                     58                     59                     60
                      A                      A                      A
 Frequencies --   1239.5136              1254.2553              1286.0952
 Red. masses --      1.3479                 1.3402                 1.1846
 Frc consts  --      1.2201                 1.2422                 1.1544
 IR Inten    --      5.2795                 4.2970                 2.1996

                     61                     62                     63
                      A                      A                      A
 Frequencies --   1294.1472              1295.0317              1298.3243
 Red. masses --      1.1139                 1.1938                 1.1466
 Frc consts  --      1.0992                 1.1796                 1.1387
 IR Inten    --      1.5247                 1.6884                 4.7702

                     64                     65                     66
                      A                      A                      A
 Frequencies --   1310.3803              1318.5131              1342.5306
 Red. masses --      1.1353                 1.1880                 1.2222
 Frc consts  --      1.1486                 1.2168                 1.2979
 IR Inten    --      1.0751                 6.7787                10.7591

                     67                     68                     69
                      A                      A                      A
 Frequencies --   1362.3050              1379.1126              1387.5393
 Red. masses --      1.2467                 1.4144                 1.3295
 Frc consts  --      1.3632                 1.5850                 1.5081
 IR Inten    --     24.6621                12.3298                15.3688

                     70                     71                     72
                      A                      A                      A
 Frequencies --   1392.0474              1402.5556              1408.1820
 Red. masses --      1.3094                 1.2482                 1.3058
 Frc consts  --      1.4949                 1.4467                 1.5256
 IR Inten    --     14.9989                 5.7305                17.8832

                     73                     74                     75
                      A                      A                      A
 Frequencies --   1414.6346              1426.1138              1438.8409
 Red. masses --      1.2264                 1.3832                 1.3877
 Frc consts  --      1.4461                 1.6575                 1.6927
 IR Inten    --      3.1559                31.0207                 7.6239

                     76                     77                     78
                      A                      A                      A
 Frequencies --   1449.0016              1481.1096              1483.0227
 Red. masses --      1.4682                 1.1625                 1.0412
 Frc consts  --      1.8163                 1.5025                 1.3492
 IR Inten    --     10.5991                 1.2443                 3.4781

                     79                     80                     81
                      A                      A                      A
 Frequencies --   1483.8932              1485.0564              1493.6774
 Red. masses --      1.0406                 1.0471                 1.0664
 Frc consts  --      1.3500                 1.3606                 1.4017
 IR Inten    --      4.4063                 4.4662                 1.9221

                     82                     83                     84
                      A                      A                      A
 Frequencies --   1496.2406              1497.0607              1499.5841
 Red. masses --      1.0686                 1.0741                 1.0449
 Frc consts  --      1.4095                 1.4183                 1.3844
 IR Inten    --      0.6109                12.2823                 0.9579

                     85                     86                     87
                      A                      A                      A
 Frequencies --   1501.6053              1503.9550              1506.0743
 Red. masses --      1.0465                 1.0588                 1.0641
 Frc consts  --      1.3903                 1.4110                 1.4221
 IR Inten    --      0.7775                 1.0769                 8.0626

                     88                     89                     90
                      A                      A                      A
 Frequencies --   1511.9506              1531.1875              1533.0502
 Red. masses --      1.0797                 1.0869                 1.0943
 Frc consts  --      1.4542                 1.5014                 1.5152
 IR Inten    --      3.3889                 0.8782                 1.2891

                     91                     92                     93
                      A                      A                      A
 Frequencies --   1535.0895              2938.1579              2949.7724
 Red. masses --      1.0964                 1.0522                 1.0553
 Frc consts  --      1.5223                 5.3517                 5.4101
 IR Inten    --      2.4736                36.0193                35.8663

                     94                     95                     96
                      A                      A                      A
 Frequencies --   2963.1102              2963.9729              2964.7645
 Red. masses --      1.1039                 1.0409                 1.0671
 Frc consts  --      5.7103                 5.3879                 5.5263
 IR Inten    --     52.9470                55.7498                75.5867

                     97                     98                     99
                      A                      A                      A
 Frequencies --   2967.8871              2975.7524              2976.9078
 Red. masses --      1.0630                 1.0812                 1.0997
 Frc consts  --      5.5168                 5.6411                 5.7416
 IR Inten    --     17.5155                27.1471                71.8235

                    100                    101                    102
                      A                      A                      A
 Frequencies --   3000.4507              3003.4702              3010.3722
 Red. masses --      1.0823                 1.1027                 1.0984
 Frc consts  --      5.7408                 5.8609                 5.8646
 IR Inten    --     13.4937                58.6594                44.4240

                    103                    104                    105
                      A                      A                      A
 Frequencies --   3024.5803              3032.7358              3034.5389
 Red. masses --      1.0663                 1.0410                 1.0636
 Frc consts  --      5.7472                 5.6409                 5.7704
 IR Inten    --     20.2670                15.7302                75.1472

                    106                    107                    108
                      A                      A                      A
 Frequencies --   3040.7696              3043.8873              3057.8173
 Red. masses --      1.0347                 1.0347                 1.0964
 Frc consts  --      5.6369                 5.6483                 6.0401
 IR Inten    --     19.4785                17.6940                19.9982

                    109                    110                    111
                      A                      A                      A
 Frequencies --   3061.0998              3097.6032              3106.1691
 Red. masses --      1.0903                 1.1014                 1.1004
 Frc consts  --      6.0193                 6.2264                 6.2555
 IR Inten    --     18.3887                38.2967                41.1226

                    112                    113                    114
                      A                      A                      A
 Frequencies --   3108.7870              3110.6994              3114.6500
 Red. masses --      1.0952                 1.0949                 1.1011
 Frc consts  --      6.2364                 6.2420                 6.2934
 IR Inten    --     32.8366                21.0796                28.0860

                    115                    116                    117
                      A                      A                      A
 Frequencies --   3117.0172              3118.1680              3120.2113
 Red. masses --      1.1026                 1.1015                 1.1026
 Frc consts  --      6.3117                 6.3099                 6.3248
 IR Inten    --     35.8998                22.7573                26.2796

 - Thermochemistry -
 -------------------
 Temperature   298.150 Kelvin.  Pressure   1.00000 Atm.
 Atom     1 has atomic number  6 and mass  12.00000

 Molecular mass:   218.18819 amu.
 Principal axes and moments of inertia in atomic units:
                           1         2         3
     Eigenvalues --  2247.985076989.831058889.63409
           X            0.99998  -0.00569   0.00353
           Y            0.00571   0.99998  -0.00357
           Z           -0.00351   0.00359   0.99999
 This molecule is an asymmetric top.
 Rotational symmetry number  1.
 Warning -- assumption of classical behavior for rotation
           may cause significant error
 Rotational temperatures (Kelvin)      0.03853     0.01239     0.00974
 Rotational constants (GHZ):           0.80283     0.25820     0.20302
 Zero-point vibrational energy     975534.6 (Joules/Mol)
                                  233.15837 (Kcal/Mol)
 Warning -- explicit consideration of  29 degrees of freedom as
           vibrations may cause significant error
 Vibrational temperatures:     33.16    48.30    59.77    80.63    91.88
          (Kelvin)            109.51   117.76   128.69   141.60   180.16
                              211.34   229.35   285.56   302.24   326.87
                              336.19   345.31   357.97   369.05   400.95
                              432.42   470.28   531.19   613.10   638.42
                              702.43   714.80   812.03   838.28  1111.81
                             1139.83  1180.29  1180.98  1225.18  1268.53
                             1300.83  1366.18  1411.83  1431.25  1467.30
                             1477.73  1498.10  1518.24  1538.02  1567.39
                             1608.38  1614.52  1642.24  1653.42  1669.11
                             1671.80  1689.08  1696.38  1705.33  1709.05
                             1713.20  1761.11  1783.38  1804.59  1850.40
                             1861.99  1863.26  1868.00  1885.34  1897.05
                             1931.60  1960.05  1984.24  1996.36  2002.85
                             2017.96  2026.06  2035.34  2051.86  2070.17
                             2084.79  2130.99  2133.74  2134.99  2136.66
                             2149.07  2152.76  2153.94  2157.57  2160.48
                             2163.86  2166.90  2175.36  2203.04  2205.72
                             2208.65  4227.35  4244.06  4263.25  4264.50
                             4265.63  4270.13  4281.44  4283.11  4316.98
                             4321.32  4331.25  4351.70  4363.43  4366.02
                             4374.99  4379.47  4399.52  4404.24  4456.76
                             4469.08  4472.85  4475.60  4481.29  4484.69
                             4486.35  4489.29

 Zero-point correction=                           0.371562 (Hartree/Particle)
 Thermal correction to Energy=                    0.391483
 Thermal correction to Enthalpy=                  0.392427
 Thermal correction to Gibbs Free Energy=         0.320944
 Sum of electronic and zero-point Energies=           -698.259284
 Sum of electronic and thermal Energies=              -698.239363
 Sum of electronic and thermal Enthalpies=            -698.238419
 Sum of electronic and thermal Free Energies=         -698.309902

                     E (Thermal)             CV                S
                      KCal/Mol        Cal/Mol-Kelvin    Cal/Mol-Kelvin
 Total                  245.659             69.643            150.449
 Electronic               0.000              0.000              0.000
 Translational            0.889              2.981             42.044
 Rotational               0.889              2.981             33.301
 Vibrational            243.882             63.681             75.104
 Vibration     1          0.593              1.985              6.352
 Vibration     2          0.594              1.983              5.606
 Vibration     3          0.594              1.981              5.184
 Vibration     4          0.596              1.975              4.592
 Vibration     5          0.597              1.972              4.334
 Vibration     6          0.599              1.965              3.989
 Vibration     7          0.600              1.962              3.846
 Vibration     8          0.602              1.957              3.672
 Vibration     9          0.604              1.950              3.485
 Vibration    10          0.610              1.928              3.018
 Vibration    11          0.617              1.906              2.712
 Vibration    12          0.621              1.892              2.557
 Vibration    13          0.637              1.842              2.147
 Vibration    14          0.642              1.825              2.043
 Vibration    15          0.651              1.800              1.901
 Vibration    16          0.654              1.789              1.851
 Vibration    17          0.657              1.779              1.803
 Vibration    18          0.662              1.765              1.739
 Vibration    19          0.666              1.752              1.685
 Vibration    20          0.679              1.713              1.542
 Vibration    21          0.693              1.673              1.414
 Vibration    22          0.711              1.622              1.276
 Vibration    23          0.741              1.536              1.083
 Vibration    24          0.788              1.413              0.871
 Vibration    25          0.803              1.375              0.815
 Vibration    26          0.844              1.276              0.688
 Vibration    27          0.852              1.257              0.666
 Vibration    28          0.920              1.108              0.515
 Vibration    29          0.939              1.069              0.481

 Optimization completed.
    -- Stationary point found.
 Normal termination of Gaussian 16 at Thu May 25 02:09:43 2023.
