 Gaussian 16, Revision A.03,
 Gaussian 16:  ES64L-G16RevA.03 25-Dec-2016

 -----------------------------
 # opt freq b3lyp/6-31g(2df,p)
 -----------------------------

 -------------------
 Title Card Required
 -------------------
 Symbolic Z-matrix:
 Charge =  0 Multiplicity = 1

 SCF Done:  E(RB3LYP) =  -863.390077694     A.U. after   12 cycles
 SCF Done:  E(RB3LYP) =  -863.405304181     A.U. after   11 cycles
 SCF Done:  E(RB3LYP) =  -863.415355731     A.U. after   10 cycles
 SCF Done:  E(RB3LYP) =  -863.420193377     A.U. after   11 cycles
 SCF Done:  E(RB3LYP) =  -863.423909992     A.U. after   11 cycles
 SCF Done:  E(RB3LYP) =  -863.426889905     A.U. after   11 cycles
 SCF Done:  E(RB3LYP) =  -863.429965554     A.U. after   11 cycles
 SCF Done:  E(RB3LYP) =  -863.432767068     A.U. after   11 cycles
 SCF Done:  E(RB3LYP) =  -863.435246232     A.U. after   11 cycles
 SCF Done:  E(RB3LYP) =  -863.436841596     A.U. after   10 cycles
 SCF Done:  E(RB3LYP) =  -863.451533495     A.U. after   10 cycles
 SCF Done:  E(RB3LYP) =  -863.451625717     A.U. after   10 cycles
 SCF Done:  E(RB3LYP) =  -863.451688385     A.U. after    9 cycles
 SCF Done:  E(RB3LYP) =  -863.451705014     A.U. after    9 cycles
 SCF Done:  E(RB3LYP) =  -863.451707641     A.U. after    7 cycles
 SCF Done:  E(RB3LYP) =  -863.451709623     A.U. after    8 cycles
 SCF Done:  E(RB3LYP) =  -863.451710016     A.U. after    7 cycles
 SCF Done:  E(RB3LYP) =  -863.451710302     A.U. after    6 cycles
 SCF Done:  E(RB3LYP) =  -863.451710412     A.U. after    6 cycles
 Optimization completed.
    -- Stationary point found.
 Normal termination of Gaussian 16 at Mon May 22 11:32:30 2023.

 ----------------------------------------------------------------------
 #N Geom=AllCheck Guess=TCheck SCRF=Check GenChk RB3LYP/6-31G(2df,p) Fr
 eq
 ----------------------------------------------------------------------

 Structure from the checkpoint file:  "CCOCqPrNqCrCqCCrOC.chk"
 -------------------
 Title Card Required
 -------------------
 Charge =  0 Multiplicity = 1

                         Standard orientation:
 ---------------------------------------------------------------------
 Center     Atomic      Atomic             Coordinates (Angstroms)
 Number     Number       Type             X           Y           Z
 ---------------------------------------------------------------------
      1          6           0        3.444301   -1.786487   -0.328373
      2          6           0        2.142392   -1.294079    0.279673
      3          8           0        1.986522    0.080311   -0.069272
      4          6           0        0.823666    0.711976    0.428501
      5         15           0        1.272287    2.555310    0.384824
      6          7           0       -0.392485    0.485273   -0.323806
      7          6           0       -0.250965    0.511593   -1.777004
      8          6           0       -1.385116   -0.390118    0.228278
      9          6           0       -2.812253   -0.040834   -0.223744
     10          6           0       -3.225683    1.389583    0.128583
     11          8           0       -1.071706   -1.755649   -0.103477
     12          6           0       -1.685975   -2.732157    0.705905
     13          1           0        3.610307   -2.837023   -0.070453
     14          1           0        4.290943   -1.199788    0.039681
     15          1           0        3.416092   -1.698820   -1.418285
     16          1           0        2.167520   -1.390122    1.378119
     17          1           0        1.286072   -1.873194   -0.083306
     18          1           0        0.633185    0.397885    1.462330
     19          1           0        0.255717    2.971671    1.288634
     20          1           0        2.271188    2.502899    1.395363
     21          1           0        0.487599    1.268410   -2.047978
     22          1           0       -1.198517    0.786651   -2.247507
     23          1           0        0.076669   -0.450326   -2.190379
     24          1           0       -1.334693   -0.285119    1.324453
     25          1           0       -3.498512   -0.746310    0.256736
     26          1           0       -2.901980   -0.219482   -1.300162
     27          1           0       -3.151113    1.568305    1.207277
     28          1           0       -4.261852    1.579543   -0.167126
     29          1           0       -2.585969    2.121909   -0.370192
     30          1           0       -1.212037   -3.689596    0.473957
     31          1           0       -2.764607   -2.827366    0.516214
     32          1           0       -1.543651   -2.520874    1.777976
 ---------------------------------------------------------------------

 SCF Done:  E(RB3LYP) =  -863.451710412     A.U. after    1 cycles

 The electronic state is 1-A.
 Alpha  occ. eigenvalues --  -77.06151 -19.13975 -19.13723 -14.32601 -10.26006
 Alpha  occ. eigenvalues --  -10.25918 -10.22795 -10.21908 -10.19618 -10.18252
 Alpha  occ. eigenvalues --  -10.17493 -10.17129  -6.53650  -4.69858  -4.69833
 Alpha  occ. eigenvalues --   -4.69419  -1.03858  -1.02824  -0.91347  -0.77937
 Alpha  occ. eigenvalues --   -0.75405  -0.71303  -0.70070  -0.66299  -0.63811
 Alpha  occ. eigenvalues --   -0.60441  -0.58557  -0.56107  -0.51579  -0.50465
 Alpha  occ. eigenvalues --   -0.48776  -0.46983  -0.45285  -0.44403  -0.43286
 Alpha  occ. eigenvalues --   -0.42143  -0.41517  -0.40304  -0.39044  -0.38081
 Alpha  occ. eigenvalues --   -0.37893  -0.36977  -0.36563  -0.35616  -0.35252
 Alpha  occ. eigenvalues --   -0.34704  -0.33878  -0.31555  -0.30791  -0.26531
 Alpha  occ. eigenvalues --   -0.25753  -0.25006  -0.21694
 Alpha virt. eigenvalues --    0.03506   0.05473   0.07576   0.09443   0.10220
 Alpha virt. eigenvalues --    0.10284   0.12291   0.12852   0.13147   0.14438
 Alpha virt. eigenvalues --    0.14650   0.15510   0.16062   0.16193   0.16481

 Mulliken charges:
               1
     1  C   -0.383831
     2  C   -0.060415
     3  O   -0.257122
     4  C    0.124279
     5  P   -0.203570
     6  N   -0.075162
     7  C   -0.344303
     8  C    0.132958
     9  C   -0.210113
    10  C   -0.382238
    11  O   -0.243966
    12  C   -0.241207
    13  H    0.112132
    14  H    0.123797
    15  H    0.126744
    16  H    0.079616
    17  H    0.125301
    18  H    0.080579
    19  H    0.064047
    20  H    0.068830
    21  H    0.148276
    22  H    0.116705
    23  H    0.124588
    24  H    0.067089
    25  H    0.098404
    26  H    0.109278
    27  H    0.112193
    28  H    0.112466
    29  H    0.133725
    30  H    0.127237
    31  H    0.111983
    32  H    0.101701
 Sum of Mulliken charges =  -0.00000

 Dipole moment (field-independent basis, Debye):
    X=             -1.6806    Y=             -1.9107    Z=              1.4641  Tot=              2.9358
 Quadrupole moment (field-independent basis, Debye-Ang):
   XX=            -82.5099   YY=            -85.2500   ZZ=            -81.4977
   XY=             -2.1004   XZ=              0.9441   YZ=             -0.3012

  Exact polarizability: 138.126   0.800 141.251   0.955   1.188 108.322
 Approx polarizability: 181.186   3.314 187.987   0.440   2.461 170.662

                      1                      2                      3
                      A                      A                      A
 Frequencies --     28.8204                52.0871                62.3307
 Red. masses --      3.6870                 2.8956                 2.3101
 Frc consts  --      0.0018                 0.0046                 0.0053
 IR Inten    --      0.1698                 0.2159                 0.3946

                      4                      5                      6
                      A                      A                      A
 Frequencies --     67.6243                98.2591               101.1110
 Red. masses --      2.2810                 2.2759                 1.8589
 Frc consts  --      0.0061                 0.0129                 0.0112
 IR Inten    --      0.2714                 0.8792                 2.0593

                      7                      8                      9
                      A                      A                      A
 Frequencies --    116.6234               139.0170               162.2795
 Red. masses --      1.3140                 2.9454                 2.1590
 Frc consts  --      0.0105                 0.0335                 0.0335
 IR Inten    --      0.7225                 0.0980                 4.0576

                     10                     11                     12
                      A                      A                      A
 Frequencies --    178.4780               187.0084               203.8405
 Red. masses --      1.9147                 2.5448                 1.3552
 Frc consts  --      0.0359                 0.0524                 0.0332
 IR Inten    --      2.0230                 0.8565                 0.2504

                     13                     14                     15
                      A                      A                      A
 Frequencies --    217.9148               232.4445               243.9031
 Red. masses --      1.1715                 2.0865                 1.3128
 Frc consts  --      0.0328                 0.0664                 0.0460
 IR Inten    --      3.6378                 2.5161                 0.7741

                     16                     17                     18
                      A                      A                      A
 Frequencies --    276.5450               306.2465               335.5276
 Red. masses --      2.4346                 2.8468                 3.3109
 Frc consts  --      0.1097                 0.1573                 0.2196
 IR Inten    --      2.7477                 8.2584                 1.0457

                     19                     20                     21
                      A                      A                      A
 Frequencies --    350.7527               379.2258               472.7230
 Red. masses --      4.9291                 2.8988                 3.7524
 Frc consts  --      0.3573                 0.2456                 0.4941
 IR Inten    --      2.4313                 1.7958                 5.7085

                     22                     23                     24
                      A                      A                      A
 Frequencies --    499.6160               538.3813               625.6857
 Red. masses --      3.4794                 5.3290                 2.3500
 Frc consts  --      0.5117                 0.9101                 0.5420
 IR Inten    --      7.8159                 1.4852                11.1813

                     25                     26                     27
                      A                      A                      A
 Frequencies --    717.1881               773.2612               813.1549
 Red. masses --      1.5728                 1.6855                 1.4543
 Frc consts  --      0.4767                 0.5938                 0.5666
 IR Inten    --      8.5047                18.2751                15.1861

                     28                     29                     30
                      A                      A                      A
 Frequencies --    823.3048               850.5077               881.7595
 Red. masses --      1.1093                 1.7016                 1.6664
 Frc consts  --      0.4430                 0.7252                 0.7634
 IR Inten    --      0.0413                 8.4501                 8.3995

                     31                     32                     33
                      A                      A                      A
 Frequencies --    903.4192               921.6846               961.4319
 Red. masses --      2.2727                 2.0837                 2.7444
 Frc consts  --      1.0929                 1.0429                 1.4946
 IR Inten    --      8.6980                18.1888                54.3744

                     34                     35                     36
                      A                      A                      A
 Frequencies --   1018.5389              1025.5200              1064.7499
 Red. masses --      2.3565                 2.9417                 2.5090
 Frc consts  --      1.4404                 1.8228                 1.6759
 IR Inten    --     43.5785               101.8323               121.5678

                     37                     38                     39
                      A                      A                      A
 Frequencies --   1083.1278              1099.6706              1107.6793
 Red. masses --      2.2025                 4.0843                 5.3169
 Frc consts  --      1.5224                 2.9100                 3.8436
 IR Inten    --     22.0269                78.8665               286.5899

                     40                     41                     42
                      A                      A                      A
 Frequencies --   1114.0430              1138.2798              1140.2658
 Red. masses --      1.0583                 2.1215                 2.1132
 Frc consts  --      0.7739                 1.6195                 1.6189
 IR Inten    --     35.5857                26.8665                13.0660

                     43                     44                     45
                      A                      A                      A
 Frequencies --   1153.3174              1180.1746              1188.4931
 Red. masses --      1.4941                 1.2876                 1.5508
 Frc consts  --      1.1709                 1.0567                 1.2906
 IR Inten    --      2.7318                 1.1357                 4.8361

                     46                     47                     48
                      A                      A                      A
 Frequencies --   1199.6169              1227.3417              1257.0734
 Red. masses --      1.6636                 1.4899                 1.7581
 Frc consts  --      1.4106                 1.3223                 1.6369
 IR Inten    --     11.5221                34.4301                14.1388

                     49                     50                     51
                      A                      A                      A
 Frequencies --   1278.3528              1299.3554              1308.9467
 Red. masses --      1.6306                 1.1092                 1.6758
 Frc consts  --      1.5700                 1.1034                 1.6916
 IR Inten    --     58.5973                 6.8818                32.2940

                     52                     53                     54
                      A                      A                      A
 Frequencies --   1334.3170              1378.6153              1384.3465
 Red. masses --      1.2129                 1.3697                 1.3831
 Frc consts  --      1.2723                 1.5338                 1.5617
 IR Inten    --      0.7736                22.8015                50.8381

                     55                     56                     57
                      A                      A                      A
 Frequencies --   1402.3638              1409.8677              1427.1986
 Red. masses --      1.2557                 1.2347                 1.3318
 Frc consts  --      1.4549                 1.4460                 1.5983
 IR Inten    --     12.7527                 6.3347                14.4519

                     58                     59                     60
                      A                      A                      A
 Frequencies --   1439.3496              1461.1696              1474.7546
 Red. masses --      1.3128                 1.1560                 1.1022
 Frc consts  --      1.6025                 1.4541                 1.4124
 IR Inten    --      4.6156                 6.4642                 3.1680

                     61                     62                     63
                      A                      A                      A
 Frequencies --   1481.8448              1483.2040              1493.0843
 Red. masses --      1.0790                 1.0407                 1.0802
 Frc consts  --      1.3960                 1.3489                 1.4188
 IR Inten    --      0.6614                 4.2427                 2.9899

                     64                     65                     66
                      A                      A                      A
 Frequencies --   1494.9821              1497.4133              1501.0986
 Red. masses --      1.0429                 1.0525                 1.0453
 Frc consts  --      1.3733                 1.3904                 1.3878
 IR Inten    --      2.6107                 3.2481                 1.6127

                     67                     68                     69
                      A                      A                      A
 Frequencies --   1507.3744              1511.8201              1518.5119
 Red. masses --      1.0737                 1.0587                 1.0580
 Frc consts  --      1.4374                 1.4257                 1.4374
 IR Inten    --     12.5907                 9.2719                 5.9085

                     70                     71                     72
                      A                      A                      A
 Frequencies --   1535.9823              2377.7950              2386.5298
 Red. masses --      1.0849                 1.0356                 1.0410
 Frc consts  --      1.5080                 3.4497                 3.4933
 IR Inten    --      3.1523                57.0997                84.8821

                     73                     74                     75
                      A                      A                      A
 Frequencies --   2964.0343              2965.2555              2973.9216
 Red. masses --      1.0789                 1.0694                 1.0442
 Frc consts  --      5.5848                 5.5398                 5.4414
 IR Inten    --     12.8457                36.1974                73.6461

                     76                     77                     78
                      A                      A                      A
 Frequencies --   3019.3649              3022.2066              3025.2513
 Red. masses --      1.0800                 1.0462                 1.0977
 Frc consts  --      5.8013                 5.6300                 5.9189
 IR Inten    --     46.3033                18.7727                48.8041

                     79                     80                     81
                      A                      A                      A
 Frequencies --   3036.1416              3042.2490              3049.2447
 Red. masses --      1.0380                 1.0348                 1.0617
 Frc consts  --      5.6374                 5.6428                 5.8159
 IR Inten    --     24.0534                21.5014                34.2781

                     82                     83                     84
                      A                      A                      A
 Frequencies --   3066.1439              3079.3221              3091.3047
 Red. masses --      1.0909                 1.0996                 1.0931
 Frc consts  --      6.0427                 6.1431                 6.1544
 IR Inten    --      6.2880                18.9210                15.6556

                     85                     86                     87
                      A                      A                      A
 Frequencies --   3101.7910              3105.3961              3115.6245
 Red. masses --      1.0996                 1.0966                 1.1011
 Frc consts  --      6.2334                 6.2305                 6.2974
 IR Inten    --     46.8144                24.8567                24.2200

                     88                     89                     90
                      A                      A                      A
 Frequencies --   3120.1029              3122.6020              3129.6414
 Red. masses --      1.1027                 1.1011                 1.1006
 Frc consts  --      6.3246                 6.3257                 6.3513
 IR Inten    --     25.6139                36.9623                14.1945

 - Thermochemistry -
 -------------------
 Temperature   298.150 Kelvin.  Pressure   1.00000 Atm.
 Atom     1 has atomic number  6 and mass  12.00000

 Molecular mass:   193.12317 amu.
 Principal axes and moments of inertia in atomic units:
                           1         2         3
     Eigenvalues --  2135.263622977.408134478.73977
           X            0.99624  -0.08653  -0.00341
           Y            0.08651   0.99623  -0.00643
           Z            0.00396   0.00611   0.99997
 This molecule is an asymmetric top.
 Rotational symmetry number  1.
 Warning -- assumption of classical behavior for rotation
           may cause significant error
 Rotational temperatures (Kelvin)      0.04056     0.02909     0.01934
 Rotational constants (GHZ):           0.84521     0.60615     0.40296
 Zero-point vibrational energy     729350.8 (Joules/Mol)
                                  174.31902 (Kcal/Mol)
 Warning -- explicit consideration of  23 degrees of freedom as
           vibrations may cause significant error
 Vibrational temperatures:     41.47    74.94    89.68    97.30   141.37
          (Kelvin)            145.48   167.80   200.01   233.48   256.79
                              269.06   293.28   313.53   334.44   350.92
                              397.89   440.62   482.75   504.65   545.62
                              680.14   718.84   774.61   900.22  1031.87
                             1112.55  1169.95  1184.55  1223.69  1268.66
                             1299.82  1326.10  1383.29  1465.45  1475.49
                             1531.94  1558.38  1582.18  1593.70  1602.86
                             1637.73  1640.59  1659.37  1698.01  1709.98
                             1725.98  1765.87  1808.65  1839.26  1869.48
                             1883.28  1919.78  1983.52  1991.77  2017.69
                             2028.49  2053.42  2070.90  2102.30  2121.84
                             2132.04  2134.00  2148.22  2150.95  2154.44
                             2159.75  2168.78  2175.17  2184.80  2209.94
                             3421.12  3433.68  4264.58  4266.34  4278.81
                             4344.19  4348.28  4352.66  4368.33  4377.12
                             4387.18  4411.50  4430.46  4447.70  4462.79
                             4467.97  4482.69  4489.13  4492.73  4502.86

 Zero-point correction=                           0.277795 (Hartree/Particle)
 Thermal correction to Energy=                    0.294515
 Thermal correction to Enthalpy=                  0.295459
 Thermal correction to Gibbs Free Energy=         0.232779
 Sum of electronic and zero-point Energies=           -863.173915
 Sum of electronic and thermal Energies=              -863.157196
 Sum of electronic and thermal Enthalpies=            -863.156252
 Sum of electronic and thermal Free Energies=         -863.218931

                     E (Thermal)             CV                S
                      KCal/Mol        Cal/Mol-Kelvin    Cal/Mol-Kelvin
 Total                  184.811             58.423            131.920
 Electronic               0.000              0.000              0.000
 Translational            0.889              2.981             41.680
 Rotational               0.889              2.981             31.721
 Vibrational            183.033             52.461             58.519
 Vibration     1          0.593              1.984              5.909
 Vibration     2          0.596              1.977              4.737
 Vibration     3          0.597              1.972              4.382
 Vibration     4          0.598              1.970              4.221
 Vibration     5          0.604              1.950              3.489
 Vibration     6          0.604              1.948              3.433
 Vibration     7          0.608              1.936              3.156
 Vibration     8          0.615              1.914              2.817
 Vibration     9          0.622              1.889              2.523
 Vibration    10          0.629              1.869              2.344
 Vibration    11          0.632              1.858              2.257
 Vibration    12          0.640              1.834              2.098
 Vibration    13          0.646              1.814              1.976
 Vibration    14          0.653              1.791              1.860
 Vibration    15          0.659              1.773              1.774
 Vibration    16          0.678              1.717              1.555
 Vibration    17          0.697              1.662              1.383
 Vibration    18          0.717              1.605              1.233
 Vibration    19          0.728              1.574              1.163
 Vibration    20          0.749              1.514              1.042
 Vibration    21          0.830              1.311              0.730
 Vibration    22          0.855              1.251              0.659
 Vibration    23          0.893              1.165              0.569

                           ! Non-Optimized Parameters !
 Normal termination of Gaussian 16 at Mon May 22 13:07:15 2023.
