 Gaussian 16, Revision A.03,
 Gaussian 16:  ES64L-G16RevA.03 25-Dec-2016

 -----------------------------
 # opt freq b3lyp/6-31g(2df,p)
 -----------------------------

 -------------------
 Title Card Required
 -------------------
 Symbolic Z-matrix:
 Charge =  0 Multiplicity = 1

 SCF Done:  E(RB3LYP) =  -750.072930514     A.U. after   12 cycles
 SCF Done:  E(RB3LYP) =  -750.081421031     A.U. after   11 cycles
 SCF Done:  E(RB3LYP) =  -750.082974231     A.U. after   10 cycles
 SCF Done:  E(RB3LYP) =  -750.083230701     A.U. after   10 cycles
 SCF Done:  E(RB3LYP) =  -750.083298723     A.U. after   10 cycles
 SCF Done:  E(RB3LYP) =  -750.083362244     A.U. after   10 cycles
 SCF Done:  E(RB3LYP) =  -750.083377236     A.U. after    9 cycles
 SCF Done:  E(RB3LYP) =  -750.083380158     A.U. after    8 cycles
 SCF Done:  E(RB3LYP) =  -750.083381220     A.U. after    7 cycles
 SCF Done:  E(RB3LYP) =  -750.083381426     A.U. after    7 cycles
 SCF Done:  E(RB3LYP) =  -750.083381494     A.U. after    6 cycles
 SCF Done:  E(RB3LYP) =  -750.083381515     A.U. after    5 cycles
 Optimization completed.
    -- Stationary point found.
 Normal termination of Gaussian 16 at Tue May 23 08:14:18 2023.

 ----------------------------------------------------------------------
 #N Geom=AllCheck Guess=TCheck SCRF=Check GenChk RB3LYP/6-31G(2df,p) Fr
 eq
 ----------------------------------------------------------------------

 Structure from the checkpoint file:  "CCONqOrCqCrCNCCCCCCN.chk"
 -------------------
 Title Card Required
 -------------------
 Charge =  0 Multiplicity = 1

                         Standard orientation:
 ---------------------------------------------------------------------
 Center     Atomic      Atomic             Coordinates (Angstroms)
 Number     Number       Type             X           Y           Z
 ---------------------------------------------------------------------
      1          6           0       -7.333791    0.553817   -0.443166
      2          6           0       -6.217026   -0.203438    0.254990
      3          8           0       -4.997919    0.144338   -0.390294
      4          7           0       -3.908077   -0.483246    0.269919
      5          8           0       -3.775361   -1.768069   -0.366375
      6          6           0       -2.718693    0.296212   -0.150197
      7          6           0       -2.849503    1.722737    0.383987
      8          6           0       -1.466609   -0.414966    0.384933
      9          7           0       -0.251826    0.303516    0.019800
     10          6           0        0.970019   -0.447275    0.292609
     11          6           0        2.212216    0.369471   -0.062573
     12          6           0        3.520992   -0.394061    0.162476
     13          6           0        4.769475    0.424949   -0.183118
     14          6           0        6.077531   -0.341562    0.033878
     15          6           0        7.322856    0.478460   -0.303470
     16          7           0        8.537515   -0.321693   -0.111472
     17          1           0       -8.297090    0.306253    0.012448
     18          1           0       -7.374190    0.290650   -1.503781
     19          1           0       -7.180597    1.633898   -0.363037
     20          1           0       -6.380185   -1.287686    0.176423
     21          1           0       -6.157985    0.055163    1.320590
     22          1           0       -4.013031   -2.376479    0.342200
     23          1           0       -2.677102    0.310159   -1.247551
     24          1           0       -2.865430    1.728404    1.479813
     25          1           0       -3.766544    2.187980    0.022872
     26          1           0       -2.005455    2.326282    0.040032
     27          1           0       -1.416139   -1.409510   -0.064069
     28          1           0       -1.578405   -0.561238    1.476760
     29          1           0       -0.209938    1.181750    0.527120
     30          1           0        0.945551   -1.360749   -0.316636
     31          1           0        1.039733   -0.782677    1.346315
     32          1           0        2.222568    1.290888    0.538225
     33          1           0        2.135000    0.686918   -1.109606
     34          1           0        3.513622   -1.313326   -0.439215
     35          1           0        3.579930   -0.719633    1.210422
     36          1           0        4.778056    1.343854    0.419835
     37          1           0        4.708665    0.752084   -1.230420
     38          1           0        6.087136   -1.255690   -0.571999
     39          1           0        6.137394   -0.668894    1.082371
     40          1           0        7.307099    1.414660    0.283690
     41          1           0        7.284342    0.775963   -1.359211
     42          1           0        8.646187   -0.540358    0.875473
     43          1           0        9.354967    0.225086   -0.365526
 ---------------------------------------------------------------------

 SCF Done:  E(RB3LYP) =  -750.083381515     A.U. after    1 cycles

 The electronic state is 1-A.
 Alpha  occ. eigenvalues --  -19.16186 -19.15973 -14.41395 -14.30612 -14.30171
 Alpha  occ. eigenvalues --  -10.22460 -10.20562 -10.19825 -10.19730 -10.19496
 Alpha  occ. eigenvalues --  -10.17689 -10.17522 -10.17475 -10.17380 -10.17166
 Alpha  occ. eigenvalues --  -10.16906  -1.10144  -1.00308  -0.89873  -0.87180
 Alpha  occ. eigenvalues --   -0.83043  -0.79556  -0.75816  -0.74160  -0.70086
 Alpha  occ. eigenvalues --   -0.68783  -0.65284  -0.61150  -0.60160  -0.58006
 Alpha  occ. eigenvalues --   -0.57430  -0.56078  -0.52429  -0.50786  -0.48575
 Alpha  occ. eigenvalues --   -0.48123  -0.46958  -0.46088  -0.45791  -0.44869
 Alpha  occ. eigenvalues --   -0.43125  -0.42739  -0.41218  -0.41076  -0.39716
 Alpha  occ. eigenvalues --   -0.39475  -0.38603  -0.38202  -0.37649  -0.36941
 Alpha  occ. eigenvalues --   -0.36005  -0.35873  -0.35036  -0.34024  -0.33703
 Alpha  occ. eigenvalues --   -0.33039  -0.32519  -0.32361  -0.31788  -0.30624
 Alpha  occ. eigenvalues --   -0.29806  -0.27302  -0.23300  -0.23036  -0.21640
 Alpha virt. eigenvalues --    0.07262   0.08469   0.08660   0.09449   0.10380
 Alpha virt. eigenvalues --    0.11198   0.11548   0.12127   0.12263   0.12578
 Alpha virt. eigenvalues --    0.13908   0.14181   0.14606   0.15138   0.15919

 Mulliken charges:
               1
     1  C   -0.394079
     2  C   -0.014987
     3  O   -0.211527
     4  N   -0.022476
     5  O   -0.373200
     6  C    0.126844
     7  C   -0.419645
     8  C   -0.150171
     9  N   -0.309719
    10  C   -0.119454
    11  C   -0.200507
    12  C   -0.177578
    13  C   -0.179590
    14  C   -0.154677
    15  C   -0.147513
    16  N   -0.509288
    17  H    0.117704
    18  H    0.131845
    19  H    0.126598
    20  H    0.085975
    21  H    0.093900
    22  H    0.297773
    23  H    0.093205
    24  H    0.112301
    25  H    0.134480
    26  H    0.120893
    27  H    0.115337
    28  H    0.074308
    29  H    0.211235
    30  H    0.101510
    31  H    0.070846
    32  H    0.085071
    33  H    0.106170
    34  H    0.095806
    35  H    0.091285
    36  H    0.089707
    37  H    0.094319
    38  H    0.105675
    39  H    0.084005
    40  H    0.074085
    41  H    0.100410
    42  H    0.220075
    43  H    0.223050
 Sum of Mulliken charges =  -0.00000

 Dipole moment (field-independent basis, Debye):
    X=             -0.1275    Y=              0.6176    Z=              2.4767  Tot=              2.5557
 Quadrupole moment (field-independent basis, Debye-Ang):
   XX=            -88.1906   YY=            -99.0219   ZZ=           -102.1550
   XY=             11.1493   XZ=              0.6248   YZ=             -2.1547

  Exact polarizability: 214.222  -2.282 139.605  -0.052  -2.029 125.098
 Approx polarizability: 219.491  -3.054 211.881  -0.785  -2.021 199.508

                      1                      2                      3
                      A                      A                      A
 Frequencies --     16.4996                28.1279                32.9841
 Red. masses --      4.2721                 4.0358                 1.8286
 Frc consts  --      0.0007                 0.0019                 0.0012
 IR Inten    --      0.0611                 0.1241                 2.0484

                      4                      5                      6
                      A                      A                      A
 Frequencies --     41.6409                64.4014                66.8718
 Red. masses --      3.7880                 2.4781                 3.6406
 Frc consts  --      0.0039                 0.0061                 0.0096
 IR Inten    --      0.1599                 0.2517                 0.2521

                      7                      8                      9
                      A                      A                      A
 Frequencies --     78.6494                87.5278               105.5430
 Red. masses --      2.2520                 1.8334                 3.3315
 Frc consts  --      0.0082                 0.0083                 0.0219
 IR Inten    --      0.3601                 1.3605                 0.8271

                     10                     11                     12
                      A                      A                      A
 Frequencies --    116.8210               135.4012               153.1362
 Red. masses --      2.7484                 2.0851                 2.4776
 Frc consts  --      0.0221                 0.0225                 0.0342
 IR Inten    --      2.0183                 2.7512                 0.3426

                     13                     14                     15
                      A                      A                      A
 Frequencies --    156.5646               168.0835               173.1636
 Red. masses --      3.4276                 2.4879                 2.9861
 Frc consts  --      0.0495                 0.0414                 0.0528
 IR Inten    --      0.2669                 0.1000                 1.5313

                     16                     17                     18
                      A                      A                      A
 Frequencies --    217.1122               224.5244               242.8885
 Red. masses --      2.3815                 1.3382                 1.1784
 Frc consts  --      0.0661                 0.0397                 0.0410
 IR Inten    --      0.9627                 0.4263                 0.3857

                     19                     20                     21
                      A                      A                      A
 Frequencies --    255.5935               292.0953               308.7455
 Red. masses --      1.2260                 3.4012                 2.5194
 Frc consts  --      0.0472                 0.1710                 0.1415
 IR Inten    --     32.8726                13.7212                13.1424

                     22                     23                     24
                      A                      A                      A
 Frequencies --    336.8844               341.9183               384.6447
 Red. masses --      2.9435                 1.7253                 1.9038
 Frc consts  --      0.1968                 0.1188                 0.1660
 IR Inten    --      3.1518                51.3832                10.6344

                     25                     26                     27
                      A                      A                      A
 Frequencies --    404.4939               436.4803               480.8380
 Red. masses --      3.2475                 2.9841                 3.7173
 Frc consts  --      0.3131                 0.3350                 0.5064
 IR Inten    --      3.5131                 1.2624                 3.3930

                     28                     29                     30
                      A                      A                      A
 Frequencies --    489.5030               532.0933               572.1432
 Red. masses --      3.4679                 3.3661                 3.3166
 Frc consts  --      0.4896                 0.5615                 0.6397
 IR Inten    --      5.3331                14.7473                 3.7421

                     31                     32                     33
                      A                      A                      A
 Frequencies --    618.0295               735.7023               755.0948
 Red. masses --      5.1313                 1.0659                 1.0969
 Frc consts  --      1.1548                 0.3399                 0.3685
 IR Inten    --      2.1220                 2.7874                 0.3084

                     34                     35                     36
                      A                      A                      A
 Frequencies --    791.8132               803.2749               822.2603
 Red. masses --      1.2065                 1.1809                 1.1293
 Frc consts  --      0.4457                 0.4489                 0.4498
 IR Inten    --     45.5818                13.0076                 2.2546

                     37                     38                     39
                      A                      A                      A
 Frequencies --    839.2484               858.5568               881.3982
 Red. masses --      2.5642                 1.2529                 3.2606
 Frc consts  --      1.0641                 0.5441                 1.4924
 IR Inten    --     26.9026                84.9553                75.6093

                     40                     41                     42
                      A                      A                      A
 Frequencies --    890.8167               903.9745               928.7716
 Red. masses --      2.6066                 1.3332                 1.7582
 Frc consts  --      1.2187                 0.6419                 0.8936
 IR Inten    --     32.3365                10.2632                 4.7045

                     43                     44                     45
                      A                      A                      A
 Frequencies --    940.4777               965.5773               995.8234
 Red. masses --      1.6831                 2.5591                 1.9192
 Frc consts  --      0.8771                 1.4058                 1.1213
 IR Inten    --     58.9690                 1.4012                14.8488

                     46                     47                     48
                      A                      A                      A
 Frequencies --   1004.8417              1016.1201              1034.7206
 Red. masses --      2.1425                 3.1755                 2.5964
 Frc consts  --      1.2746                 1.9317                 1.6378
 IR Inten    --     19.0665                 0.6336                 7.3061

                     49                     50                     51
                      A                      A                      A
 Frequencies --   1059.3591              1070.2188              1070.8835
 Red. masses --      2.7987                 2.3037                 3.2851
 Frc consts  --      1.8505                 1.5546                 2.2197
 IR Inten    --      1.6901                14.7875                61.1596

                     52                     53                     54
                      A                      A                      A
 Frequencies --   1078.5307              1093.6965              1120.7497
 Red. masses --      2.4911                 2.6953                 1.9309
 Frc consts  --      1.7073                 1.8995                 1.4290
 IR Inten    --     14.8928                 3.4301                22.0678

                     55                     56                     57
                      A                      A                      A
 Frequencies --   1128.4914              1151.1870              1157.1260
 Red. masses --      1.5799                 2.1559                 1.9360
 Frc consts  --      1.1854                 1.6833                 1.5273
 IR Inten    --      2.6574                26.7018                12.1267

                     58                     59                     60
                      A                      A                      A
 Frequencies --   1158.1639              1175.7050              1189.7394
 Red. masses --      2.7947                 2.7396                 1.5265
 Frc consts  --      2.2087                 2.2311                 1.2731
 IR Inten    --     58.6189                12.7924                 3.5895

                     61                     62                     63
                      A                      A                      A
 Frequencies --   1208.0494              1229.2868              1248.8011
 Red. masses --      1.7884                 1.4435                 1.3764
 Frc consts  --      1.5377                 1.2852                 1.2647
 IR Inten    --     13.2313                 4.1790                12.1198

                     64                     65                     66
                      A                      A                      A
 Frequencies --   1267.9407              1280.9464              1293.3808
 Red. masses --      1.3707                 1.1234                 1.3102
 Frc consts  --      1.2983                 1.0860                 1.2914
 IR Inten    --     10.0326                 0.0413                26.9035

                     67                     68                     69
                      A                      A                      A
 Frequencies --   1307.2089              1308.5602              1320.1187
 Red. masses --      1.2811                 1.2517                 1.0781
 Frc consts  --      1.2898                 1.2629                 1.1069
 IR Inten    --      1.9528                 7.5882                 1.7907

                     70                     71                     72
                      A                      A                      A
 Frequencies --   1328.8130              1331.9878              1339.8876
 Red. masses --      1.0773                 1.1988                 1.1699
 Frc consts  --      1.1208                 1.2532                 1.2375
 IR Inten    --      0.2485                 0.7201                 3.4425

                     73                     74                     75
                      A                      A                      A
 Frequencies --   1357.4409              1368.9313              1386.1332
 Red. masses --      1.3342                 1.3592                 1.4554
 Frc consts  --      1.4485                 1.5008                 1.6475
 IR Inten    --     15.1608                 4.8087                 6.2521

                     76                     77                     78
                      A                      A                      A
 Frequencies --   1387.3862              1393.0847              1402.0391
 Red. masses --      1.2546                 1.2378                 1.5840
 Frc consts  --      1.4229                 1.4153                 1.8345
 IR Inten    --     30.5378                 9.2498                 0.0112

                     79                     80                     81
                      A                      A                      A
 Frequencies --   1406.4863              1417.5155              1427.4533
 Red. masses --      1.4044                 1.3865                 1.4748
 Frc consts  --      1.6368                 1.6415                 1.7705
 IR Inten    --      0.3853                25.8879                 2.1638

                     82                     83                     84
                      A                      A                      A
 Frequencies --   1432.2363              1483.7328              1484.1020
 Red. masses --      1.4800                 1.0464                 1.0777
 Frc consts  --      1.7888                 1.3573                 1.3985
 IR Inten    --     20.4355                 4.6829                 2.8744

                     85                     86                     87
                      A                      A                      A
 Frequencies --   1485.0822              1485.4340              1493.3665
 Red. masses --      1.0829                 1.1439                 1.0862
 Frc consts  --      1.4071                 1.4871                 1.4273
 IR Inten    --      0.4103                19.4482                 0.4161

                     88                     89                     90
                      A                      A                      A
 Frequencies --   1496.3078              1501.1352              1505.8088
 Red. masses --      1.0838                 1.0472                 1.0892
 Frc consts  --      1.4296                 1.3903                 1.4551
 IR Inten    --      2.8182                 1.4802                 7.2019

                     91                     92                     93
                      A                      A                      A
 Frequencies --   1512.4467              1516.5492              1520.3459
 Red. masses --      1.0891                 1.0774                 1.0921
 Frc consts  --      1.4678                 1.4600                 1.4873
 IR Inten    --     20.2772                 2.2935                 1.2643

                     94                     95                     96
                      A                      A                      A
 Frequencies --   1526.7404              1527.1098              1658.8639
 Red. masses --      1.0861                 1.0864                 1.0888
 Frc consts  --      1.4916                 1.4928                 1.7653
 IR Inten    --      4.1131                 2.6484                21.6669

                     97                     98                     99
                      A                      A                      A
 Frequencies --   2903.7682              2916.3200              2931.3887
 Red. masses --      1.0730                 1.0723                 1.0727
 Frc consts  --      5.3305                 5.3731                 5.4310
 IR Inten    --     53.1320                84.1252                71.9566

                    100                    101                    102
                      A                      A                      A
 Frequencies --   2997.8294              2998.2739              3000.4559
 Red. masses --      1.0567                 1.0636                 1.0654
 Frc consts  --      5.5950                 5.6334                 5.6512
 IR Inten    --     47.2207                 3.1912                 4.4338

                    103                    104                    105
                      A                      A                      A
 Frequencies --   3001.3817              3010.9497              3024.6575
 Red. masses --      1.0602                 1.0655                 1.0950
 Frc consts  --      5.6272                 5.6912                 5.9024
 IR Inten    --      1.4398                66.9175                 3.8261

                    106                    107                    108
                      A                      A                      A
 Frequencies --   3025.5073              3028.5149              3036.4875
 Red. masses --      1.0822                 1.0817                 1.0827
 Frc consts  --      5.8365                 5.8455                 5.8816
 IR Inten    --     14.6059                43.0242                42.9165

                    109                    110                    111
                      A                      A                      A
 Frequencies --   3036.8558              3041.6170              3042.0616
 Red. masses --      1.1043                 1.0422                 1.0982
 Frc consts  --      6.0002                 5.6807                 5.9880
 IR Inten    --     27.6069                27.7452                 1.1032

                    112                    113                    114
                      A                      A                      A
 Frequencies --   3045.1558              3062.5387              3070.7726
 Red. masses --      1.0349                 1.0996                 1.1022
 Frc consts  --      5.6539                 6.0764                 6.1236
 IR Inten    --     18.4388                 2.3981               141.0758

                    115                    116                    117
                      A                      A                      A
 Frequencies --   3098.2820              3113.0773              3118.7899
 Red. masses --      1.0866                 1.0983                 1.1016
 Frc consts  --      6.1456                 6.2710                 6.3133
 IR Inten    --     14.3897                25.1492                26.1600

                    118                    119                    120
                      A                      A                      A
 Frequencies --   3122.7285              3149.6290              3482.0301
 Red. masses --      1.1025                 1.0979                 1.0496
 Frc consts  --      6.3344                 6.4173                 7.4977
 IR Inten    --     25.9025                15.2748                 1.5660

                    121                    122                    123
                      A                      A                      A
 Frequencies --   3512.1223              3559.6173              3805.6760
 Red. masses --      1.0730                 1.0916                 1.0679
 Frc consts  --      7.7979                 8.1495                 9.1123
 IR Inten    --      0.4358                 0.2971                39.4322

 - Thermochemistry -
 -------------------
 Temperature   298.150 Kelvin.  Pressure   1.00000 Atm.
 Atom     1 has atomic number  6 and mass  12.00000

 Molecular mass:   233.21033 amu.
 Principal axes and moments of inertia in atomic units:
                           1         2         3
     Eigenvalues --   680.02669********************
           X            1.00000  -0.00151  -0.00031
           Y            0.00150   0.99980  -0.01975
           Z            0.00034   0.01975   0.99980
 This molecule is an asymmetric top.
 Rotational symmetry number  1.
 Warning -- assumption of classical behavior for rotation
           may cause significant error
 Rotational temperatures (Kelvin)      0.12737     0.00438     0.00429
 Rotational constants (GHZ):           2.65393     0.09126     0.08939
 Zero-point vibrational energy    1022585.4 (Joules/Mol)
                                  244.40378 (Kcal/Mol)
 Warning -- explicit consideration of  31 degrees of freedom as
           vibrations may cause significant error
 Vibrational temperatures:     23.74    40.47    47.46    59.91    92.66
          (Kelvin)             96.21   113.16   125.93   151.85   168.08
                              194.81   220.33   225.26   241.83   249.14
                              312.38   323.04   349.46   367.74   420.26
                              444.22   484.70   491.94   553.42   581.98
                              628.00   691.82   704.29   765.56   823.19
                              889.21  1058.51  1086.41  1139.24  1155.73
                             1183.05  1207.49  1235.27  1268.14  1281.69
                             1300.62  1336.30  1353.14  1389.25  1432.77
                             1445.74  1461.97  1488.73  1524.18  1539.81
                             1540.76  1551.77  1573.59  1612.51  1623.65
                             1656.30  1664.85  1666.34  1691.58  1711.77
                             1738.11  1768.67  1796.75  1824.28  1843.00
                             1860.89  1880.78  1882.73  1899.36  1911.87
                             1916.43  1927.80  1953.05  1969.59  1994.34
                             1996.14  2004.34  2017.22  2023.62  2039.49
                             2053.79  2060.67  2134.76  2135.29  2136.70
                             2137.21  2148.62  2152.85  2159.80  2166.52
                             2176.07  2181.98  2187.44  2196.64  2197.17
                             2386.74  4177.87  4195.93  4217.61  4313.21
                             4313.85  4316.99  4318.32  4332.09  4351.81
                             4353.03  4357.36  4368.83  4369.36  4376.21
                             4376.85  4381.30  4406.31  4418.16  4457.74
                             4479.02  4487.24  4492.91  4531.61  5009.86
                             5053.16  5121.50  5475.52

 Zero-point correction=                           0.389482 (Hartree/Particle)
 Thermal correction to Energy=                    0.410632
 Thermal correction to Enthalpy=                  0.411576
 Thermal correction to Gibbs Free Energy=         0.336516
 Sum of electronic and zero-point Energies=           -749.693899
 Sum of electronic and thermal Energies=              -749.672750
 Sum of electronic and thermal Enthalpies=            -749.671806
 Sum of electronic and thermal Free Energies=         -749.746866

                     E (Thermal)             CV                S
                      KCal/Mol        Cal/Mol-Kelvin    Cal/Mol-Kelvin
 Total                  257.675             74.966            157.977
 Electronic               0.000              0.000              0.000
 Translational            0.889              2.981             42.242
 Rotational               0.889              2.981             33.962
 Vibrational            255.898             69.004             81.773
 Vibration     1          0.593              1.986              7.016
 Vibration     2          0.593              1.984              5.957
 Vibration     3          0.594              1.983              5.641
 Vibration     4          0.594              1.981              5.179
 Vibration     5          0.597              1.971              4.318
 Vibration     6          0.598              1.970              4.243
 Vibration     7          0.600              1.964              3.924
 Vibration     8          0.601              1.958              3.715
 Vibration     9          0.605              1.945              3.349
 Vibration    10          0.608              1.935              3.152
 Vibration    11          0.613              1.918              2.868
 Vibration    12          0.619              1.899              2.633
 Vibration    13          0.620              1.895              2.591
 Vibration    14          0.625              1.882              2.457
 Vibration    15          0.627              1.875              2.401
 Vibration    16          0.646              1.815              1.983
 Vibration    17          0.649              1.804              1.922
 Vibration    18          0.659              1.775              1.782
 Vibration    19          0.666              1.753              1.692
 Vibration    20          0.687              1.688              1.462
 Vibration    21          0.698              1.657              1.369
 Vibration    22          0.718              1.602              1.227
 Vibration    23          0.721              1.592              1.203
 Vibration    24          0.754              1.503              1.021
 Vibration    25          0.770              1.460              0.946
 Vibration    26          0.797              1.391              0.838
 Vibration    27          0.837              1.293              0.708
 Vibration    28          0.845              1.273              0.685
 Vibration    29          0.887              1.179              0.583
 Vibration    30          0.928              1.092              0.500
 Vibration    31          0.978              0.994              0.420

 Optimization completed.
    -- Stationary point found.
 Normal termination of Gaussian 16 at Tue May 23 11:16:59 2023.
