 Gaussian 16, Revision A.03,
 Gaussian 16:  ES64L-G16RevA.03 25-Dec-2016

 -----------------------------
 # opt freq b3lyp/6-31g(2df,p)
 -----------------------------

 -------------------
 Title Card Required
 -------------------
 Symbolic Z-matrix:
 Charge =  0 Multiplicity = 1

 SCF Done:  E(RB3LYP) =  -977.633853329     A.U. after   13 cycles
 SCF Done:  E(RB3LYP) =  -977.645636358     A.U. after   12 cycles
 SCF Done:  E(RB3LYP) =  -977.650818819     A.U. after   13 cycles
 SCF Done:  E(RB3LYP) =  -977.653890261     A.U. after   14 cycles
 SCF Done:  E(RB3LYP) =  -977.655194344     A.U. after   12 cycles
 SCF Done:  E(RB3LYP) =  -977.655649499     A.U. after   11 cycles
 SCF Done:  E(RB3LYP) =  -977.655804618     A.U. after   12 cycles
 SCF Done:  E(RB3LYP) =  -977.655853275     A.U. after   11 cycles
 SCF Done:  E(RB3LYP) =  -977.655871916     A.U. after   10 cycles
 SCF Done:  E(RB3LYP) =  -977.655882592     A.U. after   10 cycles
 SCF Done:  E(RB3LYP) =  -977.655886905     A.U. after   10 cycles
 SCF Done:  E(RB3LYP) =  -977.655889511     A.U. after    9 cycles
 SCF Done:  E(RB3LYP) =  -977.655890074     A.U. after    8 cycles
 SCF Done:  E(RB3LYP) =  -977.655890305     A.U. after    7 cycles
 SCF Done:  E(RB3LYP) =  -977.655890384     A.U. after    6 cycles
 Optimization completed.
    -- Stationary point found.
 Normal termination of Gaussian 16 at Sun May 28 14:12:24 2023.

 ----------------------------------------------------------------------
 #N Geom=AllCheck Guess=TCheck SCRF=Check GenChk RB3LYP/6-31G(2df,p) Fr
 eq
 ----------------------------------------------------------------------

 Structure from the checkpoint file:  "CCOONqCCrCCCqCrONCc1ccqCrccn1.chk"
 -------------------
 Title Card Required
 -------------------
 Charge =  0 Multiplicity = 1

                         Standard orientation:
 ---------------------------------------------------------------------
 Center     Atomic      Atomic             Coordinates (Angstroms)
 Number     Number       Type             X           Y           Z
 ---------------------------------------------------------------------
      1          6           0       -7.546789   -1.942729   -0.555214
      2          6           0       -6.704095   -1.156628    0.440814
      3          8           0       -5.694749   -0.512655   -0.307567
      4          8           0       -4.914100    0.267275    0.707850
      5          7           0       -3.789920    0.722627    0.053579
      6          6           0       -3.810268    2.187328    0.062207
      7          6           0       -4.927774    2.742148   -0.813796
      8          6           0       -2.601362    0.090297    0.637055
      9          6           0       -1.417725    0.104529   -0.333392
     10          6           0       -0.153687   -0.534742    0.247780
     11          6           0       -0.272477   -2.035894    0.500723
     12          8           0        0.868785   -0.255143   -0.717663
     13          7           0        2.161317   -0.517636   -0.152379
     14          6           0        2.923131    0.740993   -0.217957
     15          6           0        4.369307    0.465907    0.122237
     16          6           0        5.270414    0.076698   -0.872635
     17          6           0        6.595720   -0.207377   -0.547304
     18          6           0        7.598348   -0.628195   -1.590081
     19          6           0        6.954566   -0.076561    0.796244
     20          6           0        5.994652    0.322475    1.718501
     21          7           0        4.724276    0.590184    1.406228
     22          1           0       -8.348442   -2.468706   -0.028468
     23          1           0       -6.935842   -2.680248   -1.082899
     24          1           0       -7.996578   -1.274721   -1.294756
     25          1           0       -6.255609   -1.823630    1.191642
     26          1           0       -7.318344   -0.414680    0.972117
     27          1           0       -2.837402    2.515556   -0.316351
     28          1           0       -3.900621    2.566759    1.094052
     29          1           0       -4.801216    2.419317   -1.850753
     30          1           0       -4.926171    3.836090   -0.782444
     31          1           0       -5.899960    2.387556   -0.464604
     32          1           0       -2.895068   -0.937016    0.859885
     33          1           0       -2.319642    0.566853    1.592830
     34          1           0       -1.162998    1.132459   -0.612279
     35          1           0       -1.703230   -0.413257   -1.255712
     36          1           0        0.114182   -0.030932    1.188225
     37          1           0       -0.579423   -2.556792   -0.412750
     38          1           0       -1.004890   -2.250348    1.285121
     39          1           0        0.692930   -2.430641    0.826166
     40          1           0        2.581890   -1.170750   -0.812700
     41          1           0        2.506032    1.425798    0.523572
     42          1           0        2.840413    1.203645   -1.212319
     43          1           0        4.935688    0.005294   -1.903784
     44          1           0        7.146372   -0.677636   -2.583777
     45          1           0        8.016692   -1.613731   -1.358129
     46          1           0        8.438408    0.073532   -1.634289
     47          1           0        7.970630   -0.277247    1.121322
     48          1           0        6.261210    0.435942    2.767036
 ---------------------------------------------------------------------

 SCF Done:  E(RB3LYP) =  -977.655890384     A.U. after    1 cycles

 The electronic state is 1-A.
 Alpha  occ. eigenvalues --  -19.20305 -19.16665 -19.15302 -14.36660 -14.36038
 Alpha  occ. eigenvalues --  -14.32009 -10.22362 -10.22321 -10.22102 -10.21678
 Alpha  occ. eigenvalues --  -10.21400 -10.20497 -10.20470 -10.20425 -10.19559
 Alpha  occ. eigenvalues --  -10.19326 -10.19204 -10.17721 -10.17536 -10.16575
 Alpha  occ. eigenvalues --  -10.16455  -1.11182  -1.05223  -0.97255  -0.94074
 Alpha  occ. eigenvalues --   -0.85342  -0.82708  -0.82154  -0.77900  -0.75795
 Alpha  occ. eigenvalues --   -0.73732  -0.72532  -0.71551  -0.68691  -0.67031
 Alpha  occ. eigenvalues --   -0.63085  -0.62063  -0.60136  -0.58562  -0.58128
 Alpha  occ. eigenvalues --   -0.56201  -0.51210  -0.51119  -0.50125  -0.49467
 Alpha  occ. eigenvalues --   -0.48141  -0.47713  -0.46392  -0.45960  -0.45840
 Alpha  occ. eigenvalues --   -0.44966  -0.44117  -0.43381  -0.43278  -0.41769
 Alpha  occ. eigenvalues --   -0.40812  -0.40498  -0.39550  -0.39172  -0.38857
 Alpha  occ. eigenvalues --   -0.38322  -0.37616  -0.37497  -0.37387  -0.36972
 Alpha  occ. eigenvalues --   -0.36341  -0.35620  -0.35476  -0.34622  -0.34424
 Alpha  occ. eigenvalues --   -0.33614  -0.32678  -0.32597  -0.30935  -0.27568
 Alpha  occ. eigenvalues --   -0.26251  -0.25588  -0.24914  -0.23490  -0.22900
 Alpha  occ. eigenvalues --   -0.22349
 Alpha virt. eigenvalues --   -0.02428  -0.01212   0.01832   0.08836   0.09339
 Alpha virt. eigenvalues --    0.10295   0.10573   0.11165   0.11838   0.12121
 Alpha virt. eigenvalues --    0.12285   0.12467   0.12969   0.13285   0.13951

 Mulliken charges:
               1
     1  C   -0.392249
     2  C   -0.001876
     3  O   -0.177966
     4  O   -0.221381
     5  N    0.045091
     6  C   -0.106674
     7  C   -0.377030
     8  C   -0.129860
     9  C   -0.222393
    10  C    0.167666
    11  C   -0.403369
    12  O   -0.286084
    13  N   -0.217987
    14  C   -0.189371
    15  C    0.298031
    16  C   -0.247675
    17  C    0.319235
    18  C   -0.495161
    19  C   -0.195500
    20  C   -0.001086
    21  N   -0.316855
    22  H    0.120399
    23  H    0.130259
    24  H    0.130591
    25  H    0.091333
    26  H    0.093643
    27  H    0.110682
    28  H    0.090734
    29  H    0.124471
    30  H    0.107434
    31  H    0.135344
    32  H    0.121520
    33  H    0.087028
    34  H    0.104947
    35  H    0.114707
    36  H    0.074817
    37  H    0.113374
    38  H    0.115514
    39  H    0.129997
    40  H    0.231354
    41  H    0.122871
    42  H    0.095908
    43  H    0.093435
    44  H    0.128576
    45  H    0.140044
    46  H    0.140214
    47  H    0.095290
    48  H    0.108009
 Sum of Mulliken charges =  -0.00000

 Dipole moment (field-independent basis, Debye):
    X=              2.7494    Y=             -0.6622    Z=             -0.9319  Tot=              2.9776
 Quadrupole moment (field-independent basis, Debye-Ang):
   XX=            -97.3012   YY=           -123.6626   ZZ=           -127.4853
   XY=             -1.6503   XZ=            -10.3946   YZ=              0.0333

  Exact polarizability: 285.011   1.745 165.761   3.163   5.502 176.758
 Approx polarizability: 335.416  -3.880 237.959   5.890  14.971 294.190

 ******    1 imaginary frequencies (negative Signs) ******

                      1                      2                      3
                      A                      A                      A
 Frequencies --    -14.9317                10.6943                13.4211
 Red. masses --      1.0337                 4.0369                 4.1051
 Frc consts  --      0.0001                 0.0003                 0.0004
 IR Inten    --      0.2671                 0.3098                 0.3827

                      4                      5                      6
                      A                      A                      A
 Frequencies --     17.5427                21.8974                30.6060
 Red. masses --      3.7829                 3.7354                 3.5395
 Frc consts  --      0.0007                 0.0011                 0.0020
 IR Inten    --      1.1911                 0.5425                 0.4705

                      7                      8                      9
                      A                      A                      A
 Frequencies --     43.1557                60.4081                62.8836
 Red. masses --      2.1141                 3.1010                 3.3777
 Frc consts  --      0.0023                 0.0067                 0.0079
 IR Inten    --      0.9077                 0.1093                 0.0813

                     10                     11                     12
                      A                      A                      A
 Frequencies --     68.3120                90.5847               104.3362
 Red. masses --      3.2706                 2.5195                 3.9232
 Frc consts  --      0.0090                 0.0122                 0.0252
 IR Inten    --      1.7265                 0.6697                 1.1239

                     13                     14                     15
                      A                      A                      A
 Frequencies --    114.5476               133.5550               160.9791
 Red. masses --      2.3977                 3.2851                 3.0035
 Frc consts  --      0.0185                 0.0345                 0.0459
 IR Inten    --      0.5508                 0.4904                 1.5759

                     16                     17                     18
                      A                      A                      A
 Frequencies --    200.0355               208.7417               216.4732
 Red. masses --      3.7171                 1.6331                 3.7689
 Frc consts  --      0.0876                 0.0419                 0.1041
 IR Inten    --      0.1845                 1.7117                 0.1347

                     19                     20                     21
                      A                      A                      A
 Frequencies --    233.4229               236.4653               240.4467
 Red. masses --      2.5763                 1.1619                 1.2553
 Frc consts  --      0.0827                 0.0383                 0.0428
 IR Inten    --      0.8779                 0.2506                 0.0661

                     22                     23                     24
                      A                      A                      A
 Frequencies --    257.1933               269.0126               288.7545
 Red. masses --      2.4504                 2.2463                 2.8690
 Frc consts  --      0.0955                 0.0958                 0.1409
 IR Inten    --      0.5721                 0.7996                 4.5893

                     25                     26                     27
                      A                      A                      A
 Frequencies --    301.6400               331.9865               361.8576
 Red. masses --      3.3588                 3.6532                 3.7460
 Frc consts  --      0.1801                 0.2372                 0.2890
 IR Inten    --      1.5645                 4.4780                 2.7163

                     28                     29                     30
                      A                      A                      A
 Frequencies --    396.4433               406.1450               458.7023
 Red. masses --      3.2639                 2.5344                 3.0031
 Frc consts  --      0.3022                 0.2463                 0.3723
 IR Inten    --      1.6434                 1.7781                 5.9716

                     31                     32                     33
                      A                      A                      A
 Frequencies --    469.2903               478.9954               489.9692
 Red. masses --      3.4097                 3.8988                 3.3046
 Frc consts  --      0.4424                 0.5270                 0.4674
 IR Inten    --      1.5253                 4.1519                13.6126

                     34                     35                     36
                      A                      A                      A
 Frequencies --    520.9961               543.4648               566.2257
 Red. masses --      5.4594                 3.8625                 3.5023
 Frc consts  --      0.8731                 0.6721                 0.6616
 IR Inten    --      3.1106                18.1681                 3.8774

                     37                     38                     39
                      A                      A                      A
 Frequencies --    590.0838               659.5562               764.0806
 Red. masses --      3.4302                 4.5907                 5.5187
 Frc consts  --      0.7037                 1.1766                 1.8983
 IR Inten    --      1.5921                16.6032                14.0068

                     40                     41                     42
                      A                      A                      A
 Frequencies --    767.1748               776.0930               797.1535
 Red. masses --      4.4266                 1.2753                 3.7962
 Frc consts  --      1.5350                 0.4526                 1.4213
 IR Inten    --      4.0296                 4.5436                 5.4579

                     43                     44                     45
                      A                      A                      A
 Frequencies --    807.2586               825.3903               851.2665
 Red. masses --      1.1846                 1.0739                 1.3720
 Frc consts  --      0.4548                 0.4311                 0.5858
 IR Inten    --      0.9349                 0.4354                34.1424

                     46                     47                     48
                      A                      A                      A
 Frequencies --    862.6582               868.1585               882.3154
 Red. masses --      2.4795                 2.6722                 1.8056
 Frc consts  --      1.0872                 1.1867                 0.8282
 IR Inten    --      3.2976                47.5697                33.0441

                     49                     50                     51
                      A                      A                      A
 Frequencies --    913.4666               917.2908               924.1321
 Red. masses --      1.7840                 1.3860                 2.2403
 Frc consts  --      0.8770                 0.6871                 1.1273
 IR Inten    --      2.6586                 0.0662                20.0047

                     52                     53                     54
                      A                      A                      A
 Frequencies --    948.0396               958.8726               979.3102
 Red. masses --      2.4602                 2.2668                 2.0212
 Frc consts  --      1.3028                 1.2280                 1.1421
 IR Inten    --      1.8017                 3.4051                 8.6823

                     55                     56                     57
                      A                      A                      A
 Frequencies --    982.9756               992.6678              1008.4522
 Red. masses --      1.8173                 1.4252                 3.9828
 Frc consts  --      1.0346                 0.8274                 2.3864
 IR Inten    --     21.6828                 1.7885                 3.4691

                     58                     59                     60
                      A                      A                      A
 Frequencies --   1019.6817              1032.5097              1043.6481
 Red. masses --      2.0101                 2.9891                 2.7405
 Frc consts  --      1.2314                 1.8775                 1.7587
 IR Inten    --      1.1657                26.2498                11.5368

                     61                     62                     63
                      A                      A                      A
 Frequencies --   1058.1604              1062.9905              1069.2555
 Red. masses --      3.5865                 1.5831                 3.6217
 Frc consts  --      2.3660                 1.0539                 2.4396
 IR Inten    --      7.8328                 4.0402                 4.0626

                     64                     65                     66
                      A                      A                      A
 Frequencies --   1091.1189              1101.6768              1113.2937
 Red. masses --      2.5599                 1.8570                 1.8293
 Frc consts  --      1.7956                 1.3279                 1.3358
 IR Inten    --     43.5807                 1.4472                15.7584

                     67                     68                     69
                      A                      A                      A
 Frequencies --   1132.4376              1141.9172              1148.6415
 Red. masses --      1.9855                 1.5349                 2.1966
 Frc consts  --      1.5002                 1.1793                 1.7076
 IR Inten    --     18.1269                12.6339                 9.4831

                     70                     71                     72
                      A                      A                      A
 Frequencies --   1174.9848              1189.6851              1193.2875
 Red. masses --      2.9722                 1.5912                 1.6646
 Frc consts  --      2.4176                 1.3269                 1.3966
 IR Inten    --     64.4072                 3.1141                 4.4190

                     73                     74                     75
                      A                      A                      A
 Frequencies --   1193.4046              1213.5747              1250.8171
 Red. masses --      1.9787                 2.3721                 1.4296
 Frc consts  --      1.6603                 2.0584                 1.3178
 IR Inten    --      8.8645                 2.3402                36.2760

                     76                     77                     78
                      A                      A                      A
 Frequencies --   1263.9229              1269.6638              1285.5629
 Red. masses --      1.5615                 1.1177                 2.6354
 Frc consts  --      1.4697                 1.0615                 2.5661
 IR Inten    --      1.6544                 0.1378                 0.3057

                     79                     80                     81
                      A                      A                      A
 Frequencies --   1299.4392              1304.0822              1316.5798
 Red. masses --      1.3826                 3.9256                 1.1107
 Frc consts  --      1.3755                 3.9334                 1.1343
 IR Inten    --      1.5048                 1.1120                 6.4387

                     82                     83                     84
                      A                      A                      A
 Frequencies --   1324.1933              1329.2436              1360.8224
 Red. masses --      1.2498                 1.3305                 1.5064
 Frc consts  --      1.2912                 1.3851                 1.6436
 IR Inten    --      6.7499                 0.4137                 4.7143

                     85                     86                     87
                      A                      A                      A
 Frequencies --   1367.5417              1381.9843              1387.4419
 Red. masses --      1.3843                 1.2614                 1.2808
 Frc consts  --      1.5253                 1.4194                 1.4527
 IR Inten    --     15.5561                 4.0830                15.7187

                     88                     89                     90
                      A                      A                      A
 Frequencies --   1391.3282              1403.2411              1407.5258
 Red. masses --      1.3104                 1.3490                 1.3350
 Frc consts  --      1.4946                 1.5651                 1.5582
 IR Inten    --     13.2089                16.7216                 6.1855

                     91                     92                     93
                      A                      A                      A
 Frequencies --   1409.2580              1412.0160              1416.6077
 Red. masses --      1.3824                 1.2529                 1.4009
 Frc consts  --      1.6176                 1.4718                 1.6564
 IR Inten    --     43.1221                 0.7424                14.4625

                     94                     95                     96
                      A                      A                      A
 Frequencies --   1432.3505              1475.2316              1481.7710
 Red. masses --      2.6772                 1.1301                 1.0602
 Frc consts  --      3.2362                 1.4491                 1.3715
 IR Inten    --      6.1273                 9.3452                 0.6517

                     97                     98                     99
                      A                      A                      A
 Frequencies --   1482.4201              1483.2986              1483.6473
 Red. masses --      1.0408                 1.0549                 1.0439
 Frc consts  --      1.3477                 1.3675                 1.3538
 IR Inten    --      3.7910                 2.2827                 5.0142

                    100                    101                    102
                      A                      A                      A
 Frequencies --   1488.8574              1490.4412              1492.1734
 Red. masses --      1.0645                 1.0616                 1.1614
 Frc consts  --      1.3903                 1.3894                 1.5237
 IR Inten    --      1.5340                 3.1831                17.6401

                    103                    104                    105
                      A                      A                      A
 Frequencies --   1501.5199              1502.1429              1505.4232
 Red. masses --      1.0671                 1.0542                 1.0908
 Frc consts  --      1.4175                 1.4015                 1.4565
 IR Inten    --      4.1504                 0.8158                 5.9682

                    106                    107                    108
                      A                      A                      A
 Frequencies --   1507.9742              1509.8167              1515.8572
 Red. masses --      1.0712                 1.0644                 2.3919
 Frc consts  --      1.4352                 1.4296                 3.2382
 IR Inten    --      1.1612                 7.5015                12.1816

                    109                    110                    111
                      A                      A                      A
 Frequencies --   1535.4889              1603.9395              1640.8162
 Red. masses --      1.0893                 6.5615                 5.6587
 Frc consts  --      1.5132                 9.9455                 8.9760
 IR Inten    --     14.8459                28.4374                82.2737

                    112                    113                    114
                      A                      A                      A
 Frequencies --   2946.9635              2964.4064              2986.5991
 Red. masses --      1.0722                 1.0716                 1.0539
 Frc consts  --      5.4863                 5.5481                 5.5388
 IR Inten    --     43.0437                67.6367                58.5850

                    115                    116                    117
                      A                      A                      A
 Frequencies --   2995.1727              2996.5491              3018.4950
 Red. masses --      1.0812                 1.0701                 1.1072
 Frc consts  --      5.7148                 5.6614                 5.9435
 IR Inten    --     31.6570                32.4052                42.8441

                    118                    119                    120
                      A                      A                      A
 Frequencies --   3035.0548              3036.5557              3043.6540
 Red. masses --      1.0370                 1.0369                 1.0582
 Frc consts  --      5.6279                 5.6333                 5.7755
 IR Inten    --     19.5183                17.2400                16.8296

                    121                    122                    123
                      A                      A                      A
 Frequencies --   3045.9834              3047.0383              3076.9237
 Red. masses --      1.0343                 1.0360                 1.0904
 Frc consts  --      5.6538                 5.6669                 6.0825
 IR Inten    --     21.5511                23.5528                17.2341

                    124                    125                    126
                      A                      A                      A
 Frequencies --   3085.1032              3090.9098              3104.0989
 Red. masses --      1.0973                 1.0995                 1.0940
 Frc consts  --      6.1533                 6.1891                 6.2105
 IR Inten    --     13.6886                11.5670                 6.1921

                    127                    128                    129
                      A                      A                      A
 Frequencies --   3106.3861              3114.6371              3117.5415
 Red. masses --      1.1003                 1.0920                 1.1012
 Frc consts  --      6.2559                 6.2418                 6.3060
 IR Inten    --     35.9231                16.7366                29.8894

                    130                    131                    132
                      A                      A                      A
 Frequencies --   3119.8562              3120.3155              3124.5513
 Red. masses --      1.1008                 1.1014                 1.1029
 Frc consts  --      6.3130                 6.3183                 6.3438
 IR Inten    --     12.8930                24.5214                26.3084

                    133                    134                    135
                      A                      A                      A
 Frequencies --   3125.8761              3134.8967              3148.8169
 Red. masses --      1.1001                 1.1012                 1.0877
 Frc consts  --      6.3334                 6.3765                 6.3540
 IR Inten    --     20.7985                22.5938                21.9944

                    136                    137                    138
                      A                      A                      A
 Frequencies --   3164.4949              3180.8514              3451.7262
 Red. masses --      1.0900                 1.0935                 1.0753
 Frc consts  --      6.4310                 6.5189                 7.5483
 IR Inten    --     10.6026                19.5582                 1.2745

 - Thermochemistry -
 -------------------
 Temperature   298.150 Kelvin.  Pressure   1.00000 Atm.
 Atom     1 has atomic number  6 and mass  12.00000

 Molecular mass:   297.20524 amu.
 Principal axes and moments of inertia in atomic units:
                           1         2         3
     Eigenvalues --  2107.26088********************
           X            1.00000  -0.00120  -0.00268
           Y            0.00115   0.99982  -0.01877
           Z            0.00271   0.01877   0.99982
 This molecule is an asymmetric top.
 Rotational symmetry number  1.
 Warning -- assumption of classical behavior for rotation
           may cause significant error
 Rotational temperatures (Kelvin)      0.04110     0.00340     0.00332
 Rotational constants (GHZ):           0.85644     0.07094     0.06915
    1 imaginary frequencies ignored.
 Zero-point vibrational energy    1085992.4 (Joules/Mol)
                                  259.55841 (Kcal/Mol)
 Warning -- explicit consideration of  36 degrees of freedom as
           vibrations may cause significant error
 Vibrational temperatures:     15.39    19.31    25.24    31.51    44.04
          (Kelvin)             62.09    86.91    90.48    98.29   130.33
                              150.12   164.81   192.16   231.61   287.81
                              300.33   311.46   335.84   340.22   345.95
                              370.04   387.05   415.45   433.99   477.65
                              520.63   570.39   584.35   659.97   675.20
                              689.17   704.96   749.60   781.92   814.67
                              849.00   948.95  1099.34  1103.79  1116.62
                             1146.93  1161.47  1187.55  1224.78  1241.17
                             1249.09  1269.46  1314.27  1319.78  1329.62
                             1364.02  1379.60  1409.01  1414.28  1428.23
                             1450.94  1467.09  1485.55  1501.58  1522.46
                             1529.41  1538.42  1569.88  1585.07  1601.78
                             1629.33  1642.96  1652.64  1690.54  1711.69
                             1716.87  1717.04  1746.06  1799.65  1818.50
                             1826.76  1849.64  1869.60  1876.28  1894.26
                             1905.22  1912.49  1957.92  1967.59  1988.37
                             1996.22  2001.81  2018.95  2025.12  2027.61
                             2031.58  2038.18  2060.83  2122.53  2131.94
                             2132.87  2134.14  2134.64  2142.13  2144.41
                             2146.90  2160.35  2161.25  2165.97  2169.64
                             2172.29  2180.98  2209.23  2307.71  2360.77
                             4240.02  4265.12  4297.05  4309.39  4311.37
                             4342.94  4366.77  4368.93  4379.14  4382.49
                             4384.01  4427.01  4438.78  4447.13  4466.11
                             4469.40  4481.27  4485.45  4488.78  4489.44
                             4495.53  4497.44  4510.42  4530.45  4553.00
                             4576.54  4966.26

 Zero-point correction=                           0.413633 (Hartree/Particle)
 Thermal correction to Energy=                    0.437679
 Thermal correction to Enthalpy=                  0.438623
 Thermal correction to Gibbs Free Energy=         0.353627
 Sum of electronic and zero-point Energies=           -977.242258
 Sum of electronic and thermal Energies=              -977.218211
 Sum of electronic and thermal Enthalpies=            -977.217267
 Sum of electronic and thermal Free Energies=         -977.302263

                     E (Thermal)             CV                S
                      KCal/Mol        Cal/Mol-Kelvin    Cal/Mol-Kelvin
 Total                  274.648             86.283            178.889
 Electronic               0.000              0.000              0.000
 Translational            0.889              2.981             42.965
 Rotational               0.889              2.981             35.591
 Vibrational            272.870             80.321            100.334
 Vibration     1          0.593              1.987              7.878
 Vibration     2          0.593              1.987              7.426
 Vibration     3          0.593              1.986              6.895
 Vibration     4          0.593              1.985              6.454
 Vibration     5          0.594              1.984              5.790
 Vibration     6          0.595              1.980              5.109
 Vibration     7          0.597              1.973              4.444
 Vibration     8          0.597              1.972              4.365
 Vibration     9          0.598              1.969              4.201
 Vibration    10          0.602              1.956              3.647
 Vibration    11          0.605              1.946              3.372
 Vibration    12          0.607              1.937              3.190
 Vibration    13          0.613              1.920              2.894
 Vibration    14          0.622              1.890              2.538
 Vibration    15          0.638              1.840              2.133
 Vibration    16          0.642              1.827              2.055
 Vibration    17          0.645              1.816              1.988
 Vibration    18          0.654              1.790              1.852
 Vibration    19          0.655              1.785              1.829
 Vibration    20          0.658              1.778              1.800
 Vibration    21          0.667              1.751              1.681
 Vibration    22          0.673              1.730              1.603
 Vibration    23          0.685              1.695              1.481
 Vibration    24          0.694              1.671              1.408
 Vibration    25          0.714              1.612              1.250
 Vibration    26          0.736              1.551              1.114
 Vibration    27          0.763              1.478              0.976
 Vibration    28          0.771              1.457              0.940
 Vibration    29          0.817              1.342              0.770
 Vibration    30          0.826              1.318              0.740
 Vibration    31          0.835              1.297              0.713
 Vibration    32          0.846              1.272              0.684
 Vibration    33          0.876              1.203              0.608
 Vibration    34          0.899              1.154              0.558
 Vibration    35          0.922              1.104              0.512
 Vibration    36          0.947              1.053              0.467

                           ! Non-Optimized Parameters !
 Normal termination of Gaussian 16 at Sun May 28 20:22:44 2023.
