 Gaussian 16, Revision A.03,
 Gaussian 16:  ES64L-G16RevA.03 25-Dec-2016

 -----------------------------
 # opt freq b3lyp/6-31g(2df,p)
 -----------------------------

 -------------------
 Title Card Required
 -------------------
 Symbolic Z-matrix:
 Charge =  0 Multiplicity = 1

 SCF Done:  E(RB3LYP) =  -353.834652771     A.U. after   12 cycles
 SCF Done:  E(RB3LYP) =  -353.838285937     A.U. after   10 cycles
 SCF Done:  E(RB3LYP) =  -353.839475810     A.U. after   10 cycles
 SCF Done:  E(RB3LYP) =  -353.840339886     A.U. after   10 cycles
 SCF Done:  E(RB3LYP) =  -353.840940572     A.U. after    9 cycles
 SCF Done:  E(RB3LYP) =  -353.841056889     A.U. after    8 cycles
 SCF Done:  E(RB3LYP) =  -353.841081439     A.U. after    8 cycles
 SCF Done:  E(RB3LYP) =  -353.841085920     A.U. after    8 cycles
 SCF Done:  E(RB3LYP) =  -353.841086904     A.U. after    6 cycles
 SCF Done:  E(RB3LYP) =  -353.841086953     A.U. after    5 cycles
 SCF Done:  E(RB3LYP) =  -353.841087195     A.U. after    6 cycles
 SCF Done:  E(RB3LYP) =  -353.841087365     A.U. after    6 cycles
 SCF Done:  E(RB3LYP) =  -353.841087695     A.U. after    7 cycles
 SCF Done:  E(RB3LYP) =  -353.841088059     A.U. after    8 cycles
 SCF Done:  E(RB3LYP) =  -353.841088416     A.U. after    7 cycles
 SCF Done:  E(RB3LYP) =  -353.841089175     A.U. after    7 cycles
 SCF Done:  E(RB3LYP) =  -353.841089545     A.U. after    8 cycles
 SCF Done:  E(RB3LYP) =  -353.841089635     A.U. after    6 cycles
 SCF Done:  E(RB3LYP) =  -353.841089646     A.U. after    6 cycles
 Optimization completed.
    -- Stationary point found.
 Normal termination of Gaussian 16 at Sun May 28 17:29:04 2023.

 ----------------------------------------------------------------------
 #N Geom=AllCheck Guess=TCheck SCRF=Check GenChk RB3LYP/6-31G(2df,p) Fr
 eq
 ----------------------------------------------------------------------

 Structure from the checkpoint file:  "CCqCrCC1CCCC1.chk"
 -------------------
 Title Card Required
 -------------------
 Charge =  0 Multiplicity = 1

                         Standard orientation:
 ---------------------------------------------------------------------
 Center     Atomic      Atomic             Coordinates (Angstroms)
 Number     Number       Type             X           Y           Z
 ---------------------------------------------------------------------
      1          6           0       -3.249439    0.466512    0.741878
      2          6           0       -2.000880   -0.230261    0.183285
      3          6           0       -2.307357   -0.869274   -1.178702
      4          6           0       -0.821188    0.759644    0.118572
      5          6           0        0.537591    0.171329   -0.273260
      6          6           0        1.676636    1.205946   -0.319605
      7          6           0        2.954852    0.351580   -0.378677
      8          6           0        2.628735   -0.925837    0.447487
      9          6           0        1.095948   -0.894060    0.694817
     10          1           0       -4.088824   -0.231347    0.830785
     11          1           0       -3.567639    1.285067    0.084652
     12          1           0       -3.059947    0.892290    1.733006
     13          1           0       -1.729429   -1.035191    0.880493
     14          1           0       -2.559063   -0.102217   -1.921534
     15          1           0       -3.160690   -1.552014   -1.107147
     16          1           0       -1.459780   -1.441946   -1.566667
     17          1           0       -0.715603    1.240423    1.101879
     18          1           0       -1.080343    1.564911   -0.584513
     19          1           0        0.461165   -0.277355   -1.273882
     20          1           0        1.659402    1.803541    0.602279
     21          1           0        1.587657    1.904207   -1.157932
     22          1           0        3.834678    0.882129   -0.003995
     23          1           0        3.169532    0.081740   -1.418649
     24          1           0        3.176386   -0.942615    1.394222
     25          1           0        2.926163   -1.827180   -0.096399
     26          1           0        0.885460   -0.582578    1.726101
     27          1           0        0.631485   -1.875335    0.562523
 ---------------------------------------------------------------------

 SCF Done:  E(RB3LYP) =  -353.841089646     A.U. after    1 cycles

 The electronic state is 1-A.
 Alpha  occ. eigenvalues --  -10.18037 -10.17462 -10.17134 -10.17091 -10.16966
 Alpha  occ. eigenvalues --  -10.16944 -10.16906 -10.16688 -10.16641  -0.83157
 Alpha  occ. eigenvalues --   -0.79300  -0.72081  -0.69889  -0.67612  -0.64512
 Alpha  occ. eigenvalues --   -0.56688  -0.55737  -0.53709  -0.47645  -0.46361
 Alpha  occ. eigenvalues --   -0.44563  -0.43006  -0.40731  -0.40066  -0.39578
 Alpha  occ. eigenvalues --   -0.37639  -0.36602  -0.34812  -0.33250  -0.32820
 Alpha  occ. eigenvalues --   -0.32785  -0.31993  -0.31025  -0.30375  -0.30297
 Alpha  occ. eigenvalues --   -0.29389
 Alpha virt. eigenvalues --    0.07709   0.09671   0.10156   0.12485   0.13511
 Alpha virt. eigenvalues --    0.13722   0.14693   0.15571   0.15880   0.16197
 Alpha virt. eigenvalues --    0.17476   0.18051   0.18251   0.19078   0.20329

 Mulliken charges:
               1
     1  C   -0.387222
     2  C    0.039743
     3  C   -0.380845
     4  C   -0.193110
     5  C    0.041947
     6  C   -0.209036
     7  C   -0.205963
     8  C   -0.207721
     9  C   -0.198705
    10  H    0.106206
    11  H    0.109493
    12  H    0.107332
    13  H    0.073767
    14  H    0.108897
    15  H    0.107379
    16  H    0.112718
    17  H    0.083107
    18  H    0.083459
    19  H    0.067197
    20  H    0.089403
    21  H    0.088131
    22  H    0.091897
    23  H    0.095524
    24  H    0.096467
    25  H    0.095797
    26  H    0.091219
    27  H    0.092919
 Sum of Mulliken charges =  -0.00000

 Dipole moment (field-independent basis, Debye):
    X=              0.0488    Y=             -0.0742    Z=             -0.0074  Tot=              0.0891
 Quadrupole moment (field-independent basis, Debye-Ang):
   XX=            -60.6986   YY=            -59.7866   ZZ=            -59.1944
   XY=              0.2541   XZ=              0.1379   YZ=              0.0889

  Exact polarizability: 112.205   0.086  89.119  -0.614   0.026  86.509
 Approx polarizability: 133.132   0.402 130.895   0.327   0.350 131.783

                      1                      2                      3
                      A                      A                      A
 Frequencies --     22.8608                53.5708                86.0810
 Red. masses --      1.7161                 2.2749                 2.5868
 Frc consts  --      0.0005                 0.0038                 0.0113
 IR Inten    --      0.0021                 0.0028                 0.0250

                      4                      5                      6
                      A                      A                      A
 Frequencies --    121.6902               192.1944               229.0492
 Red. masses --      2.8069                 1.8963                 1.0905
 Frc consts  --      0.0245                 0.0413                 0.0337
 IR Inten    --      0.0081                 0.0155                 0.0070

                      7                      8                      9
                      A                      A                      A
 Frequencies --    246.8003               298.1530               323.8007
 Red. masses --      1.1797                 2.5289                 2.2574
 Frc consts  --      0.0423                 0.1325                 0.1394
 IR Inten    --      0.0011                 0.0125                 0.1167

                     10                     11                     12
                      A                      A                      A
 Frequencies --    407.5201               419.0293               446.5705
 Red. masses --      2.1601                 2.3800                 1.7286
 Frc consts  --      0.2114                 0.2462                 0.2031
 IR Inten    --      0.0834                 0.1789                 0.2403

                     13                     14                     15
                      A                      A                      A
 Frequencies --    583.3419               627.7358               765.0798
 Red. masses --      2.3264                 2.8483                 1.2147
 Frc consts  --      0.4664                 0.6613                 0.4189
 IR Inten    --      0.5202                 0.2342                 0.5356

                     16                     17                     18
                      A                      A                      A
 Frequencies --    816.4106               826.8002               840.1799
 Red. masses --      2.5949                 1.6813                 1.9212
 Frc consts  --      1.0190                 0.6771                 0.7990
 IR Inten    --      0.6485                 0.3837                 1.8292

                     19                     20                     21
                      A                      A                      A
 Frequencies --    888.9373               899.0228               927.5979
 Red. masses --      2.3909                 2.1357                 1.1905
 Frc consts  --      1.1131                 1.0170                 0.6035
 IR Inten    --      0.4978                 0.3349                 1.0355

                     22                     23                     24
                      A                      A                      A
 Frequencies --    948.8287               958.0896               966.0683
 Red. masses --      2.0168                 1.9917                 1.4306
 Frc consts  --      1.0698                 1.0772                 0.7867
 IR Inten    --      1.5635                 0.7289                 0.0475

                     25                     26                     27
                      A                      A                      A
 Frequencies --    974.5023               992.6201              1039.9471
 Red. masses --      1.4579                 1.3511                 2.5258
 Frc consts  --      0.8157                 0.7844                 1.6094
 IR Inten    --      0.2757                 0.2540                 0.6343

                     28                     29                     30
                      A                      A                      A
 Frequencies --   1058.8095              1088.1096              1117.2072
 Red. masses --      1.7002                 2.2214                 1.7706
 Frc consts  --      1.1230                 1.5496                 1.3021
 IR Inten    --      0.2789                 0.5492                 0.4623

                     31                     32                     33
                      A                      A                      A
 Frequencies --   1160.8861              1191.4271              1203.3995
 Red. masses --      2.1555                 1.7448                 1.5541
 Frc consts  --      1.7115                 1.4592                 1.3260
 IR Inten    --      0.2354                 6.4300                 0.0965

                     34                     35                     36
                      A                      A                      A
 Frequencies --   1209.1758              1225.3672              1267.3129
 Red. masses --      1.4929                 1.5070                 1.2131
 Frc consts  --      1.2861                 1.3332                 1.1480
 IR Inten    --      0.6812                 0.1326                 1.1940

                     37                     38                     39
                      A                      A                      A
 Frequencies --   1271.0612              1296.7384              1307.2381
 Red. masses --      1.4009                 1.2455                 1.2931
 Frc consts  --      1.3334                 1.2339                 1.3019
 IR Inten    --      0.5835                 0.2667                 2.8061

                     40                     41                     42
                      A                      A                      A
 Frequencies --   1324.0546              1339.9148              1341.0924
 Red. masses --      1.2556                 1.2997                 1.2864
 Frc consts  --      1.2969                 1.3749                 1.3632
 IR Inten    --      0.2354                 0.0856                 0.1020

                     43                     44                     45
                      A                      A                      A
 Frequencies --   1351.9050              1367.9307              1381.2114
 Red. masses --      1.3734                 1.3948                 1.3950
 Frc consts  --      1.4789                 1.5378                 1.5680
 IR Inten    --      2.9082                 3.7452                 1.4773

                     46                     47                     48
                      A                      A                      A
 Frequencies --   1397.9335              1400.7447              1421.5627
 Red. masses --      1.5539                 1.2747                 1.2425
 Frc consts  --      1.7892                 1.4736                 1.4794
 IR Inten    --      2.2337                 3.5777                 3.7028

                     49                     50                     51
                      A                      A                      A
 Frequencies --   1477.4980              1485.5865              1488.7432
 Red. masses --      1.0820                 1.0775                 1.0474
 Frc consts  --      1.3917                 1.4010                 1.3678
 IR Inten    --      0.0636                 0.2634                 0.4466

                     52                     53                     54
                      A                      A                      A
 Frequencies --   1493.5105              1495.5012              1496.6307
 Red. masses --      1.0771                 1.0726                 1.0802
 Frc consts  --      1.4155                 1.4134                 1.4255
 IR Inten    --      0.1758                 0.7611                 4.3371

                     55                     56                     57
                      A                      A                      A
 Frequencies --   1504.9124              1510.7661              1518.4613
 Red. masses --      1.0547                 1.0507                 1.1027
 Frc consts  --      1.4073                 1.4129                 1.4980
 IR Inten    --      2.7650                 7.9273                 0.3282

                     58                     59                     60
                      A                      A                      A
 Frequencies --   2991.1628              2997.0697              3005.1111
 Red. masses --      1.0592                 1.0805                 1.0811
 Frc consts  --      5.5835                 5.7182                 5.7520
 IR Inten    --     16.4717                 3.0398                 4.9574

                     61                     62                     63
                      A                      A                      A
 Frequencies --   3014.9675              3020.5026              3023.1394
 Red. masses --      1.0678                 1.0365                 1.0735
 Frc consts  --      5.7187                 5.5715                 5.7805
 IR Inten    --     33.1458                26.8517                29.8406

                     64                     65                     66
                      A                      A                      A
 Frequencies --   3025.9700              3034.8391              3037.6339
 Red. masses --      1.0394                 1.0914                 1.0645
 Frc consts  --      5.6076                 5.9227                 5.7869
 IR Inten    --     20.4126                62.8895                24.3785

                     67                     68                     69
                      A                      A                      A
 Frequencies --   3053.5240              3070.8886              3078.0271
 Red. masses --      1.0641                 1.0947                 1.0975
 Frc consts  --      5.8455                 6.0823                 6.1266
 IR Inten    --     51.0403                37.6425                19.4712

                     70                     71                     72
                      A                      A                      A
 Frequencies --   3084.4254              3084.5767              3091.0412
 Red. masses --      1.0995                 1.0994                 1.0998
 Frc consts  --      6.1631                 6.1630                 6.1909
 IR Inten    --      6.1788                 6.4489                67.0646

                     73                     74                     75
                      A                      A                      A
 Frequencies --   3095.6804              3100.2231              3102.8670
 Red. masses --      1.1014                 1.1046                 1.1002
 Frc consts  --      6.2187                 6.2551                 6.2407
 IR Inten    --     33.4568                92.2412                40.2875

 - Thermochemistry -
 -------------------
 Temperature   298.150 Kelvin.  Pressure   1.00000 Atm.
 Atom     1 has atomic number  6 and mass  12.00000

 Molecular mass:   126.14085 amu.
 Principal axes and moments of inertia in atomic units:
                           1         2         3
     Eigenvalues --   523.419972353.642662448.37583
           X            1.00000  -0.00077   0.00019
           Y            0.00076   0.99916   0.04096
           Z           -0.00022  -0.04096   0.99916
 This molecule is an asymmetric top.
 Rotational symmetry number  1.
 Warning -- assumption of classical behavior for rotation
           may cause significant error
 Rotational temperatures (Kelvin)      0.16548     0.03680     0.03538
 Rotational constants (GHZ):           3.44798     0.76679     0.73712
 Zero-point vibrational energy     663980.2 (Joules/Mol)
                                  158.69508 (Kcal/Mol)
 Warning -- explicit consideration of  13 degrees of freedom as
           vibrations may cause significant error
 Vibrational temperatures:     32.89    77.08   123.85   175.09   276.52
          (Kelvin)            329.55   355.09   428.98   465.88   586.33
                              602.89   642.52   839.30   903.17  1100.78
                             1174.63  1189.58  1208.83  1278.98  1293.49
                             1334.61  1365.15  1378.48  1389.96  1402.09
                             1428.16  1496.25  1523.39  1565.55  1607.41
                             1670.26  1714.20  1731.42  1739.73  1763.03
                             1823.38  1828.77  1865.72  1880.82  1905.02
                             1927.84  1929.53  1945.09  1968.15  1987.26
                             2011.31  2015.36  2045.31  2125.79  2137.43
                             2141.97  2148.83  2151.69  2153.32  2165.23
                             2173.66  2184.73  4303.62  4312.11  4323.68
                             4337.87  4345.83  4349.62  4353.70  4366.46
                             4370.48  4393.34  4418.32  4428.59  4437.80
                             4438.02  4447.32  4453.99  4460.53  4464.33

 Zero-point correction=                           0.252897 (Hartree/Particle)
 Thermal correction to Energy=                    0.263508
 Thermal correction to Enthalpy=                  0.264452
 Thermal correction to Gibbs Free Energy=         0.215755
 Sum of electronic and zero-point Energies=           -353.588193
 Sum of electronic and thermal Energies=              -353.577582
 Sum of electronic and thermal Enthalpies=            -353.576638
 Sum of electronic and thermal Free Energies=         -353.625334

                     E (Thermal)             CV                S
                      KCal/Mol        Cal/Mol-Kelvin    Cal/Mol-Kelvin
 Total                  165.354             39.513            102.491
 Electronic               0.000              0.000              0.000
 Translational            0.889              2.981             40.410
 Rotational               0.889              2.981             29.491
 Vibrational            163.576             33.552             32.590
 Vibration     1          0.593              1.985              6.369
 Vibration     2          0.596              1.976              4.681
 Vibration     3          0.601              1.959              3.747
 Vibration     4          0.609              1.931              3.073
 Vibration     5          0.634              1.851              2.207
 Vibration     6          0.652              1.797              1.886
 Vibration     7          0.661              1.768              1.753
 Vibration     8          0.691              1.677              1.427
 Vibration     9          0.708              1.628              1.291
 Vibration    10          0.772              1.454              0.935
 Vibration    11          0.782              1.429              0.895
 Vibration    12          0.806              1.368              0.806
 Vibration    13          0.940              1.067              0.479

 Optimization completed.
    -- Stationary point found.
 Normal termination of Gaussian 16 at Sun May 28 18:10:57 2023.
