 Gaussian 16, Revision A.03,
 Gaussian 16:  ES64L-G16RevA.03 25-Dec-2016

 -----------------------------
 # opt freq b3lyp/6-31g(2df,p)
 -----------------------------

 -------------------
 Title Card Required
 -------------------
 Symbolic Z-matrix:
 Charge =  0 Multiplicity = 1

 SCF Done:  E(RB3LYP) =  -509.588632843     A.U. after   12 cycles
 SCF Done:  E(RB3LYP) =  -509.646087377     A.U. after   11 cycles
 SCF Done:  E(RB3LYP) =  -509.675115908     A.U. after   11 cycles
 SCF Done:  E(RB3LYP) =  -509.728605777     A.U. after   11 cycles
 SCF Done:  E(RB3LYP) =  -509.770435851     A.U. after   11 cycles
 SCF Done:  E(RB3LYP) =  -509.802608236     A.U. after   11 cycles
 SCF Done:  E(RB3LYP) =  -509.828138743     A.U. after   11 cycles
 SCF Done:  E(RB3LYP) =  -509.836603698     A.U. after   10 cycles
 SCF Done:  E(RB3LYP) =  -509.843256632     A.U. after   10 cycles
 SCF Done:  E(RB3LYP) =  -509.847721968     A.U. after   10 cycles
 SCF Done:  E(RB3LYP) =  -509.849678727     A.U. after   10 cycles
 SCF Done:  E(RB3LYP) =  -509.849662148     A.U. after    9 cycles
 SCF Done:  E(RB3LYP) =  -509.849681531     A.U. after    9 cycles
 SCF Done:  E(RB3LYP) =  -509.849670170     A.U. after    9 cycles
 SCF Done:  E(RB3LYP) =  -509.849682076     A.U. after    8 cycles
 SCF Done:  E(RB3LYP) =  -509.849675186     A.U. after    8 cycles
 SCF Done:  E(RB3LYP) =  -509.849682171     A.U. after    8 cycles
 SCF Done:  E(RB3LYP) =  -509.849682170     A.U. after    5 cycles
 SCF Done:  E(RB3LYP) =  -509.849682204     A.U. after    5 cycles
 Optimization completed.
    -- Stationary point found.
 Normal termination of Gaussian 16 at Tue May 23 06:59:38 2023.

 ----------------------------------------------------------------------
 #N Geom=AllCheck Guess=TCheck SCRF=Check GenChk RB3LYP/6-31G(2df,p) Fr
 eq
 ----------------------------------------------------------------------

 Structure from the checkpoint file:  "CCqCrCC1CCCC2CCC2C1.chk"
 -------------------
 Title Card Required
 -------------------
 Charge =  0 Multiplicity = 1

                         Standard orientation:
 ---------------------------------------------------------------------
 Center     Atomic      Atomic             Coordinates (Angstroms)
 Number     Number       Type             X           Y           Z
 ---------------------------------------------------------------------
      1          6           0        3.270451    0.825116    1.535462
      2          6           0        2.509329    0.602364    0.219892
      3          6           0        3.490885    0.310477   -0.923976
      4          6           0        1.460774   -0.512282    0.407486
      5          6           0        0.582614   -0.884245   -0.815153
      6          6           0       -0.276384   -2.148565   -0.508737
      7          6           0       -1.635050   -2.062995    0.249295
      8          6           0       -1.835316   -0.957550    1.304190
      9          6           0       -1.688467    0.459036    0.718109
     10          6           0       -2.839293    1.501045    0.631847
     11          6           0       -2.201328    1.993198   -0.699736
     12          6           0       -1.545413    0.590505   -0.816659
     13          6           0       -0.187804    0.308510   -1.454168
     14          1           0        3.989832    1.645782    1.444020
     15          1           0        3.828467   -0.074322    1.822890
     16          1           0        2.587495    1.067360    2.356805
     17          1           0        1.988209    1.540386   -0.014589
     18          1           0        4.010201   -0.641838   -0.759308
     19          1           0        4.252799    1.094127   -0.993246
     20          1           0        2.990494    0.252338   -1.894957
     21          1           0        0.837795   -0.251757    1.268580
     22          1           0        1.998817   -1.424583    0.704105
     23          1           0        1.290888   -1.222616   -1.582112
     24          1           0        0.381261   -2.833680    0.040807
     25          1           0       -0.484823   -2.654887   -1.459553
     26          1           0       -1.799348   -3.034074    0.731718
     27          1           0       -2.441643   -1.974925   -0.486347
     28          1           0       -1.133174   -1.102604    2.133705
     29          1           0       -2.836127   -1.082861    1.736613
     30          1           0       -0.838712    0.972256    1.180907
     31          1           0       -2.950447    2.215940    1.450989
     32          1           0       -3.805733    1.017279    0.452472
     33          1           0       -1.453506    2.772112   -0.514588
     34          1           0       -2.863308    2.324770   -1.503536
     35          1           0       -2.295844   -0.062907   -1.275090
     36          1           0        0.441205    1.204645   -1.403352
     37          1           0       -0.324780    0.106389   -2.524040
 ---------------------------------------------------------------------

 SCF Done:  E(RB3LYP) =  -509.849682204     A.U. after    1 cycles

 The electronic state is 1-A.
 Alpha  occ. eigenvalues --  -10.18093 -10.18002 -10.17360 -10.17340 -10.17328
 Alpha  occ. eigenvalues --  -10.17311 -10.17294 -10.17267 -10.17119 -10.16895
 Alpha  occ. eigenvalues --  -10.16833 -10.16730 -10.16717  -0.84888  -0.80982
 Alpha  occ. eigenvalues --   -0.77896  -0.75221  -0.69657  -0.68431  -0.67668
 Alpha  occ. eigenvalues --   -0.63659  -0.61187  -0.59011  -0.55565  -0.53446
 Alpha  occ. eigenvalues --   -0.52893  -0.47295  -0.46589  -0.44877  -0.43122
 Alpha  occ. eigenvalues --   -0.42652  -0.42577  -0.42236  -0.40463  -0.39370
 Alpha  occ. eigenvalues --   -0.37905  -0.37600  -0.36752  -0.36185  -0.35722
 Alpha  occ. eigenvalues --   -0.34914  -0.33660  -0.33205  -0.31979  -0.31778
 Alpha  occ. eigenvalues --   -0.30189  -0.29944  -0.29217  -0.28666  -0.27897
 Alpha  occ. eigenvalues --   -0.27359
 Alpha virt. eigenvalues --    0.07344   0.08165   0.09904   0.10423   0.11391
 Alpha virt. eigenvalues --    0.12244   0.12622   0.13838   0.14368   0.14536
 Alpha virt. eigenvalues --    0.15156   0.15641   0.15927   0.17007   0.17272

 Mulliken charges:
               1
     1  C   -0.389782
     2  C    0.031785
     3  C   -0.382613
     4  C   -0.170706
     5  C    0.001391
     6  C   -0.213837
     7  C   -0.193127
     8  C   -0.246992
     9  C    0.062045
    10  C   -0.258432
    11  C   -0.268626
    12  C    0.080213
    13  C   -0.272556
    14  H    0.106724
    15  H    0.109974
    16  H    0.107440
    17  H    0.073322
    18  H    0.108925
    19  H    0.106909
    20  H    0.116122
    21  H    0.094380
    22  H    0.082620
    23  H    0.071528
    24  H    0.092582
    25  H    0.089221
    26  H    0.085826
    27  H    0.099481
    28  H    0.093594
    29  H    0.091209
    30  H    0.070327
    31  H    0.089894
    32  H    0.094895
    33  H    0.095097
    34  H    0.089799
    35  H    0.070746
    36  H    0.094122
    37  H    0.086500
 Sum of Mulliken charges =  -0.00000

 Dipole moment (field-independent basis, Debye):
    X=              0.0330    Y=             -0.1634    Z=             -0.0816  Tot=              0.1856
 Quadrupole moment (field-independent basis, Debye-Ang):
   XX=            -85.1511   YY=            -84.8214   ZZ=            -84.9461
   XY=              0.7272   XZ=              0.3457   YZ=              0.3109

  Exact polarizability: 148.656  -0.601 133.030  -1.467  -0.492 124.534
 Approx polarizability: 192.779   0.052 191.552   0.966  -0.432 188.576

                      1                      2                      3
                      A                      A                      A
 Frequencies --     17.8987                51.1581                68.9770
 Red. masses --      2.9235                 2.5610                 2.7965
 Frc consts  --      0.0006                 0.0039                 0.0078
 IR Inten    --      0.0046                 0.0110                 0.0366

                      4                      5                      6
                      A                      A                      A
 Frequencies --    160.1509               166.6637               193.4042
 Red. masses --      2.5396                 2.3826                 2.0706
 Frc consts  --      0.0384                 0.0390                 0.0456
 IR Inten    --      0.0010                 0.0173                 0.0350

                      7                      8                      9
                      A                      A                      A
 Frequencies --    228.1594               232.1816               246.6242
 Red. masses --      1.0621                 1.9698                 1.2769
 Frc consts  --      0.0326                 0.0626                 0.0458
 IR Inten    --      0.0059                 0.0116                 0.0231

                     10                     11                     12
                      A                      A                      A
 Frequencies --    266.5744               289.9307               309.2249
 Red. masses --      2.7510                 2.1512                 2.4232
 Frc consts  --      0.1152                 0.1065                 0.1365
 IR Inten    --      0.0492                 0.0297                 0.2821

                     13                     14                     15
                      A                      A                      A
 Frequencies --    338.8617               368.7035               387.3968
 Red. masses --      2.2572                 2.5783                 2.1622
 Frc consts  --      0.1527                 0.2065                 0.1912
 IR Inten    --      0.0358                 0.0601                 0.1759

                     16                     17                     18
                      A                      A                      A
 Frequencies --    440.8288               449.1487               476.1585
 Red. masses --      2.6544                 1.9004                 2.4943
 Frc consts  --      0.3039                 0.2259                 0.3332
 IR Inten    --      0.1730                 0.8769                 0.3202

                     19                     20                     21
                      A                      A                      A
 Frequencies --    493.8876               596.9777               685.9884
 Red. masses --      2.5391                 2.0094                 2.1452
 Frc consts  --      0.3649                 0.4219                 0.5948
 IR Inten    --      0.4023                 1.3021                 0.8488

                     22                     23                     24
                      A                      A                      A
 Frequencies --    722.6658               779.2286               785.3344
 Red. masses --      2.9734                 2.5111                 1.8321
 Frc consts  --      0.9149                 0.8983                 0.6658
 IR Inten    --      0.0079                 0.0330                 2.3622

                     25                     26                     27
                      A                      A                      A
 Frequencies --    823.9986               831.6359               851.0712
 Red. masses --      1.7812                 1.9925                 1.8684
 Frc consts  --      0.7125                 0.8119                 0.7974
 IR Inten    --      1.9894                 0.5143                 0.1205

                     28                     29                     30
                      A                      A                      A
 Frequencies --    861.1368               890.3444               914.4103
 Red. masses --      1.6780                 1.7067                 2.2017
 Frc consts  --      0.7332                 0.7971                 1.0847
 IR Inten    --      1.2791                 1.2063                 0.1490

                     31                     32                     33
                      A                      A                      A
 Frequencies --    927.4126               928.7248               955.3654
 Red. masses --      1.8232                 1.3366                 1.5560
 Frc consts  --      0.9239                 0.6792                 0.8367
 IR Inten    --      0.8813                 1.1905                 0.6553

                     34                     35                     36
                      A                      A                      A
 Frequencies --    959.6873               967.4864               992.1280
 Red. masses --      1.7492                 1.6262                 1.7891
 Frc consts  --      0.9492                 0.8968                 1.0376
 IR Inten    --      0.1248                 0.2103                 3.8040

                     37                     38                     39
                      A                      A                      A
 Frequencies --   1016.9908              1032.3879              1047.5930
 Red. masses --      2.0052                 2.6927                 1.7841
 Frc consts  --      1.2219                 1.6909                 1.1536
 IR Inten    --      1.3471                 2.1073                 0.4690

                     40                     41                     42
                      A                      A                      A
 Frequencies --   1081.1395              1091.8516              1101.1157
 Red. masses --      2.1391                 1.7771                 1.9969
 Frc consts  --      1.4732                 1.2482                 1.4265
 IR Inten    --      0.1787                 0.2522                 0.6014

                     43                     44                     45
                      A                      A                      A
 Frequencies --   1123.7031              1131.5870              1160.9468
 Red. masses --      1.7809                 2.1060                 2.1105
 Frc consts  --      1.3249                 1.5889                 1.6759
 IR Inten    --      1.0211                 0.6011                 0.3566

                     46                     47                     48
                      A                      A                      A
 Frequencies --   1172.9752              1192.2457              1212.9291
 Red. masses --      1.9548                 1.7675                 1.5137
 Frc consts  --      1.5847                 1.4802                 1.3120
 IR Inten    --      0.0361                 5.7802                 0.1202

                     49                     50                     51
                      A                      A                      A
 Frequencies --   1223.8660              1231.0068              1233.0896
 Red. masses --      1.4640                 1.3535                 1.3827
 Frc consts  --      1.2920                 1.2084                 1.2387
 IR Inten    --      0.6946                 0.1131                 1.9693

                     52                     53                     54
                      A                      A                      A
 Frequencies --   1248.2203              1260.8493              1263.5068
 Red. masses --      1.1653                 1.4623                 1.4018
 Frc consts  --      1.0697                 1.3696                 1.3185
 IR Inten    --      0.0775                 0.1344                 0.2595

                     55                     56                     57
                      A                      A                      A
 Frequencies --   1288.7758              1291.4869              1309.4598
 Red. masses --      1.2555                 1.2728                 1.2653
 Frc consts  --      1.2286                 1.2508                 1.2783
 IR Inten    --      3.1155                 0.9289                 0.5123

                     58                     59                     60
                      A                      A                      A
 Frequencies --   1320.9227              1335.4729              1352.4312
 Red. masses --      1.2503                 1.3284                 1.3014
 Frc consts  --      1.2853                 1.3958                 1.4024
 IR Inten    --      0.8344                 1.7899                 0.4428

                     61                     62                     63
                      A                      A                      A
 Frequencies --   1363.1276              1370.4195              1374.4869
 Red. masses --      1.3598                 1.3270                 1.3246
 Frc consts  --      1.4887                 1.4683                 1.4744
 IR Inten    --      4.2796                 3.8879                 1.0458

                     64                     65                     66
                      A                      A                      A
 Frequencies --   1381.7903              1393.0114              1398.3512
 Red. masses --      1.4324                 1.3341                 1.2513
 Frc consts  --      1.6114                 1.5253                 1.4416
 IR Inten    --      1.9126                 8.7996                10.4962

                     67                     68                     69
                      A                      A                      A
 Frequencies --   1399.7011              1404.1615              1412.4157
 Red. masses --      1.3283                 1.3091                 1.4421
 Frc consts  --      1.5333                 1.5207                 1.6950
 IR Inten    --      5.3879                 3.3584                 0.7152

                     70                     71                     72
                      A                      A                      A
 Frequencies --   1421.6824              1481.7707              1484.1448
 Red. masses --      1.2415                 1.0740                 1.0773
 Frc consts  --      1.4784                 1.3893                 1.3981
 IR Inten    --      1.7774                 0.4712                 2.2855

                     73                     74                     75
                      A                      A                      A
 Frequencies --   1486.5483              1488.9825              1491.8538
 Red. masses --      1.0863                 1.0490                 1.0804
 Frc consts  --      1.4144                 1.3703                 1.4167
 IR Inten    --      2.8589                 0.8222                 5.8243

                     76                     77                     78
                      A                      A                      A
 Frequencies --   1493.3262              1496.8613              1504.7873
 Red. masses --      1.0830                 1.0722                 1.0545
 Frc consts  --      1.4229                 1.4155                 1.4068
 IR Inten    --      1.6932                 1.3562                 2.6357

                     79                     80                     81
                      A                      A                      A
 Frequencies --   1505.1402              1508.7721              1510.9330
 Red. masses --      1.1371                 1.0892                 1.0501
 Frc consts  --      1.5178                 1.4609                 1.4125
 IR Inten    --      1.2437                 4.8700                 8.7075

                     82                     83                     84
                      A                      A                      A
 Frequencies --   2996.8497              3002.6434              3010.2329
 Red. masses --      1.0739                 1.0739                 1.0744
 Frc consts  --      5.6827                 5.7044                 5.7362
 IR Inten    --      7.6266                 3.1525                 4.2331

                     85                     86                     87
                      A                      A                      A
 Frequencies --   3014.9045              3017.5996              3020.5475
 Red. masses --      1.0677                 1.0637                 1.0360
 Frc consts  --      5.7181                 5.7070                 5.5692
 IR Inten    --     33.6987                15.3001                24.1027

                     88                     89                     90
                      A                      A                      A
 Frequencies --   3023.2893              3026.0531              3027.9559
 Red. masses --      1.0707                 1.0550                 1.0573
 Frc consts  --      5.7658                 5.6920                 5.7114
 IR Inten    --     12.9554                29.9161                88.3435

                     91                     92                     93
                      A                      A                      A
 Frequencies --   3036.3622              3037.7136              3040.6337
 Red. masses --      1.0772                 1.0736                 1.0907
 Frc consts  --      5.8515                 5.8371                 5.9413
 IR Inten    --     17.7518                21.0064                47.0455

                     94                     95                     96
                      A                      A                      A
 Frequencies --   3044.5485              3044.9687              3054.1663
 Red. masses --      1.0693                 1.0641                 1.0982
 Frc consts  --      5.8396                 5.8128                 6.0356
 IR Inten    --     29.1260                23.9768                41.6617

                     97                     98                     99
                      A                      A                      A
 Frequencies --   3061.7783              3073.0647              3081.2785
 Red. masses --      1.0973                 1.0978                 1.0907
 Frc consts  --      6.0606                 6.1083                 6.1012
 IR Inten    --     39.0346                88.4439                16.6459

                    100                    101                    102
                      A                      A                      A
 Frequencies --   3084.7655              3091.6948              3094.5683
 Red. masses --      1.0999                 1.0989                 1.1046
 Frc consts  --      6.1665                 6.1885                 6.2322
 IR Inten    --      7.5611                68.3981                29.9870

                    103                    104                    105
                      A                      A                      A
 Frequencies --   3095.7104              3103.5092              3107.5212
 Red. masses --      1.1010                 1.0998                 1.1067
 Frc consts  --      6.2166                 6.2413                 6.2965
 IR Inten    --     47.1007                37.0073                80.3319

 - Thermochemistry -
 -------------------
 Temperature   298.150 Kelvin.  Pressure   1.00000 Atm.
 Atom     1 has atomic number  6 and mass  12.00000

 Molecular mass:   180.18780 amu.
 Principal axes and moments of inertia in atomic units:
                           1         2         3
     Eigenvalues --  1648.265393546.715483971.28674
           X            0.99997   0.00716   0.00120
           Y           -0.00716   0.99996   0.00469
           Z           -0.00116  -0.00470   0.99999
 This molecule is an asymmetric top.
 Rotational symmetry number  1.
 Warning -- assumption of classical behavior for rotation
           may cause significant error
 Rotational temperatures (Kelvin)      0.05255     0.02442     0.02181
 Rotational constants (GHZ):           1.09493     0.50885     0.45445
 Zero-point vibrational energy     908855.1 (Joules/Mol)
                                  217.22159 (Kcal/Mol)
 Warning -- explicit consideration of  20 degrees of freedom as
           vibrations may cause significant error
 Vibrational temperatures:     25.75    73.61    99.24   230.42   239.79
          (Kelvin)            278.27   328.27   334.06   354.84   383.54
                              417.15   444.91   487.55   530.48   557.38
                              634.25   646.22   685.09   710.59   858.92
                              986.98  1039.75  1121.14  1129.92  1185.55
                             1196.54  1224.50  1238.98  1281.01  1315.63
                             1334.34  1336.23  1374.56  1380.78  1392.00
                             1427.45  1463.22  1485.38  1507.25  1555.52
                             1570.93  1584.26  1616.76  1628.10  1670.34
                             1687.65  1715.38  1745.13  1760.87  1771.14
                             1774.14  1795.91  1814.08  1817.90  1854.26
                             1858.16  1884.02  1900.51  1921.45  1945.85
                             1961.24  1971.73  1977.58  1988.09  2004.23
                             2011.92  2013.86  2020.28  2032.15  2045.48
                             2131.94  2135.35  2138.81  2142.31  2146.44
                             2148.56  2153.65  2165.05  2165.56  2170.79
                             2173.90  4311.80  4320.13  4331.05  4337.78
                             4341.65  4345.89  4349.84  4353.82  4356.55
                             4368.65  4370.59  4374.79  4380.43  4381.03
                             4394.26  4405.22  4421.45  4433.27  4438.29
                             4448.26  4452.39  4454.04  4465.26  4471.03

 Zero-point correction=                           0.346165 (Hartree/Particle)
 Thermal correction to Energy=                    0.359974
 Thermal correction to Enthalpy=                  0.360918
 Thermal correction to Gibbs Free Energy=         0.305383
 Sum of electronic and zero-point Energies=           -509.503518
 Sum of electronic and thermal Energies=              -509.489709
 Sum of electronic and thermal Enthalpies=            -509.488764
 Sum of electronic and thermal Free Energies=         -509.544299

                     E (Thermal)             CV                S
                      KCal/Mol        Cal/Mol-Kelvin    Cal/Mol-Kelvin
 Total                  225.887             54.964            116.882
 Electronic               0.000              0.000              0.000
 Translational            0.889              2.981             41.473
 Rotational               0.889              2.981             31.518
 Vibrational            224.109             49.003             43.890
 Vibration     1          0.593              1.986              6.855
 Vibration     2          0.595              1.977              4.772
 Vibration     3          0.598              1.969              4.182
 Vibration     4          0.622              1.891              2.548
 Vibration     5          0.624              1.883              2.473
 Vibration     6          0.635              1.849              2.195
 Vibration     7          0.651              1.798              1.893
 Vibration     8          0.653              1.792              1.862
 Vibration     9          0.661              1.768              1.755
 Vibration    10          0.672              1.734              1.618
 Vibration    11          0.686              1.692              1.474
 Vibration    12          0.699              1.656              1.366
 Vibration    13          0.719              1.598              1.218
 Vibration    14          0.741              1.537              1.085
 Vibration    15          0.756              1.497              1.010
 Vibration    16          0.801              1.381              0.824
 Vibration    17          0.808              1.363              0.798
 Vibration    18          0.833              1.303              0.720
 Vibration    19          0.850              1.264              0.674
 Vibration    20          0.955              1.038              0.455

 Optimization completed.
    -- Stationary point found.
 Normal termination of Gaussian 16 at Tue May 23 09:41:34 2023.
