 Gaussian 16, Revision A.03,
 Gaussian 16:  ES64L-G16RevA.03 25-Dec-2016

 -----------------------------
 # opt freq b3lyp/6-31g(2df,p)
 -----------------------------

 -------------------
 Title Card Required
 -------------------
 Symbolic Z-matrix:
 Charge =  0 Multiplicity = 1

 SCF Done:  E(RB3LYP) =  -595.018743021     A.U. after   12 cycles
 SCF Done:  E(RB3LYP) =  -595.029359779     A.U. after   11 cycles
 SCF Done:  E(RB3LYP) =  -595.031812355     A.U. after   11 cycles
 SCF Done:  E(RB3LYP) =  -595.033122661     A.U. after   11 cycles
 SCF Done:  E(RB3LYP) =  -595.033596368     A.U. after   11 cycles
 SCF Done:  E(RB3LYP) =  -595.033663453     A.U. after    9 cycles
 SCF Done:  E(RB3LYP) =  -595.033681125     A.U. after    9 cycles
 SCF Done:  E(RB3LYP) =  -595.033687531     A.U. after    9 cycles
 SCF Done:  E(RB3LYP) =  -595.033692277     A.U. after    9 cycles
 SCF Done:  E(RB3LYP) =  -595.033696248     A.U. after    9 cycles
 SCF Done:  E(RB3LYP) =  -595.033698836     A.U. after   10 cycles
 SCF Done:  E(RB3LYP) =  -595.033699527     A.U. after    9 cycles
 SCF Done:  E(RB3LYP) =  -595.033699685     A.U. after    8 cycles
 SCF Done:  E(RB3LYP) =  -595.033699728     A.U. after    6 cycles
 Optimization completed.
    -- Stationary point found.
 Normal termination of Gaussian 16 at Tue May 23 09:29:09 2023.

 ----------------------------------------------------------------------
 #N Geom=AllCheck Guess=TCheck SCRF=Check GenChk RB3LYP/6-31G(2df,p) Fr
 eq
 ----------------------------------------------------------------------

 Structure from the checkpoint file:  "CCqCOrNCCqCrN1NCC1C.chk"
 -------------------
 Title Card Required
 -------------------
 Charge =  0 Multiplicity = 1

                         Standard orientation:
 ---------------------------------------------------------------------
 Center     Atomic      Atomic             Coordinates (Angstroms)
 Number     Number       Type             X           Y           Z
 ---------------------------------------------------------------------
      1          6           0        3.909848    1.062424    0.123745
      2          6           0        2.707977    0.183148   -0.217872
      3          6           0        2.929637   -1.251638    0.291117
      4          8           0        4.033028   -1.890844   -0.333000
      5          7           0        1.490470    0.735321    0.382537
      6          6           0        0.246933    0.396319   -0.304281
      7          6           0       -0.977395    0.958384    0.455045
      8          6           0       -1.069294    2.485813    0.351906
      9          7           0       -2.267082    0.395384    0.073466
     10          7           0       -2.640825    0.424022   -1.366671
     11          6           0       -3.404301   -0.842848   -1.101059
     12          6           0       -2.576796   -1.045404    0.183146
     13          6           0       -3.246287   -1.481203    1.473792
     14          1           0        4.832311    0.578538   -0.204060
     15          1           0        3.967050    1.216382    1.207206
     16          1           0        3.839063    2.042655   -0.360028
     17          1           0        2.619004    0.131640   -1.322696
     18          1           0        2.010208   -1.844108    0.173962
     19          1           0        3.158979   -1.218887    1.361011
     20          1           0        3.822612   -1.996395   -1.266437
     21          1           0        1.579904    1.743724    0.430139
     22          1           0        0.172294   -0.695952   -0.346338
     23          1           0        0.239784    0.753503   -1.352587
     24          1           0       -0.843447    0.681783    1.508891
     25          1           0       -1.227192    2.789140   -0.687926
     26          1           0       -0.164077    2.976195    0.723184
     27          1           0       -1.917191    2.846060    0.938700
     28          1           0       -1.811851    0.125470   -1.896709
     29          1           0       -3.338912   -1.597133   -1.887153
     30          1           0       -4.452699   -0.608362   -0.895261
     31          1           0       -1.704609   -1.689710   -0.029750
     32          1           0       -4.120332   -0.856410    1.679001
     33          1           0       -2.559415   -1.397408    2.322799
     34          1           0       -3.565584   -2.527034    1.409499
 ---------------------------------------------------------------------

 SCF Done:  E(RB3LYP) =  -595.033699728     A.U. after    1 cycles

 The electronic state is 1-A.
 Alpha  occ. eigenvalues --  -19.13574 -14.33648 -14.33449 -14.31550 -10.22085
 Alpha  occ. eigenvalues --  -10.21406 -10.21146 -10.21125 -10.20770 -10.20583
 Alpha  occ. eigenvalues --  -10.17557 -10.17359 -10.17064  -1.01609  -0.98718
 Alpha  occ. eigenvalues --   -0.90796  -0.81438  -0.76913  -0.75436  -0.70434
 Alpha  occ. eigenvalues --   -0.67862  -0.66519  -0.66031  -0.59234  -0.58697
 Alpha  occ. eigenvalues --   -0.55506  -0.50782  -0.50209  -0.47903  -0.47136
 Alpha  occ. eigenvalues --   -0.45527  -0.45028  -0.44122  -0.42558  -0.41854
 Alpha  occ. eigenvalues --   -0.40967  -0.40532  -0.39192  -0.38267  -0.37425
 Alpha  occ. eigenvalues --   -0.36452  -0.36200  -0.35763  -0.34647  -0.34094
 Alpha  occ. eigenvalues --   -0.33673  -0.32363  -0.31703  -0.27106  -0.26155
 Alpha  occ. eigenvalues --   -0.22668  -0.19388
 Alpha virt. eigenvalues --    0.06965   0.07352   0.08104   0.08765   0.10456
 Alpha virt. eigenvalues --    0.11176   0.11738   0.12518   0.13841   0.14261
 Alpha virt. eigenvalues --    0.14764   0.15669   0.15951   0.16299   0.17062

 Mulliken charges:
               1
     1  C   -0.413826
     2  C    0.048867
     3  C   -0.045518
     4  O   -0.416037
     5  N   -0.308822
     6  C   -0.173557
     7  C    0.025922
     8  C   -0.393254
     9  N   -0.084985
    10  N   -0.305953
    11  C   -0.177033
    12  C    0.070346
    13  C   -0.405578
    14  H    0.134646
    15  H    0.122735
    16  H    0.106919
    17  H    0.039901
    18  H    0.082600
    19  H    0.115695
    20  H    0.281171
    21  H    0.217766
    22  H    0.101755
    23  H    0.077836
    24  H    0.094402
    25  H    0.129354
    26  H    0.106363
    27  H    0.127680
    28  H    0.207670
    29  H    0.103973
    30  H    0.115000
    31  H    0.053485
    32  H    0.124367
    33  H    0.121027
    34  H    0.115084
 Sum of Mulliken charges =  -0.00000

 Dipole moment (field-independent basis, Debye):
    X=              0.0483    Y=             -0.7535    Z=             -1.0508  Tot=              1.2939
 Quadrupole moment (field-independent basis, Debye-Ang):
   XX=            -92.8701   YY=            -81.8859   ZZ=            -80.0735
   XY=             10.4981   XZ=             -5.3823   YZ=              4.1982

  Exact polarizability: 143.958   6.228 119.513   0.693   1.880 110.966
 Approx polarizability: 176.470   2.172 168.648   1.483   3.714 172.951

                      1                      2                      3
                      A                      A                      A
 Frequencies --     13.2980                39.9142                55.5139
 Red. masses --      3.2950                 3.7367                 3.1805
 Frc consts  --      0.0003                 0.0035                 0.0058
 IR Inten    --      1.1618                 1.3849                 0.7147

                      4                      5                      6
                      A                      A                      A
 Frequencies --     84.7421               114.7434               122.1269
 Red. masses --      2.9317                 2.8633                 2.5098
 Frc consts  --      0.0124                 0.0222                 0.0221
 IR Inten    --      1.0025                 1.4379                 4.5405

                      7                      8                      9
                      A                      A                      A
 Frequencies --    154.9441               162.7267               208.0845
 Red. masses --      1.9532                 2.2076                 1.3501
 Frc consts  --      0.0276                 0.0344                 0.0344
 IR Inten    --      0.3750                 1.5445                 0.5271

                     10                     11                     12
                      A                      A                      A
 Frequencies --    209.4419               233.2733               236.0977
 Red. masses --      1.6184                 1.2887                 1.6952
 Frc consts  --      0.0418                 0.0413                 0.0557
 IR Inten    --      0.5818                 0.5967                 1.6271

                     13                     14                     15
                      A                      A                      A
 Frequencies --    264.5173               268.6744               288.1448
 Red. masses --      2.3197                 1.8458                 2.1710
 Frc consts  --      0.0956                 0.0785                 0.1062
 IR Inten    --      3.0326                19.5517                 9.4416

                     16                     17                     18
                      A                      A                      A
 Frequencies --    304.5277               359.1378               394.9932
 Red. masses --      1.6008                 2.5673                 2.5606
 Frc consts  --      0.0875                 0.1951                 0.2354
 IR Inten    --     68.3547                 2.8903                 1.5613

                     19                     20                     21
                      A                      A                      A
 Frequencies --    419.5409               471.5349               486.6369
 Red. masses --      2.2154                 2.6708                 2.4621
 Frc consts  --      0.2297                 0.3499                 0.3435
 IR Inten    --     17.6410                 1.6593                 0.6372

                     22                     23                     24
                      A                      A                      A
 Frequencies --    525.0682               583.0640               659.2932
 Red. masses --      3.7164                 3.0997                 2.8112
 Frc consts  --      0.6037                 0.6209                 0.7199
 IR Inten    --      4.3393                 7.8091                 0.7615

                     25                     26                     27
                      A                      A                      A
 Frequencies --    743.1517               755.7021               852.6709
 Red. masses --      1.7798                 1.8468                 2.5713
 Frc consts  --      0.5791                 0.6214                 1.1014
 IR Inten    --     30.6855                26.3258                 4.7543

                     28                     29                     30
                      A                      A                      A
 Frequencies --    874.3693               877.1241               910.7102
 Red. masses --      1.8224                 2.3806                 1.2613
 Frc consts  --      0.8209                 1.0791                 0.6164
 IR Inten    --      2.2448                 3.1134                 3.0563

                     31                     32                     33
                      A                      A                      A
 Frequencies --    912.5306               924.1090               945.2626
 Red. masses --      1.3025                 1.5170                 2.4338
 Frc consts  --      0.6390                 0.7633                 1.2813
 IR Inten    --      9.1777                 9.5395                 5.2284

                     34                     35                     36
                      A                      A                      A
 Frequencies --    965.4634               969.3734              1013.5643
 Red. masses --      1.8598                 3.0841                 1.1924
 Frc consts  --      1.0214                 1.7075                 0.7217
 IR Inten    --      0.0373                 7.7336                18.1471

                     37                     38                     39
                      A                      A                      A
 Frequencies --   1031.5804              1056.9296              1081.4974
 Red. masses --      1.9147                 2.5138                 3.4458
 Frc consts  --      1.2005                 1.6545                 2.3746
 IR Inten    --      5.8074               103.6429                26.9190

                     40                     41                     42
                      A                      A                      A
 Frequencies --   1091.1269              1112.5223              1130.0696
 Red. masses --      2.4236                 1.9066                 1.9102
 Frc consts  --      1.7000                 1.3904                 1.4373
 IR Inten    --      0.8517                10.2853                10.7543

                     43                     44                     45
                      A                      A                      A
 Frequencies --   1139.1087              1152.8277              1157.8583
 Red. masses --      1.9865                 2.4074                 2.9538
 Frc consts  --      1.5187                 1.8851                 2.3332
 IR Inten    --      2.7450                 6.5577                51.3580

                     46                     47                     48
                      A                      A                      A
 Frequencies --   1178.5573              1197.9744              1213.7703
 Red. masses --      2.2072                 2.0399                 2.3600
 Frc consts  --      1.8064                 1.7249                 2.0485
 IR Inten    --      9.5097                 8.4154                26.1917

                     49                     50                     51
                      A                      A                      A
 Frequencies --   1234.2487              1253.4784              1265.9236
 Red. masses --      1.5403                 1.3038                 1.3004
 Frc consts  --      1.3825                 1.2070                 1.2278
 IR Inten    --      8.4422                10.3817                10.6118

                     52                     53                     54
                      A                      A                      A
 Frequencies --   1282.7149              1309.5015              1322.4064
 Red. masses --      1.3247                 1.3574                 1.2494
 Frc consts  --      1.2842                 1.3714                 1.2873
 IR Inten    --      6.6579                32.8965                 2.4603

                     55                     56                     57
                      A                      A                      A
 Frequencies --   1336.9540              1358.9402              1365.7778
 Red. masses --      1.2400                 1.3071                 1.3671
 Frc consts  --      1.3058                 1.4222                 1.5025
 IR Inten    --      6.4942                 6.3553                 3.2183

                     58                     59                     60
                      A                      A                      A
 Frequencies --   1381.6283              1389.1875              1396.3470
 Red. masses --      1.3304                 1.3152                 1.3232
 Frc consts  --      1.4963                 1.4954                 1.5201
 IR Inten    --     21.6569                 4.5948                 9.7222

                     61                     62                     63
                      A                      A                      A
 Frequencies --   1397.3372              1403.0281              1410.4034
 Red. masses --      1.2836                 1.2182                 1.3587
 Frc consts  --      1.4767                 1.4129                 1.5925
 IR Inten    --     55.9326                 8.2731                 8.2611

                     64                     65                     66
                      A                      A                      A
 Frequencies --   1414.7248              1421.1289              1482.6726
 Red. masses --      1.3438                 1.3579                 1.0707
 Frc consts  --      1.5847                 1.6158                 1.3867
 IR Inten    --     19.7884                23.6426                 8.3379

                     67                     68                     69
                      A                      A                      A
 Frequencies --   1485.7922              1488.8883              1492.4418
 Red. masses --      1.0508                 1.0897                 1.0739
 Frc consts  --      1.3667                 1.4233                 1.4093
 IR Inten    --      4.3431                 3.4683                 0.4746

                     70                     71                     72
                      A                      A                      A
 Frequencies --   1494.9244              1498.9887              1501.4662
 Red. masses --      1.0684                 1.0516                 1.0944
 Frc consts  --      1.4068                 1.3922                 1.4536
 IR Inten    --      1.5486                 2.6394                 1.8963

                     73                     74                     75
                      A                      A                      A
 Frequencies --   1506.0990              1513.8865              1516.7872
 Red. masses --      1.0774                 1.0950                 1.1442
 Frc consts  --      1.4399                 1.4786                 1.5510
 IR Inten    --      0.9928                 1.5221                20.6726

                     76                     77                     78
                      A                      A                      A
 Frequencies --   2879.1096              2906.9424              2931.4969
 Red. masses --      1.0802                 1.0722                 1.0808
 Frc consts  --      5.2758                 5.3384                 5.4722
 IR Inten    --     59.5569                71.1260                56.4621

                     79                     80                     81
                      A                      A                      A
 Frequencies --   2993.5043              3029.9086              3031.7721
 Red. masses --      1.0686                 1.0737                 1.0370
 Frc consts  --      5.6417                 5.8074                 5.6162
 IR Inten    --     61.8550                 4.6083                18.8373

                     82                     83                     84
                      A                      A                      A
 Frequencies --   3033.3302              3041.4335              3054.7914
 Red. masses --      1.0437                 1.0359                 1.0849
 Frc consts  --      5.6578                 5.6459                 5.9647
 IR Inten    --     25.6561                19.3467                35.7479

                     85                     86                     87
                      A                      A                      A
 Frequencies --   3059.7121              3081.8782              3096.0761
 Red. masses --      1.0591                 1.0952                 1.1015
 Frc consts  --      5.8421                 6.1285                 6.2209
 IR Inten    --     47.1532                22.6406                32.4213

                     88                     89                     90
                      A                      A                      A
 Frequencies --   3098.3031              3109.2644              3114.7659
 Red. masses --      1.1005                 1.1012                 1.1024
 Frc consts  --      6.2242                 6.2723                 6.3014
 IR Inten    --     22.5076                31.8827                14.9179

                     91                     92                     93
                      A                      A                      A
 Frequencies --   3122.2594              3126.9704              3131.7811
 Red. masses --      1.1080                 1.1007                 1.0988
 Frc consts  --      6.3640                 6.3410                 6.3499
 IR Inten    --     27.1340                20.9216                12.2135

                     94                     95                     96
                      A                      A                      A
 Frequencies --   3318.6364              3533.8129              3812.2258
 Red. masses --      1.0739                 1.0736                 1.0660
 Frc consts  --      6.9685                 7.8992                 9.1281
 IR Inten    --     19.2681                 0.0545                14.3260

 - Thermochemistry -
 -------------------
 Temperature   298.150 Kelvin.  Pressure   1.00000 Atm.
 Atom     1 has atomic number  6 and mass  12.00000

 Molecular mass:   187.16846 amu.
 Principal axes and moments of inertia in atomic units:
                           1         2         3
     Eigenvalues --  1449.048035316.835565984.34439
           X            0.99981   0.01857  -0.00580
           Y           -0.01857   0.99983  -0.00043
           Z            0.00579   0.00054   0.99998
 This molecule is an asymmetric top.
 Rotational symmetry number  1.
 Warning -- assumption of classical behavior for rotation
           may cause significant error
 Rotational temperatures (Kelvin)      0.05977     0.01629     0.01447
 Rotational constants (GHZ):           1.24547     0.33944     0.30158
 Zero-point vibrational energy     803780.1 (Joules/Mol)
                                  192.10807 (Kcal/Mol)
 Warning -- explicit consideration of  23 degrees of freedom as
           vibrations may cause significant error
 Vibrational temperatures:     19.13    57.43    79.87   121.93   165.09
          (Kelvin)            175.71   222.93   234.13   299.39   301.34
                              335.63   339.69   380.58   386.56   414.58
                              438.15   516.72   568.31   603.63   678.43
                              700.16   755.46   838.90   948.58  1069.23
                             1087.29  1226.80  1258.02  1261.99  1310.31
                             1312.93  1329.59  1360.02  1389.09  1394.71
                             1458.29  1484.21  1520.69  1556.03  1569.89
                             1600.67  1625.92  1638.92  1658.66  1665.90
                             1695.68  1723.62  1746.34  1775.81  1803.48
                             1821.38  1845.54  1884.08  1902.65  1923.58
                             1955.21  1965.05  1987.85  1998.73  2009.03
                             2010.46  2018.64  2029.26  2035.47  2044.69
                             2133.24  2137.72  2142.18  2147.29  2150.86
                             2156.71  2160.27  2166.94  2178.15  2182.32
                             4142.40  4182.44  4217.77  4306.99  4359.36
                             4362.04  4364.29  4375.94  4395.16  4402.24
                             4434.14  4454.56  4457.77  4473.54  4481.45
                             4492.23  4499.01  4505.93  4774.78  5084.37
                             5484.94

 Zero-point correction=                           0.306144 (Hartree/Particle)
 Thermal correction to Energy=                    0.321992
 Thermal correction to Enthalpy=                  0.322936
 Thermal correction to Gibbs Free Energy=         0.261635
 Sum of electronic and zero-point Energies=           -594.727556
 Sum of electronic and thermal Energies=              -594.711708
 Sum of electronic and thermal Enthalpies=            -594.710764
 Sum of electronic and thermal Free Energies=         -594.772065

                     E (Thermal)             CV                S
                      KCal/Mol        Cal/Mol-Kelvin    Cal/Mol-Kelvin
 Total                  202.053             58.031            129.018
 Electronic               0.000              0.000              0.000
 Translational            0.889              2.981             41.586
 Rotational               0.889              2.981             32.200
 Vibrational            200.275             52.069             55.232
 Vibration     1          0.593              1.987              7.445
 Vibration     2          0.594              1.981              5.263
 Vibration     3          0.596              1.975              4.611
 Vibration     4          0.601              1.960              3.778
 Vibration     5          0.608              1.937              3.187
 Vibration     6          0.610              1.931              3.066
 Vibration     7          0.620              1.897              2.611
 Vibration     8          0.623              1.888              2.518
 Vibration     9          0.641              1.828              2.060
 Vibration    10          0.642              1.826              2.049
 Vibration    11          0.654              1.790              1.854
 Vibration    12          0.655              1.786              1.832
 Vibration    13          0.671              1.738              1.632
 Vibration    14          0.673              1.731              1.605
 Vibration    15          0.685              1.696              1.485
 Vibration    16          0.695              1.665              1.392
 Vibration    17          0.734              1.556              1.126
 Vibration    18          0.762              1.481              0.981
 Vibration    19          0.782              1.428              0.894
 Vibration    20          0.828              1.313              0.733
 Vibration    21          0.843              1.280              0.692
 Vibration    22          0.880              1.195              0.598
 Vibration    23          0.940              1.068              0.480

 Optimization completed.
    -- Stationary point found.
 Normal termination of Gaussian 16 at Tue May 23 11:19:03 2023.
