 Gaussian 16, Revision A.03,
 Gaussian 16:  ES64L-G16RevA.03 25-Dec-2016

 -----------------------------
 # opt freq b3lyp/6-31g(2df,p)
 -----------------------------

 -------------------
 Title Card Required
 -------------------
 Symbolic Z-matrix:
 Charge =  0 Multiplicity = 1

 SCF Done:  E(RB3LYP) =  -393.138137849     A.U. after   12 cycles
 SCF Done:  E(RB3LYP) =  -393.142833294     A.U. after   10 cycles
 SCF Done:  E(RB3LYP) =  -393.144818650     A.U. after   10 cycles
 SCF Done:  E(RB3LYP) =  -393.145943527     A.U. after   10 cycles
 SCF Done:  E(RB3LYP) =  -393.146033669     A.U. after   10 cycles
 SCF Done:  E(RB3LYP) =  -393.147000617     A.U. after   10 cycles
 SCF Done:  E(RB3LYP) =  -393.147261978     A.U. after    9 cycles
 SCF Done:  E(RB3LYP) =  -393.147283473     A.U. after    8 cycles
 SCF Done:  E(RB3LYP) =  -393.147295106     A.U. after    8 cycles
 SCF Done:  E(RB3LYP) =  -393.147297990     A.U. after    6 cycles
 SCF Done:  E(RB3LYP) =  -393.148015130     A.U. after    9 cycles
 SCF Done:  E(RB3LYP) =  -393.148034773     A.U. after    8 cycles
 SCF Done:  E(RB3LYP) =  -393.148049669     A.U. after    8 cycles
 SCF Done:  E(RB3LYP) =  -393.148055152     A.U. after    7 cycles
 SCF Done:  E(RB3LYP) =  -393.148061158     A.U. after    7 cycles
 SCF Done:  E(RB3LYP) =  -393.148064472     A.U. after    7 cycles
 SCF Done:  E(RB3LYP) =  -393.148067603     A.U. after    7 cycles
 SCF Done:  E(RB3LYP) =  -393.148068236     A.U. after    6 cycles
 SCF Done:  E(RB3LYP) =  -393.148068336     A.U. after    6 cycles
 Optimization completed.
    -- Stationary point found.
 Normal termination of Gaussian 16 at Sun May 28 19:31:32 2023.

 ----------------------------------------------------------------------
 #N Geom=AllCheck Guess=TCheck SCRF=Check GenChk RB3LYP/6-31G(2df,p) Fr
 eq
 ----------------------------------------------------------------------

 Structure from the checkpoint file:  "CCqCrCqCrC1CCCC1.chk"
 -------------------
 Title Card Required
 -------------------
 Charge =  0 Multiplicity = 1

                         Standard orientation:
 ---------------------------------------------------------------------
 Center     Atomic      Atomic             Coordinates (Angstroms)
 Number     Number       Type             X           Y           Z
 ---------------------------------------------------------------------
      1          6           0       -3.141940   -0.470252    0.177540
      2          6           0       -1.616199   -0.475344    0.386208
      3          6           0       -1.101224   -1.907196    0.166124
      4          6           0       -0.908566    0.596781   -0.490301
      5          6           0       -1.491393    1.998951   -0.223200
      6          6           0        0.640651    0.664127   -0.370720
      7          6           0        1.251269    0.599506    1.048956
      8          6           0        2.729858    0.277106    0.787218
      9          6           0        2.665897   -0.786210   -0.325003
     10          6           0        1.461487   -0.369682   -1.208754
     11          1           0       -3.607517   -1.278516    0.751247
     12          1           0       -3.394083   -0.629991   -0.878243
     13          1           0       -3.608822    0.464504    0.495465
     14          1           0       -1.432219   -0.213670    1.437903
     15          1           0       -1.243295   -2.222129   -0.874618
     16          1           0       -1.658239   -2.608661    0.796724
     17          1           0       -0.042944   -2.021969    0.409247
     18          1           0       -1.130239    0.348476   -1.539973
     19          1           0       -1.363391    2.287778    0.827032
     20          1           0       -2.556766    2.059074   -0.455858
     21          1           0       -0.983010    2.750927   -0.835099
     22          1           0        0.916384    1.649960   -0.766066
     23          1           0        0.803271   -0.209900    1.636450
     24          1           0        1.105567    1.525334    1.613808
     25          1           0        3.263532   -0.065766    1.678750
     26          1           0        3.247126    1.174212    0.423629
     27          1           0        2.482357   -1.769662    0.123966
     28          1           0        3.598165   -0.868817   -0.890855
     29          1           0        0.864367   -1.234517   -1.502667
     30          1           0        1.800706    0.096606   -2.139247
 ---------------------------------------------------------------------

 SCF Done:  E(RB3LYP) =  -393.148068336     A.U. after    1 cycles

 The electronic state is 1-A.
 Alpha  occ. eigenvalues --  -10.18122 -10.17912 -10.17457 -10.17132 -10.17104
 Alpha  occ. eigenvalues --  -10.16908 -10.16736 -10.16672 -10.16631 -10.16525
 Alpha  occ. eigenvalues --   -0.83317  -0.79725  -0.73866  -0.69920  -0.68945
 Alpha  occ. eigenvalues --   -0.66922  -0.61475  -0.57256  -0.55555  -0.53015
 Alpha  occ. eigenvalues --   -0.47338  -0.46612  -0.44407  -0.42827  -0.41340
 Alpha  occ. eigenvalues --   -0.40898  -0.40455  -0.38688  -0.37686  -0.36693
 Alpha  occ. eigenvalues --   -0.35543  -0.33999  -0.32933  -0.32832  -0.32222
 Alpha  occ. eigenvalues --   -0.32141  -0.31336  -0.29808  -0.29459  -0.28634
 Alpha virt. eigenvalues --    0.07518   0.09222   0.10170   0.11271   0.13223
 Alpha virt. eigenvalues --    0.13778   0.14310   0.15284   0.15489   0.16164
 Alpha virt. eigenvalues --    0.16542   0.17300   0.18233   0.18534   0.18931

 Mulliken charges:
               1
     1  C   -0.398675
     2  C    0.054724
     3  C   -0.400889
     4  C    0.004831
     5  C   -0.410645
     6  C    0.061698
     7  C   -0.217696
     8  C   -0.199719
     9  C   -0.197784
    10  C   -0.237705
    11  H    0.105887
    12  H    0.109451
    13  H    0.113997
    14  H    0.071350
    15  H    0.110989
    16  H    0.104964
    17  H    0.118213
    18  H    0.063919
    19  H    0.112061
    20  H    0.112746
    21  H    0.107743
    22  H    0.064588
    23  H    0.098531
    24  H    0.088881
    25  H    0.088108
    26  H    0.093072
    27  H    0.097567
    28  H    0.090410
    29  H    0.099316
    30  H    0.090068
 Sum of Mulliken charges =  -0.00000

 Dipole moment (field-independent basis, Debye):
    X=              0.0129    Y=              0.0502    Z=              0.0208  Tot=              0.0558
 Quadrupole moment (field-independent basis, Debye-Ang):
   XX=            -67.0385   YY=            -66.5962   ZZ=            -66.0082
   XY=              0.5129   XZ=             -0.2262   YZ=             -0.4540

  Exact polarizability: 120.376  -0.485 103.486  -0.410  -0.122  94.343
 Approx polarizability: 149.951   1.198 147.816  -0.716  -0.823 146.897

                      1                      2                      3
                      A                      A                      A
 Frequencies --     53.5780                79.6535                92.9735
 Red. masses --      2.4357                 2.4742                 2.6696
 Frc consts  --      0.0041                 0.0092                 0.0136
 IR Inten    --      0.0106                 0.0202                 0.0088

                      4                      5                      6
                      A                      A                      A
 Frequencies --    181.3953               201.5477               219.6241
 Red. masses --      1.9802                 1.1176                 1.5760
 Frc consts  --      0.0384                 0.0267                 0.0448
 IR Inten    --      0.0094                 0.0163                 0.0168

                      7                      8                      9
                      A                      A                      A
 Frequencies --    232.1943               253.9784               291.5271
 Red. masses --      1.7262                 1.7825                 1.2628
 Frc consts  --      0.0548                 0.0677                 0.0632
 IR Inten    --      0.1038                 0.0242                 0.0421

                     10                     11                     12
                      A                      A                      A
 Frequencies --    311.8649               363.6459               385.3952
 Red. masses --      2.6610                 1.9683                 2.2157
 Frc consts  --      0.1525                 0.1534                 0.1939
 IR Inten    --      0.0375                 0.0533                 0.1332

                     13                     14                     15
                      A                      A                      A
 Frequencies --    402.6876               480.7127               526.8126
 Red. masses --      2.0487                 2.6766                 1.9481
 Frc consts  --      0.1957                 0.3644                 0.3185
 IR Inten    --      0.3994                 0.0941                 1.8701

                     16                     17                     18
                      A                      A                      A
 Frequencies --    586.1860               621.7718               740.6540
 Red. masses --      2.2594                 2.7193                 1.8655
 Frc consts  --      0.4574                 0.6194                 0.6030
 IR Inten    --      0.1426                 0.0201                 0.0419

                     19                     20                     21
                      A                      A                      A
 Frequencies --    803.8204               837.1556               865.2251
 Red. masses --      1.5979                 2.0970                 2.1020
 Frc consts  --      0.6083                 0.8659                 0.9271
 IR Inten    --      1.0177                 0.7408                 0.7674

                     22                     23                     24
                      A                      A                      A
 Frequencies --    903.4807               912.9278               926.0806
 Red. masses --      2.6053                 2.2491                 1.2086
 Frc consts  --      1.2530                 1.1044                 0.6107
 IR Inten    --      0.5438                 0.8825                 1.2146

                     25                     26                     27
                      A                      A                      A
 Frequencies --    933.0909               958.5026               966.9510
 Red. masses --      1.7961                 1.5139                 1.4595
 Frc consts  --      0.9213                 0.8195                 0.8040
 IR Inten    --      1.2360                 1.5024                 0.2596

                     28                     29                     30
                      A                      A                      A
 Frequencies --    971.7887               991.5072              1021.5017
 Red. masses --      1.5508                 1.4320                 1.3601
 Frc consts  --      0.8629                 0.8294                 0.8362
 IR Inten    --      0.5971                 1.4507                 1.0097

                     31                     32                     33
                      A                      A                      A
 Frequencies --   1032.7231              1043.2295              1072.8443
 Red. masses --      1.8522                 2.8200                 2.0300
 Frc consts  --      1.1639                 1.8082                 1.3766
 IR Inten    --      1.6014                 1.0393                 0.2104

                     34                     35                     36
                      A                      A                      A
 Frequencies --   1110.5921              1155.8450              1173.6688
 Red. masses --      1.8055                 2.1315                 1.6627
 Frc consts  --      1.3121                 1.6778                 1.3494
 IR Inten    --      1.9629                 3.2457                 0.7353

                     37                     38                     39
                      A                      A                      A
 Frequencies --   1188.4252              1199.2123              1208.5297
 Red. masses --      1.7288                 1.7425                 1.9039
 Frc consts  --      1.4386                 1.4764                 1.6384
 IR Inten    --      1.6633                 0.6319                 0.2441

                     40                     41                     42
                      A                      A                      A
 Frequencies --   1239.3909              1260.0175              1296.7261
 Red. masses --      1.4324                 1.2739                 1.4147
 Frc consts  --      1.2964                 1.1916                 1.4016
 IR Inten    --      0.6014                 1.5327                 1.8503

                     43                     44                     45
                      A                      A                      A
 Frequencies --   1305.2410              1321.2289              1331.1172
 Red. masses --      1.3089                 1.2240                 1.2268
 Frc consts  --      1.3139                 1.2589                 1.2808
 IR Inten    --      1.1100                 1.9583                 2.1313

                     46                     47                     48
                      A                      A                      A
 Frequencies --   1334.4751              1344.4031              1352.8918
 Red. masses --      1.3553                 1.3227                 1.2948
 Frc consts  --      1.4220                 1.4086                 1.3963
 IR Inten    --      0.1757                 1.5906                 1.6633

                     49                     50                     51
                      A                      A                      A
 Frequencies --   1367.3832              1372.5654              1398.6026
 Red. masses --      1.4055                 1.3638                 1.3326
 Frc consts  --      1.5484                 1.5138                 1.5358
 IR Inten    --      1.6454                 0.9153                 1.5872

                     52                     53                     54
                      A                      A                      A
 Frequencies --   1399.0808              1412.5590              1425.2962
 Red. masses --      1.2787                 1.2333                 1.2221
 Frc consts  --      1.4747                 1.4499                 1.4627
 IR Inten    --      1.0413                 5.5764                 3.7384

                     55                     56                     57
                      A                      A                      A
 Frequencies --   1483.5630              1489.8375              1490.9630
 Red. masses --      1.0568                 1.0717                 1.0687
 Frc consts  --      1.3704                 1.4015                 1.3997
 IR Inten    --      1.8560                 0.5653                 1.9096

                     58                     59                     60
                      A                      A                      A
 Frequencies --   1493.5753              1496.7455              1501.2398
 Red. masses --      1.0750                 1.0711                 1.0536
 Frc consts  --      1.4129                 1.4137                 1.3990
 IR Inten    --      1.7457                 3.2985                 3.2994

                     61                     62                     63
                      A                      A                      A
 Frequencies --   1504.5119              1511.9426              1519.2428
 Red. masses --      1.0536                 1.0716                 1.0744
 Frc consts  --      1.4052                 1.4433                 1.4610
 IR Inten    --      9.3757                 1.4668                 3.6683

                     64                     65                     66
                      A                      A                      A
 Frequencies --   1526.1816              2977.8651              3003.0099
 Red. masses --      1.0601                 1.0809                 1.0835
 Frc consts  --      1.4549                 5.6472                 5.7571
 IR Inten    --      1.7152                11.7083                15.0102

                     67                     68                     69
                      A                      A                      A
 Frequencies --   3004.3532              3024.6494              3024.8230
 Red. masses --      1.0820                 1.0575                 1.0498
 Frc consts  --      5.7540                 5.6999                 5.6593
 IR Inten    --     19.2270                40.2867                 6.3841

                     70                     71                     72
                      A                      A                      A
 Frequencies --   3029.9313              3031.3295              3032.2696
 Red. masses --      1.0399                 1.0414                 1.0625
 Frc consts  --      5.6247                 5.6379                 5.7560
 IR Inten    --     62.9951                 7.2323                21.4879

                     73                     74                     75
                      A                      A                      A
 Frequencies --   3041.1214              3051.3716              3079.9382
 Red. masses --      1.0604                 1.0716                 1.0936
 Frc consts  --      5.7782                 5.8786                 6.1123
 IR Inten    --     26.5270                31.8753                29.5100

                     76                     77                     78
                      A                      A                      A
 Frequencies --   3082.5523              3083.3279              3089.8832
 Red. masses --      1.0980                 1.1000                 1.1005
 Frc consts  --      6.1474                 6.1617                 6.1907
 IR Inten    --     26.4345                15.9328                 5.4865

                     79                     80                     81
                      A                      A                      A
 Frequencies --   3091.3755              3092.2169              3109.9828
 Red. masses --      1.1017                 1.0993                 1.0985
 Frc consts  --      6.2033                 6.1930                 6.2601
 IR Inten    --     47.6809               112.5045                 3.2372

                     82                     83                     84
                      A                      A                      A
 Frequencies --   3111.9930              3122.5968              3124.9157
 Red. masses --      1.0980                 1.0965                 1.0963
 Frc consts  --      6.2650                 6.2994                 6.3075
 IR Inten    --     80.6630                27.7482                28.4936

 - Thermochemistry -
 -------------------
 Temperature   298.150 Kelvin.  Pressure   1.00000 Atm.
 Atom     1 has atomic number  6 and mass  12.00000

 Molecular mass:   140.15650 amu.
 Principal axes and moments of inertia in atomic units:
                           1         2         3
     Eigenvalues --   861.797022143.533162484.24818
           X            1.00000  -0.00192  -0.00007
           Y            0.00192   1.00000   0.00120
           Z            0.00007  -0.00120   1.00000
 This molecule is an asymmetric top.
 Rotational symmetry number  1.
 Warning -- assumption of classical behavior for rotation
           may cause significant error
 Rotational temperatures (Kelvin)      0.10050     0.04041     0.03487
 Rotational constants (GHZ):           2.09416     0.84195     0.72647
 Zero-point vibrational energy     739840.0 (Joules/Mol)
                                  176.82601 (Kcal/Mol)
 Warning -- explicit consideration of  16 degrees of freedom as
           vibrations may cause significant error
 Vibrational temperatures:     77.09   114.60   133.77   260.99   289.98
          (Kelvin)            315.99   334.08   365.42   419.44   448.70
                              523.21   554.50   579.38   691.64   757.97
                              843.39   894.59  1065.64  1156.52  1204.48
                             1244.87  1299.91  1313.50  1332.42  1342.51
                             1379.07  1391.23  1398.19  1426.56  1469.71
                             1485.86  1500.97  1543.58  1597.89  1663.00
                             1688.65  1709.88  1725.40  1738.80  1783.21
                             1812.88  1865.70  1877.95  1900.95  1915.18
                             1920.01  1934.30  1946.51  1967.36  1974.82
                             2012.28  2012.97  2032.36  2050.68  2134.52
                             2143.54  2145.16  2148.92  2153.48  2159.95
                             2164.66  2175.35  2185.85  2195.83  4284.48
                             4320.66  4322.59  4351.80  4352.05  4359.40
                             4361.41  4362.76  4375.50  4390.24  4431.34
                             4435.11  4436.22  4445.65  4447.80  4449.01
                             4474.57  4477.46  4492.72  4496.06

 Zero-point correction=                           0.281790 (Hartree/Particle)
 Thermal correction to Energy=                    0.293319
 Thermal correction to Enthalpy=                  0.294263
 Thermal correction to Gibbs Free Energy=         0.245012
 Sum of electronic and zero-point Energies=           -392.866278
 Sum of electronic and thermal Energies=              -392.854749
 Sum of electronic and thermal Enthalpies=            -392.853805
 Sum of electronic and thermal Free Energies=         -392.903057

                     E (Thermal)             CV                S
                      KCal/Mol        Cal/Mol-Kelvin    Cal/Mol-Kelvin
 Total                  184.060             44.748            103.658
 Electronic               0.000              0.000              0.000
 Translational            0.889              2.981             40.724
 Rotational               0.889              2.981             29.908
 Vibrational            182.283             38.786             33.026
 Vibration     1          0.596              1.976              4.681
 Vibration     2          0.600              1.963              3.899
 Vibration     3          0.602              1.954              3.597
 Vibration     4          0.630              1.865              2.314
 Vibration     5          0.638              1.838              2.119
 Vibration     6          0.647              1.811              1.962
 Vibration     7          0.653              1.792              1.862
 Vibration     8          0.665              1.756              1.703
 Vibration     9          0.687              1.690              1.465
 Vibration    10          0.700              1.651              1.352
 Vibration    11          0.737              1.547              1.106
 Vibration    12          0.754              1.501              1.018
 Vibration    13          0.768              1.464              0.953
 Vibration    14          0.837              1.293              0.708
 Vibration    15          0.882              1.191              0.594
 Vibration    16          0.943              1.061              0.474

 Optimization completed.
    -- Stationary point found.
 Normal termination of Gaussian 16 at Sun May 28 20:50:56 2023.
