 Gaussian 16, Revision A.03,
 Gaussian 16:  ES64L-G16RevA.03 25-Dec-2016

 -----------------------------
 # opt freq b3lyp/6-31g(2df,p)
 -----------------------------

 -------------------
 Title Card Required
 -------------------
 Symbolic Z-matrix:
 Charge =  0 Multiplicity = 1

 SCF Done:  E(RB3LYP) =  -658.042262463     A.U. after   13 cycles
 SCF Done:  E(RB3LYP) =  -658.048389174     A.U. after   11 cycles
 SCF Done:  E(RB3LYP) =  -658.049347350     A.U. after   11 cycles
 SCF Done:  E(RB3LYP) =  -658.050316606     A.U. after   12 cycles
 SCF Done:  E(RB3LYP) =  -658.051380151     A.U. after   13 cycles
 SCF Done:  E(RB3LYP) =  -658.051866960     A.U. after   10 cycles
 SCF Done:  E(RB3LYP) =  -658.052754257     A.U. after   11 cycles
 SCF Done:  E(RB3LYP) =  -658.053189166     A.U. after   11 cycles
 SCF Done:  E(RB3LYP) =  -658.053366224     A.U. after   11 cycles
 SCF Done:  E(RB3LYP) =  -658.053397716     A.U. after    9 cycles
 SCF Done:  E(RB3LYP) =  -658.053413883     A.U. after    9 cycles
 SCF Done:  E(RB3LYP) =  -658.053418466     A.U. after    9 cycles
 SCF Done:  E(RB3LYP) =  -658.053419246     A.U. after    7 cycles
 SCF Done:  E(RB3LYP) =  -658.053419676     A.U. after    7 cycles
 SCF Done:  E(RB3LYP) =  -658.053419700     A.U. after    6 cycles
 Optimization completed.
    -- Stationary point found.
 Normal termination of Gaussian 16 at Wed May 24 10:19:19 2023.

 ----------------------------------------------------------------------
 #N Geom=AllCheck Guess=TCheck SCRF=Check GenChk RB3LYP/6-31G(2df,p) Fr
 eq
 ----------------------------------------------------------------------

 Structure from the checkpoint file:  "CCqCCCC1CCCCqCrO1rOO.chk"
 -------------------
 Title Card Required
 -------------------
 Charge =  0 Multiplicity = 1

                         Standard orientation:
 ---------------------------------------------------------------------
 Center     Atomic      Atomic             Coordinates (Angstroms)
 Number     Number       Type             X           Y           Z
 ---------------------------------------------------------------------
      1          6           0        3.835063   -1.735510    0.177913
      2          6           0        3.591372   -0.269729   -0.169638
      3          6           0        2.228152    0.265065    0.281540
      4          6           0        1.038089   -0.302500   -0.502568
      5          6           0       -0.294355    0.342177   -0.098604
      6          6           0       -1.495867   -0.141307   -0.933401
      7          6           0       -1.959173   -1.576369   -0.627264
      8          6           0       -2.732944   -1.655956    0.695871
      9          6           0       -3.861136   -0.617429    0.703359
     10          6           0       -3.310994    0.776587    0.382404
     11          6           0       -4.400043    1.830315    0.238345
     12          8           0       -2.594853    0.768574   -0.851802
     13          8           0        4.665975    0.420080    0.480448
     14          8           0        4.704165    1.771432   -0.034632
     15          1           0        3.105298   -2.373776   -0.326303
     16          1           0        3.747496   -1.896300    1.257236
     17          1           0        4.836282   -2.039794   -0.136762
     18          1           0        3.701790   -0.121628   -1.253271
     19          1           0        2.244207    1.353998    0.160871
     20          1           0        2.105610    0.061214    1.353836
     21          1           0        0.983538   -1.388276   -0.358570
     22          1           0        1.204500   -0.144416   -1.577426
     23          1           0       -0.227459    1.428491   -0.234375
     24          1           0       -0.466018    0.172847    0.971248
     25          1           0       -1.198344   -0.089402   -1.988092
     26          1           0       -1.101646   -2.257750   -0.622531
     27          1           0       -2.616599   -1.900431   -1.443031
     28          1           0       -2.058886   -1.470946    1.542435
     29          1           0       -3.134432   -2.665022    0.838129
     30          1           0       -4.370868   -0.597975    1.673635
     31          1           0       -4.611573   -0.879013   -0.054481
     32          1           0       -2.633120    1.078491    1.199179
     33          1           0       -5.085499    1.559876   -0.571045
     34          1           0       -3.961005    2.803401    0.002238
     35          1           0       -4.973812    1.921118    1.165810
     36          1           0        4.479261    2.272534    0.761412
 ---------------------------------------------------------------------

 SCF Done:  E(RB3LYP) =  -658.053419700     A.U. after    1 cycles

 The electronic state is 1-A.
 Alpha  occ. eigenvalues --  -19.18506 -19.18467 -19.12646 -10.23204 -10.22512
 Alpha  occ. eigenvalues --  -10.22494 -10.18521 -10.18131 -10.17957 -10.17928
 Alpha  occ. eigenvalues --  -10.17772 -10.17731 -10.17591 -10.16900  -1.10761
 Alpha  occ. eigenvalues --   -1.02007  -0.90792  -0.80762  -0.79359  -0.77658
 Alpha  occ. eigenvalues --   -0.73889  -0.70060  -0.67752  -0.63140  -0.60675
 Alpha  occ. eigenvalues --   -0.59834  -0.57206  -0.53625  -0.52720  -0.48616
 Alpha  occ. eigenvalues --   -0.47777  -0.46868  -0.46261  -0.44615  -0.44364
 Alpha  occ. eigenvalues --   -0.43387  -0.42424  -0.41717  -0.39377  -0.38738
 Alpha  occ. eigenvalues --   -0.38334  -0.38299  -0.36741  -0.36445  -0.36171
 Alpha  occ. eigenvalues --   -0.35644  -0.34556  -0.34011  -0.32915  -0.32655
 Alpha  occ. eigenvalues --   -0.32474  -0.31524  -0.29504  -0.28169  -0.25305
 Alpha  occ. eigenvalues --   -0.23945
 Alpha virt. eigenvalues --    0.03539   0.07555   0.08548   0.09799   0.10062
 Alpha virt. eigenvalues --    0.11033   0.11649   0.12469   0.13253   0.13879
 Alpha virt. eigenvalues --    0.14734   0.15223   0.16138   0.16612   0.16866

 Mulliken charges:
               1
     1  C   -0.408865
     2  C    0.175288
     3  C   -0.203877
     4  C   -0.201532
     5  C   -0.204647
     6  C    0.114180
     7  C   -0.211024
     8  C   -0.219387
     9  C   -0.186635
    10  C    0.146376
    11  C   -0.397745
    12  O   -0.283629
    13  O   -0.199465
    14  O   -0.331470
    15  H    0.125223
    16  H    0.124090
    17  H    0.131203
    18  H    0.081408
    19  H    0.097607
    20  H    0.092304
    21  H    0.101356
    22  H    0.099741
    23  H    0.103144
    24  H    0.094647
    25  H    0.074918
    26  H    0.093671
    27  H    0.099503
    28  H    0.096086
    29  H    0.093787
    30  H    0.088958
    31  H    0.095943
    32  H    0.059784
    33  H    0.120478
    34  H    0.119447
    35  H    0.109192
    36  H    0.309942
 Sum of Mulliken charges =  -0.00000

 Dipole moment (field-independent basis, Debye):
    X=             -1.2856    Y=             -0.8531    Z=              1.3961  Tot=              2.0808
 Quadrupole moment (field-independent basis, Debye-Ang):
   XX=           -100.6537   YY=            -84.1578   ZZ=            -86.8039
   XY=              0.8744   XZ=             -0.7524   YZ=              4.3089

  Exact polarizability: 154.076  -1.811 131.354  -3.633   1.339 110.806
 Approx polarizability: 180.855   1.044 187.787  -1.322  -0.557 178.076

                      1                      2                      3
                      A                      A                      A
 Frequencies --     19.6723                37.3379                57.7781
 Red. masses --      3.5485                 3.8127                 3.8298
 Frc consts  --      0.0008                 0.0031                 0.0075
 IR Inten    --      0.0765                 0.3313                 0.1173

                      4                      5                      6
                      A                      A                      A
 Frequencies --     89.2668               101.6474               129.2541
 Red. masses --      3.3342                 1.8230                 3.4802
 Frc consts  --      0.0157                 0.0111                 0.0343
 IR Inten    --      0.9996                 0.9255                 2.1528

                      7                      8                      9
                      A                      A                      A
 Frequencies --    139.3368               155.1593               186.9645
 Red. masses --      4.1849                 2.3576                 1.6993
 Frc consts  --      0.0479                 0.0334                 0.0350
 IR Inten    --      4.1557                 0.4737                 1.3486

                     10                     11                     12
                      A                      A                      A
 Frequencies --    214.1287               223.7401               246.1828
 Red. masses --      1.3140                 1.2488                 1.2728
 Frc consts  --      0.0355                 0.0368                 0.0454
 IR Inten    --      5.5757                11.9850                91.0682

                     13                     14                     15
                      A                      A                      A
 Frequencies --    263.5670               269.3906               304.1168
 Red. masses --      2.2965                 2.5636                 2.3506
 Frc consts  --      0.0940                 0.1096                 0.1281
 IR Inten    --     15.9788                18.5259                 0.2578

                     16                     17                     18
                      A                      A                      A
 Frequencies --    322.2971               360.9213               388.5748
 Red. masses --      2.6990                 2.8340                 2.3863
 Frc consts  --      0.1652                 0.2175                 0.2123
 IR Inten    --      0.5754                 1.0642                 0.2504

                     19                     20                     21
                      A                      A                      A
 Frequencies --    440.2645               462.4638               482.3319
 Red. masses --      3.0113                 3.3931                 3.0548
 Frc consts  --      0.3439                 0.4276                 0.4187
 IR Inten    --      2.2474                 3.6536                 0.1825

                     22                     23                     24
                      A                      A                      A
 Frequencies --    501.9744               510.4299               542.1338
 Red. masses --      2.6634                 2.6973                 3.1649
 Frc consts  --      0.3954                 0.4140                 0.5481
 IR Inten    --      2.5956                 7.0285                 5.0980

                     25                     26                     27
                      A                      A                      A
 Frequencies --    664.6491               744.2450               778.0344
 Red. masses --      2.2658                 1.1903                 2.4727
 Frc consts  --      0.5897                 0.3884                 0.8819
 IR Inten    --      4.2024                 2.0539                 1.1884

                     28                     29                     30
                      A                      A                      A
 Frequencies --    813.2864               851.5625               856.4840
 Red. masses --      1.9964                 2.1127                 1.5760
 Frc consts  --      0.7780                 0.9026                 0.6812
 IR Inten    --      1.4182                 1.4254                 0.6465

                     31                     32                     33
                      A                      A                      A
 Frequencies --    864.1234               878.0967               909.2269
 Red. masses --      2.0298                 1.8100                 2.4028
 Frc consts  --      0.8930                 0.8222                 1.1703
 IR Inten    --     10.1314                 5.0777                13.2661

                     34                     35                     36
                      A                      A                      A
 Frequencies --    927.3602               958.1022               966.2405
 Red. masses --      2.1002                 1.5855                 6.2494
 Frc consts  --      1.0642                 0.8575                 3.4376
 IR Inten    --      2.2041                 2.4247                 3.1400

                     37                     38                     39
                      A                      A                      A
 Frequencies --    972.0632              1003.9194              1018.6697
 Red. masses --      1.6472                 1.3720                 2.2906
 Frc consts  --      0.9170                 0.8147                 1.4005
 IR Inten    --      2.0881                 0.3238                 6.9855

                     40                     41                     42
                      A                      A                      A
 Frequencies --   1034.1334              1055.2990              1060.7720
 Red. masses --      3.4813                 2.5266                 1.5886
 Frc consts  --      2.1935                 1.6578                 1.0532
 IR Inten    --     10.4786                18.8295                27.9954

                     43                     44                     45
                      A                      A                      A
 Frequencies --   1082.8710              1093.8629              1106.1880
 Red. masses --      1.7864                 1.9769                 2.4833
 Frc consts  --      1.2342                 1.3937                 1.7903
 IR Inten    --     55.2773                 6.4173                 9.6071

                     46                     47                     48
                      A                      A                      A
 Frequencies --   1130.4892              1153.9188              1166.6579
 Red. masses --      2.9767                 1.9836                 2.1192
 Frc consts  --      2.2414                 1.5562                 1.6994
 IR Inten    --     40.6342                 6.0659                35.8184

                     49                     50                     51
                      A                      A                      A
 Frequencies --   1181.4161              1209.4823              1221.2157
 Red. masses --      2.3651                 1.7091                 1.5512
 Frc consts  --      1.9450                 1.4731                 1.3630
 IR Inten    --      7.0315                 8.5316                45.7172

                     52                     53                     54
                      A                      A                      A
 Frequencies --   1235.4357              1259.0626              1289.4871
 Red. masses --      1.4900                 1.2768                 1.2523
 Frc consts  --      1.3399                 1.1925                 1.2268
 IR Inten    --      3.1249                 7.1426                10.0964

                     55                     56                     57
                      A                      A                      A
 Frequencies --   1290.6698              1327.0674              1328.7594
 Red. masses --      1.2754                 1.2806                 1.1523
 Frc consts  --      1.2517                 1.3288                 1.1987
 IR Inten    --      1.5732                 3.4981                 0.6354

                     58                     59                     60
                      A                      A                      A
 Frequencies --   1337.1617              1354.5764              1364.7911
 Red. masses --      1.2527                 1.2802                 1.3015
 Frc consts  --      1.3196                 1.3840                 1.4284
 IR Inten    --      2.0389                30.7867                 2.7208

                     61                     62                     63
                      A                      A                      A
 Frequencies --   1370.6332              1380.3081              1384.2280
 Red. masses --      1.4291                 1.2483                 1.1875
 Frc consts  --      1.5818                 1.4012                 1.3405
 IR Inten    --      2.6466                16.8928                28.4918

                     64                     65                     66
                      A                      A                      A
 Frequencies --   1387.7285              1392.8867              1397.7762
 Red. masses --      1.3375                 1.3616                 1.4573
 Frc consts  --      1.5176                 1.5564                 1.6776
 IR Inten    --      9.4943                13.8345                 5.8917

                     67                     68                     69
                      A                      A                      A
 Frequencies --   1399.3554              1404.4052              1409.0666
 Red. masses --      1.5042                 1.3564                 1.3295
 Frc consts  --      1.7354                 1.5763                 1.5553
 IR Inten    --      6.7901                 0.6174                 0.8958

                     70                     71                     72
                      A                      A                      A
 Frequencies --   1410.8037              1472.5080              1480.4987
 Red. masses --      1.3756                 1.0944                 1.0723
 Frc consts  --      1.6131                 1.3981                 1.3848
 IR Inten    --     18.3766                 0.6623                 0.4784

                     73                     74                     75
                      A                      A                      A
 Frequencies --   1481.9000              1484.4804              1485.3306
 Red. masses --      1.0683                 1.0699                 1.0523
 Frc consts  --      1.3822                 1.3891                 1.3678
 IR Inten    --      0.3374                 0.8314                 6.2320

                     76                     77                     78
                      A                      A                      A
 Frequencies --   1486.4566              1499.3399              1500.4263
 Red. masses --      1.0787                 1.0775                 1.0598
 Frc consts  --      1.4043                 1.4271                 1.4057
 IR Inten    --      8.4668                 4.5419                 0.7355

                     79                     80                     81
                      A                      A                      A
 Frequencies --   1502.9604              1510.2280              2951.7992
 Red. masses --      1.0756                 1.0951                 1.0811
 Frc consts  --      1.4315                 1.4716                 5.5497
 IR Inten    --      1.6430                 4.1787                33.9893

                     82                     83                     84
                      A                      A                      A
 Frequencies --   3004.9265              3008.3050              3017.1171
 Red. masses --      1.0795                 1.0631                 1.0705
 Frc consts  --      5.7431                 5.6686                 5.7413
 IR Inten    --      6.4936                 4.4267                19.1439

                     85                     86                     87
                      A                      A                      A
 Frequencies --   3018.4096              3021.5700              3022.6012
 Red. masses --      1.0614                 1.0669                 1.0659
 Frc consts  --      5.6974                 5.7392                 5.7376
 IR Inten    --     20.4015                16.7247                14.9228

                     88                     89                     90
                      A                      A                      A
 Frequencies --   3030.8218              3035.7137              3039.6385
 Red. masses --      1.0610                 1.0729                 1.0356
 Frc consts  --      5.7424                 5.8257                 5.6377
 IR Inten    --     27.7715                65.8594                23.5136

                     91                     92                     93
                      A                      A                      A
 Frequencies --   3043.7818              3047.1945              3063.6265
 Red. masses --      1.0747                 1.0525                 1.0946
 Frc consts  --      5.8661                 5.7578                 6.0530
 IR Inten    --      9.9721                 9.4663                40.0214

                     94                     95                     96
                      A                      A                      A
 Frequencies --   3066.6346              3069.5306              3075.9707
 Red. masses --      1.1020                 1.1001                 1.1032
 Frc consts  --      6.1059                 6.1072                 6.1502
 IR Inten    --      5.2585                45.4301                49.1374

                     97                     98                     99
                      A                      A                      A
 Frequencies --   3083.0888              3112.8847              3118.6875
 Red. masses --      1.1027                 1.1016                 1.1018
 Frc consts  --      6.1757                 6.2894                 6.3142
 IR Inten    --     81.0546                29.6979                22.4471

                    100                    101                    102
                      A                      A                      A
 Frequencies --   3118.8837              3130.4691              3762.9630
 Red. masses --      1.1004                 1.1017                 1.0686
 Frc consts  --      6.3067                 6.3609                 8.9153
 IR Inten    --     21.9519                21.2630                30.4916

 - Thermochemistry -
 -------------------
 Temperature   298.150 Kelvin.  Pressure   1.00000 Atm.
 Atom     1 has atomic number  6 and mass  12.00000

 Molecular mass:   202.15689 amu.
 Principal axes and moments of inertia in atomic units:
                           1         2         3
     Eigenvalues --  1253.495077949.396908671.94117
           X            0.99994  -0.00993  -0.00482
           Y            0.01000   0.99984   0.01450
           Z            0.00467  -0.01455   0.99988
 This molecule is an asymmetric top.
 Rotational symmetry number  1.
 Warning -- assumption of classical behavior for rotation
           may cause significant error
 Rotational temperatures (Kelvin)      0.06910     0.01090     0.00999
 Rotational constants (GHZ):           1.43977     0.22703     0.20811
 Zero-point vibrational energy     847101.2 (Joules/Mol)
                                  202.46204 (Kcal/Mol)
 Warning -- explicit consideration of  24 degrees of freedom as
           vibrations may cause significant error
 Vibrational temperatures:     28.30    53.72    83.13   128.44   146.25
          (Kelvin)            185.97   200.47   223.24   269.00   308.08
                              321.91   354.20   379.21   387.59   437.56
                              463.71   519.29   559.07   633.44   665.38
                              693.97   722.23   734.39   780.01   956.28
                             1070.80  1119.42  1170.14  1225.21  1232.29
                             1243.28  1263.39  1308.17  1334.26  1378.50
                             1390.20  1398.58  1444.42  1465.64  1487.89
                             1518.34  1526.21  1558.01  1573.82  1591.56
                             1626.52  1660.23  1678.56  1699.79  1740.18
                             1757.06  1777.52  1811.51  1855.28  1856.99
                             1909.35  1911.79  1923.88  1948.93  1963.63
                             1972.04  1985.96  1991.60  1996.63  2004.05
                             2011.09  2013.36  2020.63  2027.33  2029.83
                             2118.61  2130.11  2132.12  2135.84  2137.06
                             2138.68  2157.22  2158.78  2162.42  2172.88
                             4246.98  4323.42  4328.28  4340.96  4342.82
                             4347.37  4348.85  4360.68  4367.71  4373.36
                             4379.32  4384.23  4407.88  4412.20  4416.37
                             4425.64  4435.88  4478.75  4487.10  4487.38
                             4504.05  5414.06

 Zero-point correction=                           0.322644 (Hartree/Particle)
 Thermal correction to Energy=                    0.338894
 Thermal correction to Enthalpy=                  0.339838
 Thermal correction to Gibbs Free Energy=         0.277816
 Sum of electronic and zero-point Energies=           -657.730776
 Sum of electronic and thermal Energies=              -657.714526
 Sum of electronic and thermal Enthalpies=            -657.713582
 Sum of electronic and thermal Free Energies=         -657.775604

                     E (Thermal)             CV                S
                      KCal/Mol        Cal/Mol-Kelvin    Cal/Mol-Kelvin
 Total                  212.659             60.670            130.537
 Electronic               0.000              0.000              0.000
 Translational            0.889              2.981             41.816
 Rotational               0.889              2.981             32.824
 Vibrational            210.882             54.708             55.896
 Vibration     1          0.593              1.986              6.667
 Vibration     2          0.594              1.982              5.396
 Vibration     3          0.596              1.974              4.532
 Vibration     4          0.602              1.957              3.676
 Vibration     5          0.604              1.948              3.422
 Vibration     6          0.612              1.924              2.957
 Vibration     7          0.615              1.914              2.813
 Vibration     8          0.620              1.897              2.608
 Vibration     9          0.632              1.858              2.258
 Vibration    10          0.644              1.819              2.008
 Vibration    11          0.649              1.805              1.929
 Vibration    12          0.661              1.769              1.758
 Vibration    13          0.670              1.740              1.638
 Vibration    14          0.674              1.729              1.600
 Vibration    15          0.695              1.666              1.394
 Vibration    16          0.707              1.631              1.298
 Vibration    17          0.735              1.553              1.118
 Vibration    18          0.757              1.495              1.006
 Vibration    19          0.800              1.382              0.826
 Vibration    20          0.820              1.333              0.759
 Vibration    21          0.839              1.289              0.704
 Vibration    22          0.857              1.246              0.653
 Vibration    23          0.866              1.227              0.633
 Vibration    24          0.897              1.157              0.561

 Optimization completed.
    -- Stationary point found.
 Normal termination of Gaussian 16 at Wed May 24 12:54:30 2023.
