 Gaussian 16, Revision A.03,
 Gaussian 16:  ES64L-G16RevA.03 25-Dec-2016

 -----------------------------
 # opt freq b3lyp/6-31g(2df,p)
 -----------------------------

 -------------------
 Title Card Required
 -------------------
 Symbolic Z-matrix:
 Charge =  0 Multiplicity = 1

 SCF Done:  E(RB3LYP) =  -661.509704994     A.U. after   12 cycles
 SCF Done:  E(RB3LYP) =  -661.519489553     A.U. after   11 cycles
 SCF Done:  E(RB3LYP) =  -661.521706526     A.U. after   10 cycles
 SCF Done:  E(RB3LYP) =  -661.522497338     A.U. after   10 cycles
 SCF Done:  E(RB3LYP) =  -661.522836720     A.U. after   10 cycles
 SCF Done:  E(RB3LYP) =  -661.523207725     A.U. after   10 cycles
 SCF Done:  E(RB3LYP) =  -661.523365305     A.U. after   10 cycles
 SCF Done:  E(RB3LYP) =  -661.523339671     A.U. after   10 cycles
 SCF Done:  E(RB3LYP) =  -661.523818941     A.U. after   10 cycles
 SCF Done:  E(RB3LYP) =  -661.523815624     A.U. after    9 cycles
 SCF Done:  E(RB3LYP) =  -661.529472229     A.U. after   10 cycles
 SCF Done:  E(RB3LYP) =  -661.529591435     A.U. after   10 cycles
 SCF Done:  E(RB3LYP) =  -661.529657142     A.U. after    8 cycles
 SCF Done:  E(RB3LYP) =  -661.529734693     A.U. after    9 cycles
 SCF Done:  E(RB3LYP) =  -661.529762102     A.U. after    9 cycles
 SCF Done:  E(RB3LYP) =  -661.529773859     A.U. after    8 cycles
 SCF Done:  E(RB3LYP) =  -661.529778337     A.U. after    7 cycles
 SCF Done:  E(RB3LYP) =  -661.529779214     A.U. after    7 cycles
 SCF Done:  E(RB3LYP) =  -661.529779400     A.U. after    6 cycles
 Optimization completed.
    -- Stationary point found.
 Normal termination of Gaussian 16 at Tue May 23 15:11:12 2023.

 ----------------------------------------------------------------------
 #N Geom=AllCheck Guess=TCheck SCRF=Check GenChk RB3LYP/6-31G(2df,p) Fr
 eq
 ----------------------------------------------------------------------

 Structure from the checkpoint file:  "CCqCCCCOrC1CCCCCCO1.chk"
 -------------------
 Title Card Required
 -------------------
 Charge =  0 Multiplicity = 1

                         Standard orientation:
 ---------------------------------------------------------------------
 Center     Atomic      Atomic             Coordinates (Angstroms)
 Number     Number       Type             X           Y           Z
 ---------------------------------------------------------------------
      1          6           0       -0.407978   -2.419792    0.849393
      2          6           0       -0.261134   -1.185104   -0.053818
      3          6           0       -1.355541   -0.137218    0.220775
      4          6           0       -2.783759   -0.591567   -0.108200
      5          6           0       -3.817726    0.527230    0.064166
      6          6           0       -5.245027    0.078949   -0.250226
      7          8           0       -6.195318    1.128290   -0.144763
      8          6           0        1.151977   -0.569428    0.075841
      9          6           0        2.263947   -1.575722   -0.291189
     10          6           0        3.585241   -0.969140   -0.789260
     11          6           0        4.356967   -0.055141    0.183906
     12          6           0        4.048728    1.454168    0.128881
     13          6           0        2.718431    1.915495    0.745611
     14          6           0        1.484290    1.816181   -0.158764
     15          8           0        1.263145    0.564095   -0.784894
     16          1           0       -1.399053   -2.869916    0.748840
     17          1           0       -0.273638   -2.150055    1.904586
     18          1           0        0.323867   -3.194399    0.607481
     19          1           0       -0.363131   -1.504704   -1.101493
     20          1           0       -1.131377    0.751772   -0.377026
     21          1           0       -1.308270    0.171262    1.275909
     22          1           0       -3.070288   -1.442040    0.523095
     23          1           0       -2.816008   -0.956553   -1.144347
     24          1           0       -3.568204    1.377596   -0.582274
     25          1           0       -3.781341    0.902173    1.098209
     26          1           0       -5.520064   -0.774495    0.391944
     27          1           0       -5.308139   -0.270191   -1.287122
     28          1           0       -6.179109    1.445537    0.763776
     29          1           0        1.283213   -0.250218    1.119062
     30          1           0        1.887734   -2.238189   -1.081948
     31          1           0        2.462577   -2.217637    0.575509
     32          1           0        3.398037   -0.425751   -1.720780
     33          1           0        4.233823   -1.813861   -1.051473
     34          1           0        5.425951   -0.165955   -0.034423
     35          1           0        4.231013   -0.413381    1.215866
     36          1           0        4.110063    1.796798   -0.913024
     37          1           0        4.856799    1.969172    0.662526
     38          1           0        2.795428    2.974830    1.023704
     39          1           0        2.551405    1.380516    1.689166
     40          1           0        1.589162    2.523391   -0.989794
     41          1           0        0.596433    2.121749    0.418602
 ---------------------------------------------------------------------

 SCF Done:  E(RB3LYP) =  -661.529779400     A.U. after    1 cycles

 The electronic state is 1-A.
 Alpha  occ. eigenvalues --  -19.12928 -19.12768 -10.22254 -10.22227 -10.21994
 Alpha  occ. eigenvalues --  -10.18083 -10.17849 -10.17806 -10.17681 -10.17612
 Alpha  occ. eigenvalues --  -10.17466 -10.17243 -10.17208 -10.17159 -10.17038
 Alpha  occ. eigenvalues --   -1.02132  -1.00844  -0.81422  -0.79644  -0.78449
 Alpha  occ. eigenvalues --   -0.75717  -0.70780  -0.69408  -0.68478  -0.63950
 Alpha  occ. eigenvalues --   -0.60461  -0.59006  -0.58314  -0.56263  -0.53595
 Alpha  occ. eigenvalues --   -0.49919  -0.49066  -0.47480  -0.46346  -0.45782
 Alpha  occ. eigenvalues --   -0.44475  -0.43511  -0.43006  -0.42028  -0.41579
 Alpha  occ. eigenvalues --   -0.40404  -0.40047  -0.38776  -0.37460  -0.36997
 Alpha  occ. eigenvalues --   -0.36210  -0.36158  -0.34396  -0.34061  -0.34026
 Alpha  occ. eigenvalues --   -0.32899  -0.32215  -0.31990  -0.31508  -0.31270
 Alpha  occ. eigenvalues --   -0.30547  -0.29959  -0.28754  -0.25948  -0.24095
 Alpha virt. eigenvalues --    0.07890   0.08096   0.08980   0.09592   0.10398
 Alpha virt. eigenvalues --    0.11618   0.11683   0.12633   0.13381   0.13988
 Alpha virt. eigenvalues --    0.14574   0.14833   0.15058   0.15965   0.16180

 Mulliken charges:
               1
     1  C   -0.406317
     2  C    0.012212
     3  C   -0.193188
     4  C   -0.196723
     5  C   -0.197328
     6  C   -0.057334
     7  O   -0.419564
     8  C    0.121291
     9  C   -0.218657
    10  C   -0.188642
    11  C   -0.184114
    12  C   -0.172126
    13  C   -0.210812
    14  C   -0.065763
    15  O   -0.261145
    16  H    0.116424
    17  H    0.108367
    18  H    0.118519
    19  H    0.074258
    20  H    0.113397
    21  H    0.079700
    22  H    0.095114
    23  H    0.097002
    24  H    0.105667
    25  H    0.080996
    26  H    0.082096
    27  H    0.109927
    28  H    0.278181
    29  H    0.063298
    30  H    0.093744
    31  H    0.095650
    32  H    0.106436
    33  H    0.084136
    34  H    0.091658
    35  H    0.084415
    36  H    0.094836
    37  H    0.090145
    38  H    0.092845
    39  H    0.098039
    40  H    0.101821
    41  H    0.081541
 Sum of Mulliken charges =  -0.00000

 Dipole moment (field-independent basis, Debye):
    X=              1.4222    Y=             -0.2441    Z=              2.0188  Tot=              2.4815
 Quadrupole moment (field-independent basis, Debye-Ang):
   XX=           -106.7600   YY=            -94.0234   ZZ=            -94.9484
   XY=              3.8181   XZ=             -6.3946   YZ=              2.6862

  Exact polarizability: 176.551  -0.321 146.671  -1.494   2.149 122.616
 Approx polarizability: 202.553  -1.257 206.849  -0.846   1.483 203.122

                      1                      2                      3
                      A                      A                      A
 Frequencies --     28.6504                43.8957                47.2002
 Red. masses --      3.6841                 1.8563                 3.8539
 Frc consts  --      0.0018                 0.0021                 0.0051
 IR Inten    --      0.0582                 1.6088                 0.7741

                      4                      5                      6
                      A                      A                      A
 Frequencies --     66.5276                79.5495               126.5708
 Red. masses --      2.8408                 3.1034                 3.1809
 Frc consts  --      0.0074                 0.0116                 0.0300
 IR Inten    --      0.3126                 0.5517                 0.2393

                      7                      8                      9
                      A                      A                      A
 Frequencies --    128.1410               145.1301               158.1153
 Red. masses --      2.0440                 2.2473                 2.4657
 Frc consts  --      0.0198                 0.0279                 0.0363
 IR Inten    --      3.0469                 1.5943                 0.6422

                     10                     11                     12
                      A                      A                      A
 Frequencies --    183.9598               210.1449               231.4748
 Red. masses --      1.7259                 3.9842                 1.6082
 Frc consts  --      0.0344                 0.1037                 0.0508
 IR Inten    --      0.3753                 0.3187                 0.8941

                     13                     14                     15
                      A                      A                      A
 Frequencies --    241.6233               266.8708               304.0022
 Red. masses --      4.5704                 2.0136                 1.2369
 Frc consts  --      0.1572                 0.0845                 0.0673
 IR Inten    --      1.9357                 4.3049                86.1598

                     16                     17                     18
                      A                      A                      A
 Frequencies --    315.4367               333.8000               337.2444
 Red. masses --      2.0136                 1.8454                 2.9166
 Frc consts  --      0.1180                 0.1211                 0.1954
 IR Inten    --     27.3797                 0.2084                 1.0160

                     19                     20                     21
                      A                      A                      A
 Frequencies --    380.0045               416.4782               439.6967
 Red. masses --      2.4910                 2.6505                 2.2139
 Frc consts  --      0.2119                 0.2709                 0.2522
 IR Inten    --      2.1761                 3.0991                 0.8281

                     22                     23                     24
                      A                      A                      A
 Frequencies --    453.3094               467.9953               513.2009
 Red. masses --      2.5739                 3.2365                 2.2924
 Frc consts  --      0.3116                 0.4176                 0.3557
 IR Inten    --      6.6848                 3.9165                 7.2690

                     25                     26                     27
                      A                      A                      A
 Frequencies --    554.8585               570.8409               735.0349
 Red. masses --      2.4794                 3.0018                 2.4789
 Frc consts  --      0.4497                 0.5763                 0.7891
 IR Inten    --      0.0675                 1.8459                 1.8582

                     28                     29                     30
                      A                      A                      A
 Frequencies --    742.7939               771.9035               788.4774
 Red. masses --      1.0908                 1.5224                 1.2082
 Frc consts  --      0.3546                 0.5345                 0.4426
 IR Inten    --      3.1608                 0.9156                 0.4564

                     31                     32                     33
                      A                      A                      A
 Frequencies --    807.5362               850.9827               869.8053
 Red. masses --      1.7810                 2.4483                 2.2872
 Frc consts  --      0.6843                 1.0446                 1.0195
 IR Inten    --      1.0977                 0.0939                 1.1218

                     34                     35                     36
                      A                      A                      A
 Frequencies --    887.4698               904.8899               922.3687
 Red. masses --      2.0770                 1.2523                 1.5281
 Frc consts  --      0.9638                 0.6042                 0.7660
 IR Inten    --      2.6159                 5.0294                 6.1465

                     37                     38                     39
                      A                      A                      A
 Frequencies --    943.9395               960.0315               980.4987
 Red. masses --      2.2640                 1.7740                 2.2824
 Frc consts  --      1.1885                 0.9633                 1.2928
 IR Inten    --      7.3804                 9.1177                 9.9678

                     40                     41                     42
                      A                      A                      A
 Frequencies --   1000.0402              1021.7003              1029.1751
 Red. masses --      2.3875                 1.6914                 1.8120
 Frc consts  --      1.4068                 1.0402                 1.1308
 IR Inten    --     19.2399                 1.1458                 3.2423

                     43                     44                     45
                      A                      A                      A
 Frequencies --   1033.1806              1044.5145              1063.6887
 Red. masses --      2.6195                 2.9460                 2.4093
 Frc consts  --      1.6475                 1.8937                 1.6061
 IR Inten    --      5.3535                 5.2468                 9.3488

                     46                     47                     48
                      A                      A                      A
 Frequencies --   1080.0217              1093.0095              1099.4917
 Red. masses --      3.8519                 2.2976                 2.2303
 Frc consts  --      2.6472                 1.6173                 1.5885
 IR Inten    --    116.1104                10.6176                 4.0266

                     49                     50                     51
                      A                      A                      A
 Frequencies --   1123.0377              1132.7394              1139.6680
 Red. masses --      1.9866                 3.2951                 1.6107
 Frc consts  --      1.4762                 2.4911                 1.2326
 IR Inten    --      4.2916               127.0641                 7.0901

                     52                     53                     54
                      A                      A                      A
 Frequencies --   1146.0539              1174.6793              1187.3382
 Red. masses --      2.6536                 2.0633                 1.7928
 Frc consts  --      2.0535                 1.6774                 1.4892
 IR Inten    --     10.3485                 7.8568                 1.1848

                     55                     56                     57
                      A                      A                      A
 Frequencies --   1197.9159              1235.7905              1244.7212
 Red. masses --      1.4802                 1.2319                 1.2391
 Frc consts  --      1.2515                 1.1084                 1.1311
 IR Inten    --      7.0914                 2.9036                12.2634

                     58                     59                     60
                      A                      A                      A
 Frequencies --   1264.0338              1275.5921              1285.7247
 Red. masses --      1.3671                 1.2793                 1.2956
 Frc consts  --      1.2870                 1.2265                 1.2619
 IR Inten    --      5.4126                 4.6089                 8.0493

                     61                     62                     63
                      A                      A                      A
 Frequencies --   1297.5963              1307.1703              1318.5856
 Red. masses --      1.2028                 1.1868                 1.1535
 Frc consts  --      1.1932                 1.1948                 1.1816
 IR Inten    --      0.6082                 1.8452                 1.9412

                     64                     65                     66
                      A                      A                      A
 Frequencies --   1327.5371              1330.6551              1338.4228
 Red. masses --      1.1061                 1.1590                 1.2618
 Frc consts  --      1.1485                 1.2091                 1.3318
 IR Inten    --      1.1567                 0.8354                 3.5605

                     67                     68                     69
                      A                      A                      A
 Frequencies --   1353.6702              1372.0063              1377.1053
 Red. masses --      1.2664                 1.3215                 1.4222
 Frc consts  --      1.3672                 1.4657                 1.5891
 IR Inten    --      6.7656                 0.1780                 4.4953

                     70                     71                     72
                      A                      A                      A
 Frequencies --   1379.6884              1385.2252              1391.6295
 Red. masses --      1.3224                 1.4138                 1.4230
 Frc consts  --      1.4831                 1.5984                 1.6237
 IR Inten    --      3.0404                 1.1529                 3.6102

                     73                     74                     75
                      A                      A                      A
 Frequencies --   1392.3776              1400.0079              1402.4151
 Red. masses --      1.4182                 1.3818                 1.3661
 Frc consts  --      1.6199                 1.5957                 1.5830
 IR Inten    --      7.8290                 1.8174                 3.2491

                     76                     77                     78
                      A                      A                      A
 Frequencies --   1409.6186              1412.6337              1424.3698
 Red. masses --      1.2524                 1.2254                 1.2938
 Frc consts  --      1.4662                 1.4407                 1.5465
 IR Inten    --     12.1257                 9.9146                50.7978

                     79                     80                     81
                      A                      A                      A
 Frequencies --   1425.2070              1476.3835              1480.7083
 Red. masses --      1.2810                 1.0836                 1.0921
 Frc consts  --      1.5330                 1.3916                 1.4108
 IR Inten    --      5.1367                 1.7595                 0.5396

                     82                     83                     84
                      A                      A                      A
 Frequencies --   1482.5419              1483.5739              1487.0984
 Red. masses --      1.0790                 1.0849                 1.0846
 Frc consts  --      1.3973                 1.4069                 1.4132
 IR Inten    --      0.9132                 4.3682                 0.6010

                     85                     86                     87
                      A                      A                      A
 Frequencies --   1490.9446              1491.3223              1498.9852
 Red. masses --      1.0832                 1.0908                 1.0633
 Frc consts  --      1.4187                 1.4294                 1.4076
 IR Inten    --      9.4537                 3.2101                 0.7971

                     88                     89                     90
                      A                      A                      A
 Frequencies --   1500.3408              1504.3684              1510.2516
 Red. masses --      1.0928                 1.0847                 1.0519
 Frc consts  --      1.4494                 1.4463                 1.4136
 IR Inten    --      1.6758                 0.8465                 6.5476

                     91                     92                     93
                      A                      A                      A
 Frequencies --   1517.9780              2964.0696              2969.4065
 Red. masses --      1.0957                 1.0711                 1.0689
 Frc consts  --      1.4875                 5.5443                 5.5531
 IR Inten    --      1.1387                53.6192                56.8639

                     94                     95                     96
                      A                      A                      A
 Frequencies --   2991.3499              2995.2624              2996.3396
 Red. masses --      1.0751                 1.0710                 1.0688
 Frc consts  --      5.6683                 5.6614                 5.6534
 IR Inten    --      1.5824                 3.6763                10.7334

                     97                     98                     99
                      A                      A                      A
 Frequencies --   3003.5426              3006.4089              3010.6994
 Red. masses --      1.0646                 1.0745                 1.0637
 Frc consts  --      5.6586                 5.7220                 5.6805
 IR Inten    --     15.6525                 9.3473                23.7289

                    100                    101                    102
                      A                      A                      A
 Frequencies --   3012.5007              3015.1346              3021.0571
 Red. masses --      1.0618                 1.0655                 1.0657
 Frc consts  --      5.6774                 5.7072                 5.7308
 IR Inten    --      2.4427                57.4389                47.6818

                    103                    104                    105
                      A                      A                      A
 Frequencies --   3028.2595              3029.8808              3040.3320
 Red. masses --      1.0679                 1.0477                 1.0909
 Frc consts  --      5.7698                 5.6670                 5.9414
 IR Inten    --     32.9061                21.6191                10.2852

                    106                    107                    108
                      A                      A                      A
 Frequencies --   3043.0528              3050.5730              3052.8285
 Red. masses --      1.0959                 1.0933                 1.0966
 Frc consts  --      5.9792                 5.9945                 6.0216
 IR Inten    --     18.8367                44.1314                59.6920

                    109                    110                    111
                      A                      A                      A
 Frequencies --   3054.1114              3055.8117              3065.1178
 Red. masses --      1.0907                 1.0993                 1.0967
 Frc consts  --      5.9940                 6.0481                 6.0707
 IR Inten    --     11.1381                21.8299                82.6254

                    112                    113                    114
                      A                      A                      A
 Frequencies --   3071.0034              3082.3055              3084.1601
 Red. masses --      1.0973                 1.0967                 1.0962
 Frc consts  --      6.0973                 6.1390                 6.1433
 IR Inten    --     44.0720                23.7755                89.6257

                    115                    116                    117
                      A                      A                      A
 Frequencies --   3100.2738              3119.0407              3814.1207
 Red. masses --      1.0929                 1.1002                 1.0661
 Frc consts  --      6.1891                 6.3062                 9.1374
 IR Inten    --     31.6984                33.5597                14.1085

 - Thermochemistry -
 -------------------
 Temperature   298.150 Kelvin.  Pressure   1.00000 Atm.
 Atom     1 has atomic number  6 and mass  12.00000

 Molecular mass:   214.19328 amu.
 Principal axes and moments of inertia in atomic units:
                           1         2         3
     Eigenvalues --  1485.748598543.710609569.62263
           X            0.99999   0.00542  -0.00079
           Y           -0.00541   0.99997   0.00503
           Z            0.00082  -0.00503   0.99999
 This molecule is an asymmetric top.
 Rotational symmetry number  1.
 Warning -- assumption of classical behavior for rotation
           may cause significant error
 Rotational temperatures (Kelvin)      0.05830     0.01014     0.00905
 Rotational constants (GHZ):           1.21470     0.21124     0.18859
 Zero-point vibrational energy     991283.3 (Joules/Mol)
                                  236.92240 (Kcal/Mol)
 Warning -- explicit consideration of  26 degrees of freedom as
           vibrations may cause significant error
 Vibrational temperatures:     41.22    63.16    67.91    95.72   114.45
          (Kelvin)            182.11   184.37   208.81   227.49   264.68
                              302.35   333.04   347.64   383.97   437.39
                              453.84   480.26   485.22   546.74   599.22
                              632.63   652.21   673.34   738.38   798.32
                              821.31  1057.55  1068.71  1110.60  1134.44
                             1161.86  1224.37  1251.46  1276.87  1301.93
                             1327.08  1358.12  1381.27  1410.72  1438.83
                             1470.00  1480.75  1486.52  1502.82  1530.41
                             1553.91  1572.60  1581.92  1615.80  1629.76
                             1639.73  1648.92  1690.10  1708.31  1723.53
                             1778.03  1790.88  1818.66  1835.29  1849.87
                             1866.95  1880.73  1897.15  1910.03  1914.52
                             1925.69  1947.63  1974.01  1981.35  1985.06
                             1993.03  2002.24  2003.32  2014.30  2017.76
                             2028.13  2032.46  2049.35  2050.55  2124.19
                             2130.41  2133.05  2134.53  2139.60  2145.14
                             2145.68  2156.71  2158.66  2164.45  2172.92
                             2184.03  4264.64  4272.31  4303.89  4309.51
                             4311.06  4321.43  4325.55  4331.72  4334.32
                             4338.11  4346.63  4356.99  4359.32  4374.36
                             4378.27  4389.09  4392.34  4394.19  4396.63
                             4410.02  4418.49  4434.75  4437.42  4460.60
                             4487.60  5487.67

 Zero-point correction=                           0.377560 (Hartree/Particle)
 Thermal correction to Energy=                    0.394901
 Thermal correction to Enthalpy=                  0.395845
 Thermal correction to Gibbs Free Energy=         0.331583
 Sum of electronic and zero-point Energies=           -661.152220
 Sum of electronic and thermal Energies=              -661.134879
 Sum of electronic and thermal Enthalpies=            -661.133935
 Sum of electronic and thermal Free Energies=         -661.198197

                     E (Thermal)             CV                S
                      KCal/Mol        Cal/Mol-Kelvin    Cal/Mol-Kelvin
 Total                  247.804             65.406            135.251
 Electronic               0.000              0.000              0.000
 Translational            0.889              2.981             41.989
 Rotational               0.889              2.981             33.163
 Vibrational            246.026             59.444             60.100
 Vibration     1          0.593              1.984              5.921
 Vibration     2          0.595              1.980              5.075
 Vibration     3          0.595              1.979              4.931
 Vibration     4          0.598              1.970              4.254
 Vibration     5          0.600              1.963              3.902
 Vibration     6          0.611              1.927              2.998
 Vibration     7          0.611              1.925              2.974
 Vibration     8          0.617              1.908              2.735
 Vibration     9          0.621              1.894              2.572
 Vibration    10          0.631              1.862              2.288
 Vibration    11          0.642              1.825              2.042
 Vibration    12          0.653              1.793              1.867
 Vibration    13          0.658              1.777              1.791
 Vibration    14          0.672              1.734              1.616
 Vibration    15          0.695              1.666              1.395
 Vibration    16          0.703              1.644              1.334
 Vibration    17          0.715              1.608              1.242
 Vibration    18          0.718              1.601              1.225
 Vibration    19          0.750              1.513              1.039
 Vibration    20          0.780              1.434              0.904
 Vibration    21          0.800              1.384              0.828
 Vibration    22          0.812              1.354              0.786
 Vibration    23          0.825              1.321              0.743
 Vibration    24          0.868              1.221              0.626
 Vibration    25          0.910              1.129              0.534
 Vibration    26          0.927              1.094              0.503

 Optimization completed.
    -- Stationary point found.
 Normal termination of Gaussian 16 at Tue May 23 19:03:55 2023.
