 Gaussian 16, Revision A.03,
 Gaussian 16:  ES64L-G16RevA.03 25-Dec-2016

 -----------------------------
 # opt freq b3lyp/6-31g(2df,p)
 -----------------------------

 -------------------
 Title Card Required
 -------------------
 Symbolic Z-matrix:
 Charge =  0 Multiplicity = 1

 SCF Done:  E(RB3LYP) =  -355.039928654     A.U. after   12 cycles
 SCF Done:  E(RB3LYP) =  -355.040633364     A.U. after   10 cycles
 SCF Done:  E(RB3LYP) =  -355.043784251     A.U. after   10 cycles
 SCF Done:  E(RB3LYP) =  -355.045102131     A.U. after   10 cycles
 SCF Done:  E(RB3LYP) =  -355.045613286     A.U. after   10 cycles
 SCF Done:  E(RB3LYP) =  -355.046498684     A.U. after    9 cycles
 SCF Done:  E(RB3LYP) =  -355.047442236     A.U. after   10 cycles
 SCF Done:  E(RB3LYP) =  -355.047768974     A.U. after    8 cycles
 SCF Done:  E(RB3LYP) =  -355.047767858     A.U. after    9 cycles
 SCF Done:  E(RB3LYP) =  -355.047852068     A.U. after    8 cycles
 SCF Done:  E(RB3LYP) =  -355.047861375     A.U. after    8 cycles
 SCF Done:  E(RB3LYP) =  -355.047862673     A.U. after    7 cycles
 SCF Done:  E(RB3LYP) =  -355.047863050     A.U. after    6 cycles
 SCF Done:  E(RB3LYP) =  -355.047863369     A.U. after    8 cycles
 SCF Done:  E(RB3LYP) =  -355.047863409     A.U. after    5 cycles
 Optimization completed.
    -- Stationary point found.
 Normal termination of Gaussian 16 at Sun May 28 16:02:26 2023.

 ----------------------------------------------------------------------
 #N Geom=AllCheck Guess=TCheck SCRF=Check GenChk RB3LYP/6-31G(2df,p) Fr
 eq
 ----------------------------------------------------------------------

 Structure from the checkpoint file:  "CCqCrCCqCrCqCrC.chk"
 -------------------
 Title Card Required
 -------------------
 Charge =  0 Multiplicity = 1

                         Standard orientation:
 ---------------------------------------------------------------------
 Center     Atomic      Atomic             Coordinates (Angstroms)
 Number     Number       Type             X           Y           Z
 ---------------------------------------------------------------------
      1          6           0       -2.841515   -1.307693   -0.489695
      2          6           0       -2.000518   -0.040340   -0.273545
      3          6           0       -2.790673    0.975278    0.566294
      4          6           0       -0.623307   -0.386992    0.355823
      5          6           0        0.603400    0.305363   -0.280403
      6          6           0        0.477456    1.836423   -0.221490
      7          6           0        1.935520   -0.186758    0.351497
      8          6           0        2.117851   -1.710744    0.245936
      9          6           0        3.165852    0.504719   -0.260868
     10          1           0       -3.810524   -1.071704   -0.942983
     11          1           0       -3.036511   -1.814455    0.463314
     12          1           0       -2.328337   -2.019790   -1.144706
     13          1           0       -1.821702    0.403345   -1.262936
     14          1           0       -3.039774    0.550296    1.546280
     15          1           0       -3.731619    1.248579    0.076240
     16          1           0       -2.224973    1.894410    0.741812
     17          1           0       -0.482241   -1.468924    0.286143
     18          1           0       -0.644917   -0.156833    1.430840
     19          1           0        0.625881    0.014462   -1.343221
     20          1           0        0.505867    2.193550    0.815608
     21          1           0       -0.462822    2.175810   -0.663186
     22          1           0        1.282061    2.334069   -0.767621
     23          1           0        1.904660    0.074401    1.420518
     24          1           0        2.066117   -2.039927   -0.799381
     25          1           0        1.366222   -2.268145    0.809512
     26          1           0        3.098347   -2.005890    0.633799
     27          1           0        3.204515    0.347998   -1.346128
     28          1           0        4.087151    0.091610    0.162676
     29          1           0        3.178196    1.581610   -0.077877
 ---------------------------------------------------------------------

 SCF Done:  E(RB3LYP) =  -355.047863409     A.U. after    1 cycles

 The electronic state is 1-A.
 Alpha  occ. eigenvalues --  -10.18124 -10.18111 -10.18002 -10.16787 -10.16689
 Alpha  occ. eigenvalues --  -10.16658 -10.16647 -10.16617 -10.16574  -0.81941
 Alpha  occ. eigenvalues --   -0.78587  -0.73247  -0.68531  -0.67518  -0.66121
 Alpha  occ. eigenvalues --   -0.60608  -0.55343  -0.54466  -0.46059  -0.44858
 Alpha  occ. eigenvalues --   -0.44413  -0.42805  -0.41999  -0.40302  -0.39778
 Alpha  occ. eigenvalues --   -0.38026  -0.37622  -0.36820  -0.36265  -0.35118
 Alpha  occ. eigenvalues --   -0.34092  -0.33542  -0.32284  -0.31665  -0.30809
 Alpha  occ. eigenvalues --   -0.29838  -0.29036
 Alpha virt. eigenvalues --    0.08175   0.09977   0.11157   0.11821   0.13771
 Alpha virt. eigenvalues --    0.14037   0.14946   0.15143   0.15405   0.15916
 Alpha virt. eigenvalues --    0.16565   0.17387   0.18111   0.18648   0.18927

 Mulliken charges:
               1
     1  C   -0.392826
     2  C    0.053827
     3  C   -0.385053
     4  C   -0.202668
     5  C    0.046673
     6  C   -0.403588
     7  C    0.051241
     8  C   -0.396131
     9  C   -0.398521
    10  H    0.105726
    11  H    0.110786
    12  H    0.107989
    13  H    0.070187
    14  H    0.109723
    15  H    0.106169
    16  H    0.112896
    17  H    0.091498
    18  H    0.084252
    19  H    0.063044
    20  H    0.107839
    21  H    0.116488
    22  H    0.112174
    23  H    0.066940
    24  H    0.108861
    25  H    0.116211
    26  H    0.106396
    27  H    0.108901
    28  H    0.107109
    29  H    0.113856
 Sum of Mulliken charges =  -0.00000

 Dipole moment (field-independent basis, Debye):
    X=              0.0659    Y=             -0.0008    Z=             -0.0287  Tot=              0.0719
 Quadrupole moment (field-independent basis, Debye-Ang):
   XX=            -62.1775   YY=            -62.2283   ZZ=            -60.8655
   XY=             -0.0840   XZ=              0.3861   YZ=             -0.1281

  Exact polarizability: 115.862  -0.303  98.179  -0.060   0.198  85.599
 Approx polarizability: 139.592  -0.736 135.237   0.533   0.052 136.180

                      1                      2                      3
                      A                      A                      A
 Frequencies --     36.8012                48.6454                73.3913
 Red. masses --      2.3285                 2.4540                 2.6068
 Frc consts  --      0.0019                 0.0034                 0.0083
 IR Inten    --      0.0030                 0.0073                 0.0069

                      4                      5                      6
                      A                      A                      A
 Frequencies --    146.4626               203.8430               219.4099
 Red. masses --      2.4273                 1.3011                 1.1360
 Frc consts  --      0.0307                 0.0319                 0.0322
 IR Inten    --      0.0119                 0.0098                 0.1272

                      7                      8                      9
                      A                      A                      A
 Frequencies --    229.9319               238.8311               266.3208
 Red. masses --      1.1015                 1.2047                 1.1708
 Frc consts  --      0.0343                 0.0405                 0.0489
 IR Inten    --      0.0078                 0.0482                 0.0088

                     10                     11                     12
                      A                      A                      A
 Frequencies --    278.0555               320.2569               356.2054
 Red. masses --      1.8899                 2.2368                 1.8760
 Frc consts  --      0.0861                 0.1352                 0.1402
 IR Inten    --      0.0011                 0.1791                 0.1461

                     13                     14                     15
                      A                      A                      A
 Frequencies --    370.3108               404.6567               407.3470
 Red. masses --      1.9631                 2.0369                 1.9763
 Frc consts  --      0.1586                 0.1965                 0.1932
 IR Inten    --      0.0422                 0.0650                 0.0413

                     16                     17                     18
                      A                      A                      A
 Frequencies --    440.6418               466.5750               520.8467
 Red. masses --      2.4345                 2.3565                 2.1563
 Frc consts  --      0.2785                 0.3022                 0.3447
 IR Inten    --      0.0809                 0.0151                 0.1139

                     19                     20                     21
                      A                      A                      A
 Frequencies --    782.6352               830.1553               866.0449
 Red. masses --      2.3182                 2.5610                 1.6368
 Frc consts  --      0.8366                 1.0399                 0.7233
 IR Inten    --      0.2434                 0.6829                 0.7746

                     22                     23                     24
                      A                      A                      A
 Frequencies --    880.4581               926.1548               927.5622
 Red. masses --      1.9987                 1.1808                 1.2040
 Frc consts  --      0.9129                 0.5967                 0.6103
 IR Inten    --      0.7355                 1.0586                 0.5840

                     25                     26                     27
                      A                      A                      A
 Frequencies --    936.6595               964.7615               966.4381
 Red. masses --      1.8796                 1.5425                 1.4635
 Frc consts  --      0.9716                 0.8459                 0.8054
 IR Inten    --      0.2774                 0.1119                 0.0956

                     28                     29                     30
                      A                      A                      A
 Frequencies --    970.5240               992.8419              1051.0474
 Red. masses --      1.6476                 1.3287                 2.0030
 Frc consts  --      0.9144                 0.7717                 1.3037
 IR Inten    --      1.2681                 6.6143                 0.4975

                     31                     32                     33
                      A                      A                      A
 Frequencies --   1081.0776              1107.5581              1165.6082
 Red. masses --      1.9444                 1.8044                 2.0790
 Frc consts  --      1.3389                 1.3041                 1.6642
 IR Inten    --      1.7600                 1.4625                 6.1355

                     34                     35                     36
                      A                      A                      A
 Frequencies --   1178.4575              1187.7396              1190.3902
 Red. masses --      2.0890                 1.7089                 1.9511
 Frc consts  --      1.7093                 1.4204                 1.6290
 IR Inten    --      1.4945                 0.4713                 4.1935

                     37                     38                     39
                      A                      A                      A
 Frequencies --   1201.6761              1257.2217              1301.7782
 Red. masses --      2.0898                 1.3712                 1.2092
 Frc consts  --      1.7780                 1.2770                 1.2073
 IR Inten    --      1.5128                 9.0388                 0.7526

                     40                     41                     42
                      A                      A                      A
 Frequencies --   1330.4408              1344.3195              1355.0042
 Red. masses --      1.2976                 1.2971                 1.4354
 Frc consts  --      1.3532                 1.3811                 1.5527
 IR Inten    --      3.5652                 4.4214                 1.6722

                     43                     44                     45
                      A                      A                      A
 Frequencies --   1366.1287              1376.4520              1384.4090
 Red. masses --      1.3459                 1.3805                 1.3621
 Frc consts  --      1.4800                 1.5410                 1.5382
 IR Inten    --      0.1588                 4.1249                 1.3925

                     46                     47                     48
                      A                      A                      A
 Frequencies --   1399.0536              1402.4497              1410.4267
 Red. masses --      1.2467                 1.2762                 1.2421
 Frc consts  --      1.4377                 1.4789                 1.4558
 IR Inten    --      1.8715                 3.3215                 8.1925

                     49                     50                     51
                      A                      A                      A
 Frequencies --   1422.1738              1422.6085              1482.5787
 Red. masses --      1.2353                 1.2142                 1.0636
 Frc consts  --      1.4720                 1.4479                 1.3773
 IR Inten    --      1.6443                 3.0959                 1.1248

                     52                     53                     54
                      A                      A                      A
 Frequencies --   1487.6514              1488.6876              1491.4420
 Red. masses --      1.0458                 1.0522                 1.0481
 Frc consts  --      1.3637                 1.3739                 1.3737
 IR Inten    --      0.2033                 0.8026                 2.0260

                     55                     56                     57
                      A                      A                      A
 Frequencies --   1497.8481              1498.7104              1504.4932
 Red. masses --      1.0593                 1.0523                 1.0547
 Frc consts  --      1.4002                 1.3925                 1.4066
 IR Inten    --      4.2119                 0.2756                 0.4156

                     58                     59                     60
                      A                      A                      A
 Frequencies --   1506.8741              1509.6872              1512.8497
 Red. masses --      1.0574                 1.0446                 1.0479
 Frc consts  --      1.4146                 1.4027                 1.4130
 IR Inten    --      2.8779                15.3644                 4.1600

                     61                     62                     63
                      A                      A                      A
 Frequencies --   1525.6533              2969.4804              2988.3342
 Red. masses --      1.0473                 1.0795                 1.0826
 Frc consts  --      1.4362                 5.6085                 5.6959
 IR Inten    --      4.4775                 3.7062                19.9275

                     64                     65                     66
                      A                      A                      A
 Frequencies --   2999.4065              3009.9826              3019.7257
 Red. masses --      1.0798                 1.0708                 1.0356
 Frc consts  --      5.7233                 5.7161                 5.5641
 IR Inten    --      4.5775                39.4923                24.9076

                     67                     68                     69
                      A                      A                      A
 Frequencies --   3024.4385              3026.7573              3029.7224
 Red. masses --      1.0390                 1.0384                 1.0397
 Frc consts  --      5.5998                 5.6050                 5.6227
 IR Inten    --     18.2091                28.9217                53.0700

                     70                     71                     72
                      A                      A                      A
 Frequencies --   3031.3162              3076.9780              3083.7137
 Red. masses --      1.0435                 1.0938                 1.1002
 Frc consts  --      5.6494                 6.1017                 6.1642
 IR Inten    --     12.2353                23.6740                 0.4973

                     73                     74                     75
                      A                      A                      A
 Frequencies --   3085.2288              3090.2689              3092.6832
 Red. masses --      1.0997                 1.1001                 1.0986
 Frc consts  --      6.1672                 6.1900                 6.1909
 IR Inten    --      0.1607                57.2736                74.0048

                     76                     77                     78
                      A                      A                      A
 Frequencies --   3094.8309              3102.4553              3108.5662
 Red. masses --      1.1010                 1.0938                 1.1001
 Frc consts  --      6.2134                 6.2027                 6.2631
 IR Inten    --     44.8741                32.7986                47.7471

                     79                     80                     81
                      A                      A                      A
 Frequencies --   3113.5029              3116.9375              3123.6462
 Red. masses --      1.0984                 1.0972                 1.0980
 Frc consts  --      6.2736                 6.2806                 6.3123
 IR Inten    --     39.1262                36.3564                20.2329

 - Thermochemistry -
 -------------------
 Temperature   298.150 Kelvin.  Pressure   1.00000 Atm.
 Atom     1 has atomic number  6 and mass  12.00000

 Molecular mass:   128.15650 amu.
 Principal axes and moments of inertia in atomic units:
                           1         2         3
     Eigenvalues --   691.221942222.266252685.07767
           X            1.00000   0.00014  -0.00253
           Y           -0.00013   1.00000   0.00204
           Z            0.00253  -0.00204   0.99999
 This molecule is an asymmetric top.
 Rotational symmetry number  1.
 Warning -- assumption of classical behavior for rotation
           may cause significant error
 Rotational temperatures (Kelvin)      0.12531     0.03898     0.03226
 Rotational constants (GHZ):           2.61094     0.81212     0.67214
 Zero-point vibrational energy     715984.4 (Joules/Mol)
                                  171.12437 (Kcal/Mol)
 Warning -- explicit consideration of  18 degrees of freedom as
           vibrations may cause significant error
 Vibrational temperatures:     52.95    69.99   105.59   210.73   293.28
          (Kelvin)            315.68   330.82   343.62   383.18   400.06
                              460.78   512.50   532.79   582.21   586.08
                              633.99   671.30   749.38  1126.04  1194.41
                             1246.05  1266.78  1332.53  1334.56  1347.64
                             1388.08  1390.49  1396.37  1428.48  1512.22
                             1555.43  1593.53  1677.05  1695.54  1708.89
                             1712.71  1728.94  1808.86  1872.97  1914.21
                             1934.18  1949.55  1965.55  1980.41  1991.86
                             2012.93  2017.81  2029.29  2046.19  2046.82
                             2133.10  2140.40  2141.89  2145.85  2155.07
                             2156.31  2164.63  2168.06  2172.10  2176.65
                             2195.07  4272.42  4299.55  4315.48  4330.69
                             4344.71  4351.49  4354.83  4359.09  4361.39
                             4427.09  4436.78  4438.96  4446.21  4449.68
                             4452.77  4463.74  4472.53  4479.64  4484.58
                             4494.23

 Zero-point correction=                           0.272704 (Hartree/Particle)
 Thermal correction to Energy=                    0.285035
 Thermal correction to Enthalpy=                  0.285979
 Thermal correction to Gibbs Free Energy=         0.234583
 Sum of electronic and zero-point Energies=           -354.775159
 Sum of electronic and thermal Energies=              -354.762829
 Sum of electronic and thermal Enthalpies=            -354.761884
 Sum of electronic and thermal Free Energies=         -354.813280

                     E (Thermal)             CV                S
                      KCal/Mol        Cal/Mol-Kelvin    Cal/Mol-Kelvin
 Total                  178.862             45.741            108.171
 Electronic               0.000              0.000              0.000
 Translational            0.889              2.981             40.457
 Rotational               0.889              2.981             29.801
 Vibrational            177.085             39.779             37.912
 Vibration     1          0.594              1.982              5.424
 Vibration     2          0.595              1.978              4.872
 Vibration     3          0.599              1.967              4.060
 Vibration     4          0.617              1.907              2.718
 Vibration     5          0.640              1.834              2.098
 Vibration     6          0.647              1.812              1.964
 Vibration     7          0.652              1.795              1.879
 Vibration     8          0.657              1.781              1.812
 Vibration     9          0.672              1.735              1.620
 Vibration    10          0.679              1.714              1.546
 Vibration    11          0.706              1.635              1.309
 Vibration    12          0.732              1.563              1.139
 Vibration    13          0.742              1.533              1.079
 Vibration    14          0.770              1.460              0.946
 Vibration    15          0.772              1.454              0.936
 Vibration    16          0.801              1.382              0.825
 Vibration    17          0.824              1.324              0.747
 Vibration    18          0.876              1.204              0.608

 Optimization completed.
    -- Stationary point found.
 Normal termination of Gaussian 16 at Sun May 28 16:49:04 2023.
