 Gaussian 16, Revision A.03,
 Gaussian 16:  ES64L-G16RevA.03 25-Dec-2016

 -----------------------------
 # opt freq b3lyp/6-31g(2df,p)
 -----------------------------

 -------------------
 Title Card Required
 -------------------
 Symbolic Z-matrix:
 Charge =  0 Multiplicity = 1

 SCF Done:  E(RB3LYP) =  -666.160508883     A.U. after   12 cycles
 SCF Done:  E(RB3LYP) =  -666.170471812     A.U. after   10 cycles
 SCF Done:  E(RB3LYP) =  -666.171588254     A.U. after    9 cycles
 SCF Done:  E(RB3LYP) =  -666.171709901     A.U. after    9 cycles
 SCF Done:  E(RB3LYP) =  -666.171728089     A.U. after    8 cycles
 SCF Done:  E(RB3LYP) =  -666.171732283     A.U. after    7 cycles
 SCF Done:  E(RB3LYP) =  -666.171735199     A.U. after    8 cycles
 SCF Done:  E(RB3LYP) =  -666.171735742     A.U. after    7 cycles
 SCF Done:  E(RB3LYP) =  -666.171735793     A.U. after    5 cycles
 Optimization completed.
    -- Stationary point found.
 Normal termination of Gaussian 16 at Mon May 22 13:26:15 2023.

 ----------------------------------------------------------------------
 #N Geom=AllCheck Guess=TCheck SCRF=Check GenChk RB3LYP/6-31G(2df,p) Fr
 eq
 ----------------------------------------------------------------------

 Structure from the checkpoint file:  "CCqCrCCCCCCCCCCqCrCO.chk"
 -------------------
 Title Card Required
 -------------------
 Charge =  0 Multiplicity = 1

                         Standard orientation:
 ---------------------------------------------------------------------
 Center     Atomic      Atomic             Coordinates (Angstroms)
 Number     Number       Type             X           Y           Z
 ---------------------------------------------------------------------
      1          6           0       -8.170172   -0.830256   -0.001381
      2          6           0       -6.985152    0.085500   -0.337755
      3          6           0       -7.228031    1.499821    0.208371
      4          6           0       -5.668232   -0.527151    0.174123
      5          6           0       -4.391454    0.196318   -0.270388
      6          6           0       -3.109604   -0.509468    0.187100
      7          6           0       -1.827053    0.207413   -0.248405
      8          6           0       -0.545729   -0.498273    0.208613
      9          6           0        0.736888    0.219730   -0.224985
     10          6           0        2.018023   -0.485637    0.232961
     11          6           0        3.300619    0.233922   -0.199762
     12          6           0        4.576304   -0.478775    0.265241
     13          6           0        5.890804    0.165889   -0.208028
     14          6           0        6.109304    1.576108    0.354455
     15          6           0        7.077047   -0.745376    0.143592
     16          8           0        8.328201   -0.258128   -0.319874
     17          1           0       -9.109598   -0.426535   -0.393710
     18          1           0       -8.284728   -0.938747    1.084083
     19          1           0       -8.033268   -1.832250   -0.421812
     20          1           0       -6.915080    0.154691   -1.433557
     21          1           0       -7.279032    1.490252    1.304240
     22          1           0       -8.175523    1.905039   -0.162414
     23          1           0       -6.436250    2.196228   -0.082147
     24          1           0       -5.614946   -1.570781   -0.165443
     25          1           0       -5.698739   -0.570581    1.272946
     26          1           0       -4.387198    1.224216    0.113742
     27          1           0       -4.386115    0.281923   -1.366404
     28          1           0       -3.101640   -1.537120   -0.202619
     29          1           0       -3.118489   -0.603636    1.282143
     30          1           0       -1.834624    1.234590    0.142591
     31          1           0       -1.818246    0.302693   -1.343363
     32          1           0       -0.537205   -1.525108   -0.183257
     33          1           0       -0.555185   -0.594509    1.303440
     34          1           0        0.728095    1.246560    0.166812
     35          1           0        0.746838    0.315817   -1.319859
     36          1           0        2.027271   -1.512615   -0.158551
     37          1           0        2.007936   -0.581528    1.327801
     38          1           0        3.282433    1.260053    0.188099
     39          1           0        3.314400    0.323397   -1.295311
     40          1           0        4.544193   -1.519482   -0.087099
     41          1           0        4.580729   -0.532587    1.363685
     42          1           0        5.853549    0.234297   -1.308153
     43          1           0        6.044933    1.569004    1.449652
     44          1           0        5.367724    2.287098   -0.019779
     45          1           0        7.103069    1.940328    0.082325
     46          1           0        6.886780   -1.763146   -0.233317
     47          1           0        7.178358   -0.818535    1.233291
     48          1           0        8.292573   -0.232597   -1.281583
 ---------------------------------------------------------------------

 SCF Done:  E(RB3LYP) =  -666.171735793     A.U. after    1 cycles

 The electronic state is 1-A.
 Alpha  occ. eigenvalues --  -19.13119 -10.21929 -10.18290 -10.18139 -10.17675
 Alpha  occ. eigenvalues --  -10.17555 -10.17455 -10.17378 -10.17326 -10.17295
 Alpha  occ. eigenvalues --  -10.17273 -10.17223 -10.17110 -10.16713 -10.16703
 Alpha  occ. eigenvalues --  -10.16537  -1.01136  -0.81419  -0.80910  -0.79463
 Alpha  occ. eigenvalues --   -0.77170  -0.74081  -0.70346  -0.67654  -0.67382
 Alpha  occ. eigenvalues --   -0.66082  -0.62167  -0.58836  -0.57336  -0.56965
 Alpha  occ. eigenvalues --   -0.56203  -0.55028  -0.48881  -0.48183  -0.47136
 Alpha  occ. eigenvalues --   -0.46035  -0.45023  -0.44254  -0.43385  -0.43135
 Alpha  occ. eigenvalues --   -0.41730  -0.40762  -0.40490  -0.39760  -0.38743
 Alpha  occ. eigenvalues --   -0.37865  -0.37649  -0.37116  -0.36213  -0.35830
 Alpha  occ. eigenvalues --   -0.35344  -0.34649  -0.33585  -0.33396  -0.33049
 Alpha  occ. eigenvalues --   -0.32141  -0.32100  -0.31830  -0.31671  -0.31599
 Alpha  occ. eigenvalues --   -0.31326  -0.31044  -0.30645  -0.28758  -0.26030
 Alpha virt. eigenvalues --    0.07545   0.08518   0.09000   0.09758   0.10740
 Alpha virt. eigenvalues --    0.10838   0.11546   0.11766   0.12458   0.12707
 Alpha virt. eigenvalues --    0.13546   0.14653   0.15107   0.15410   0.15642

 Mulliken charges:
               1
     1  C   -0.387628
     2  C    0.043369
     3  C   -0.379741
     4  C   -0.164436
     5  C   -0.190499
     6  C   -0.178415
     7  C   -0.180788
     8  C   -0.179846
     9  C   -0.181021
    10  C   -0.178427
    11  C   -0.190099
    12  C   -0.184888
    13  C    0.000706
    14  C   -0.383764
    15  C   -0.061774
    16  O   -0.419572
    17  H    0.106775
    18  H    0.109844
    19  H    0.107361
    20  H    0.067957
    21  H    0.108722
    22  H    0.107782
    23  H    0.113189
    24  H    0.085907
    25  H    0.086731
    26  H    0.094907
    27  H    0.089106
    28  H    0.089936
    29  H    0.090566
    30  H    0.090291
    31  H    0.089908
    32  H    0.090146
    33  H    0.090546
    34  H    0.090827
    35  H    0.089982
    36  H    0.090114
    37  H    0.091485
    38  H    0.098041
    39  H    0.089349
    40  H    0.087229
    41  H    0.092353
    42  H    0.056693
    43  H    0.108766
    44  H    0.110695
    45  H    0.124313
    46  H    0.081363
    47  H    0.106835
    48  H    0.279103
 Sum of Mulliken charges =   0.00000

 Dipole moment (field-independent basis, Debye):
    X=             -1.1744    Y=             -0.2741    Z=             -1.0224  Tot=              1.5810
 Quadrupole moment (field-independent basis, Debye-Ang):
   XX=           -126.3234   YY=           -106.6153   ZZ=           -102.1354
   XY=             -1.9265   XZ=             -7.7748   YZ=              0.8699

  Exact polarizability: 224.008   0.579 152.648  -1.171  -0.373 144.097
 Approx polarizability: 233.589   0.818 226.961  -1.076   0.608 231.881

                      1                      2                      3
                      A                      A                      A
 Frequencies --     16.0500                20.6402                25.6512
 Red. masses --      4.2236                 2.4298                 4.0947
 Frc consts  --      0.0006                 0.0006                 0.0016
 IR Inten    --      0.1367                 0.1854                 0.1190

                      4                      5                      6
                      A                      A                      A
 Frequencies --     43.6157                55.6996                70.9728
 Red. masses --      3.7289                 1.7209                 3.8066
 Frc consts  --      0.0042                 0.0031                 0.0113
 IR Inten    --      0.2979                 0.0865                 0.4286

                      7                      8                      9
                      A                      A                      A
 Frequencies --     80.9950                96.8144               116.1569
 Red. masses --      3.1551                 1.6869                 2.7305
 Frc consts  --      0.0122                 0.0093                 0.0217
 IR Inten    --      0.3863                 0.0510                 1.3607

                     10                     11                     12
                      A                      A                      A
 Frequencies --    131.5380               136.8001               146.7481
 Red. masses --      2.5387                 2.0791                 2.9634
 Frc consts  --      0.0259                 0.0229                 0.0376
 IR Inten    --      0.1329                 0.2273                 0.6228

                     13                     14                     15
                      A                      A                      A
 Frequencies --    148.8808               166.2314               167.4187
 Red. masses --      2.8136                 1.9452                 1.9837
 Frc consts  --      0.0367                 0.0317                 0.0328
 IR Inten    --      0.2258                 0.0960                 0.0560

                     16                     17                     18
                      A                      A                      A
 Frequencies --    214.3013               227.1642               235.3459
 Red. masses --      2.4852                 1.1669                 1.0854
 Frc consts  --      0.0672                 0.0355                 0.0354
 IR Inten    --      0.0960                 0.1086                 2.1376

                     19                     20                     21
                      A                      A                      A
 Frequencies --    250.6385               269.7777               297.1215
 Red. masses --      1.1713                 2.9889                 2.3955
 Frc consts  --      0.0434                 0.1282                 0.1246
 IR Inten    --      0.0439                 2.5693                 8.6888

                     22                     23                     24
                      A                      A                      A
 Frequencies --    313.3998               319.0436               375.6947
 Red. masses --      1.5433                 2.2064                 2.7241
 Frc consts  --      0.0893                 0.1323                 0.2265
 IR Inten    --     84.2478                12.1746                 2.1870

                     25                     26                     27
                      A                      A                      A
 Frequencies --    384.7871               419.0302               434.3277
 Red. masses --      2.4622                 2.0139                 2.2504
 Frc consts  --      0.2148                 0.2083                 0.2501
 IR Inten    --      0.3289                 3.5347                 6.1315

                     28                     29                     30
                      A                      A                      A
 Frequencies --    451.6283               487.7386               513.0146
 Red. masses --      2.7258                 2.6450                 3.0236
 Frc consts  --      0.3276                 0.3707                 0.4689
 IR Inten    --      1.4073                 2.3930                 0.5203

                     31                     32                     33
                      A                      A                      A
 Frequencies --    550.7157               731.3581               732.4419
 Red. masses --      2.8482                 1.0587                 1.0753
 Frc consts  --      0.5089                 0.3337                 0.3399
 IR Inten    --      3.3133                 5.4164                 0.0452

                     34                     35                     36
                      A                      A                      A
 Frequencies --    741.0022               764.4751               804.8343
 Red. masses --      1.1145                 1.1908                 1.4168
 Frc consts  --      0.3605                 0.4100                 0.5407
 IR Inten    --      1.1149                 0.2209                 0.3790

                     37                     38                     39
                      A                      A                      A
 Frequencies --    825.1086               846.7344               873.5399
 Red. masses --      2.2255                 2.3027                 1.3239
 Frc consts  --      0.8927                 0.9727                 0.5952
 IR Inten    --      0.1849                 1.7882                 0.1589

                     40                     41                     42
                      A                      A                      A
 Frequencies --    908.7557               926.4878               928.9737
 Red. masses --      1.3527                 1.2038                 1.3733
 Frc consts  --      0.6582                 0.6088                 0.6983
 IR Inten    --      5.6540                 1.1404                 0.2005

                     43                     44                     45
                      A                      A                      A
 Frequencies --    938.7835               951.6947               965.6004
 Red. masses --      2.0890                 1.7691                 1.4900
 Frc consts  --      1.0847                 0.9440                 0.8185
 IR Inten    --      4.7606                 0.0896                 0.0880

                     46                     47                     48
                      A                      A                      A
 Frequencies --    990.3008               992.5024              1008.8060
 Red. masses --      3.6542                 1.7126                 2.4713
 Frc consts  --      2.1114                 0.9939                 1.4818
 IR Inten    --      1.3428                 0.2352                 1.9422

                     49                     50                     51
                      A                      A                      A
 Frequencies --   1027.6978              1035.4808              1046.2316
 Red. masses --      3.6008                 1.5418                 2.1629
 Frc consts  --      2.2407                 0.9740                 1.3949
 IR Inten    --     19.8333                 0.2697                22.2881

                     52                     53                     54
                      A                      A                      A
 Frequencies --   1060.2565              1062.3310              1069.9631
 Red. masses --      2.5605                 1.2869                 2.2425
 Frc consts  --      1.6959                 0.8557                 1.5126
 IR Inten    --     37.4716                 2.5570                 1.2474

                     55                     56                     57
                      A                      A                      A
 Frequencies --   1070.5094              1071.9686              1088.9307
 Red. masses --      2.1546                 2.0979                 3.3808
 Frc consts  --      1.4548                 1.4204                 2.3619
 IR Inten    --      1.6137                19.1080                31.1248

                     58                     59                     60
                      A                      A                      A
 Frequencies --   1115.1516              1139.8065              1152.6443
 Red. masses --      1.8418                 2.0255                 2.6027
 Frc consts  --      1.3495                 1.5504                 2.0373
 IR Inten    --      0.6228                 2.4192                 0.5807

                     61                     62                     63
                      A                      A                      A
 Frequencies --   1185.0754              1192.7093              1207.1619
 Red. masses --      1.7126                 1.7582                 1.9524
 Frc consts  --      1.4171                 1.4736                 1.6763
 IR Inten    --      1.1979                 4.2663                 0.1648

                     64                     65                     66
                      A                      A                      A
 Frequencies --   1217.7766              1233.1611              1244.5808
 Red. masses --      1.4229                 1.4686                 1.4891
 Frc consts  --      1.2433                 1.3158                 1.3590
 IR Inten    --      0.3953                10.5542                 3.3031

                     67                     68                     69
                      A                      A                      A
 Frequencies --   1263.1283              1273.5792              1291.5107
 Red. masses --      1.3131                 1.4039                 1.2403
 Frc consts  --      1.2343                 1.3416                 1.2189
 IR Inten    --      0.9564                 7.1007                 1.6705

                     70                     71                     72
                      A                      A                      A
 Frequencies --   1301.3947              1315.3865              1322.6109
 Red. masses --      1.3094                 1.2128                 1.0915
 Frc consts  --      1.3066                 1.2363                 1.1250
 IR Inten    --      0.1799                 0.1817                 0.1720

                     73                     74                     75
                      A                      A                      A
 Frequencies --   1325.1104              1331.6020              1335.8659
 Red. masses --      1.1303                 1.0675                 1.2264
 Frc consts  --      1.1694                 1.1152                 1.2895
 IR Inten    --      1.0843                 0.1426                 0.8770

                     76                     77                     78
                      A                      A                      A
 Frequencies --   1337.8444              1339.9502              1357.0663
 Red. masses --      1.1344                 1.1318                 1.3600
 Frc consts  --      1.1963                 1.1973                 1.4757
 IR Inten    --      0.0687                 0.0337                 0.9249

                     79                     80                     81
                      A                      A                      A
 Frequencies --   1370.4563              1375.0269              1379.8684
 Red. masses --      1.3350                 1.4005                 1.3654
 Frc consts  --      1.4772                 1.5601                 1.5318
 IR Inten    --      4.3241                 0.0551                 2.2813

                     82                     83                     84
                      A                      A                      A
 Frequencies --   1391.2964              1396.4495              1397.8394
 Red. masses --      1.3383                 1.4875                 1.5277
 Frc consts  --      1.5263                 1.7091                 1.7588
 IR Inten    --      1.3124                 0.3356                 1.7934

                     85                     86                     87
                      A                      A                      A
 Frequencies --   1400.7639              1402.9076              1403.5707
 Red. masses --      1.4039                 1.5734                 1.4990
 Frc consts  --      1.6230                 1.8245                 1.7399
 IR Inten    --      2.4977                 0.9709                 0.5726

                     88                     89                     90
                      A                      A                      A
 Frequencies --   1406.2056              1421.9737              1423.4922
 Red. masses --      1.2735                 1.2456                 1.2689
 Frc consts  --      1.4837                 1.4840                 1.5149
 IR Inten    --     27.8410                 3.0420                28.9462

                     91                     92                     93
                      A                      A                      A
 Frequencies --   1477.3668              1479.2406              1481.4188
 Red. masses --      1.0745                 1.0791                 1.0723
 Frc consts  --      1.3817                 1.3912                 1.3865
 IR Inten    --      0.1763                 0.6571                 0.0436

                     94                     95                     96
                      A                      A                      A
 Frequencies --   1483.5803              1484.9500              1489.0556
 Red. masses --      1.0741                 1.0785                 1.0466
 Frc consts  --      1.3929                 1.4012                 1.3672
 IR Inten    --      0.0680                 0.0150                 0.6437

                     97                     98                     99
                      A                      A                      A
 Frequencies --   1491.6526              1494.3710              1495.7895
 Red. masses --      1.0833                 1.0610                 1.0676
 Frc consts  --      1.4202                 1.3959                 1.4074
 IR Inten    --      0.6518                 3.4732                 1.3091

                    100                    101                    102
                      A                      A                      A
 Frequencies --   1501.7394              1504.4397              1505.0220
 Red. masses --      1.0954                 1.0695                 1.0547
 Frc consts  --      1.4555                 1.4262                 1.4076
 IR Inten    --      0.0817                 1.1702                 2.8326

                    103                    104                    105
                      A                      A                      A
 Frequencies --   1508.2562              1510.5147              1512.2747
 Red. masses --      1.0724                 1.0684                 1.0725
 Frc consts  --      1.4373                 1.4362                 1.4451
 IR Inten    --      1.2126                 8.1235                 2.0607

                    106                    107                    108
                      A                      A                      A
 Frequencies --   1516.2242              2962.4991              2974.0532
 Red. masses --      1.0980                 1.0804                 1.0687
 Frc consts  --      1.4872                 5.5865                 5.5696
 IR Inten    --      5.2055                25.2120                47.3249

                    109                    110                    111
                      A                      A                      A
 Frequencies --   2989.0887              2995.6765              2996.1489
 Red. masses --      1.0774                 1.0589                 1.0614
 Frc consts  --      5.6714                 5.5988                 5.6136
 IR Inten    --      5.7703                 3.8034                20.5785

                    112                    113                    114
                      A                      A                      A
 Frequencies --   2997.8014              2998.4491              3000.7083
 Red. masses --      1.0578                 1.0584                 1.0582
 Frc consts  --      5.6007                 5.6063                 5.6139
 IR Inten    --      0.2970                 0.7312                 3.8559

                    115                    116                    117
                      A                      A                      A
 Frequencies --   3001.7830              3007.0757              3011.8989
 Red. masses --      1.0601                 1.0627                 1.0656
 Frc consts  --      5.6279                 5.6620                 5.6954
 IR Inten    --      0.4190                 6.9953                 0.6063

                    118                    119                    120
                      A                      A                      A
 Frequencies --   3015.7166              3018.1036              3020.7525
 Red. masses --      1.0654                 1.0950                 1.0469
 Frc consts  --      5.7088                 5.8770                 5.6283
 IR Inten    --    196.5091                14.0512                29.9359

                    121                    122                    123
                      A                      A                      A
 Frequencies --   3021.4150              3025.7514              3026.7718
 Red. masses --      1.0843                 1.0753                 1.0663
 Frc consts  --      5.8319                 5.8004                 5.7553
 IR Inten    --      5.7629                43.8290                 8.1366

                    124                    125                    126
                      A                      A                      A
 Frequencies --   3027.3591              3029.8939              3031.2839
 Red. masses --      1.0830                 1.0480                 1.0961
 Frc consts  --      5.8478                 5.6687                 5.9341
 IR Inten    --      4.7260                 5.2454                14.4627

                    127                    128                    129
                      A                      A                      A
 Frequencies --   3041.9076              3053.8432              3057.5212
 Red. masses --      1.1034                 1.1031                 1.0958
 Frc consts  --      6.0154                 6.0612                 6.0353
 IR Inten    --      0.5953                 5.7626                23.3191

                    130                    131                    132
                      A                      A                      A
 Frequencies --   3063.8957              3067.7911              3084.7441
 Red. masses --      1.1038                 1.1041                 1.1002
 Frc consts  --      6.1049                 6.1221                 6.1680
 IR Inten    --      5.7216               268.1646                 6.3707

                    133                    134                    135
                      A                      A                      A
 Frequencies --   3090.8592              3095.9878              3099.1677
 Red. masses --      1.0998                 1.1014                 1.0952
 Frc consts  --      6.1903                 6.2198                 6.1979
 IR Inten    --     68.3765                44.9371                31.9295

                    136                    137                    138
                      A                      A                      A
 Frequencies --   3105.8263              3122.8049              3811.4250
 Red. masses --      1.0996                 1.1011                 1.0660
 Frc consts  --      6.2496                 6.3263                 9.1243
 IR Inten    --     39.9703                22.0434                15.7701

 - Thermochemistry -
 -------------------
 Temperature   298.150 Kelvin.  Pressure   1.00000 Atm.
 Atom     1 has atomic number  6 and mass  12.00000

 Molecular mass:   228.24532 amu.
 Principal axes and moments of inertia in atomic units:
                           1         2         3
     Eigenvalues --   646.43995********************
           X            1.00000   0.00072  -0.00009
           Y           -0.00072   0.99999  -0.00464
           Z            0.00009   0.00464   0.99999
 This molecule is an asymmetric top.
 Rotational symmetry number  1.
 Warning -- assumption of classical behavior for rotation
           may cause significant error
 Rotational temperatures (Kelvin)      0.13399     0.00357     0.00352
 Rotational constants (GHZ):           2.79182     0.07440     0.07330
 Zero-point vibrational energy    1176345.3 (Joules/Mol)
                                  281.15328 (Kcal/Mol)
 Warning -- explicit consideration of  31 degrees of freedom as
           vibrations may cause significant error
 Vibrational temperatures:     23.09    29.70    36.91    62.75    80.14
          (Kelvin)            102.11   116.53   139.29   167.12   189.25
                              196.82   211.14   214.21   239.17   240.88
                              308.33   326.84   338.61   360.61   388.15
                              427.49   450.91   459.03   540.54   553.62
                              602.89   624.90   649.79   701.75   738.11
                              792.36  1052.26  1053.82  1066.14  1099.91
                             1157.98  1187.15  1218.26  1256.83  1307.50
                             1333.01  1336.59  1350.70  1369.28  1389.28
                             1424.82  1427.99  1451.45  1478.63  1489.83
                             1505.29  1525.47  1528.46  1539.44  1540.22
                             1542.32  1566.73  1604.45  1639.93  1658.40
                             1705.06  1716.04  1736.84  1752.11  1774.24
                             1790.67  1817.36  1832.40  1858.20  1872.42
                             1892.55  1902.94  1906.54  1915.88  1922.01
                             1924.86  1927.89  1952.52  1971.78  1978.36
                             1985.32  2001.77  2009.18  2011.18  2015.39
                             2018.47  2019.43  2023.22  2045.90  2048.09
                             2125.60  2128.30  2131.43  2134.54  2136.51
                             2142.42  2146.16  2150.07  2152.11  2160.67
                             2164.55  2165.39  2170.04  2173.29  2175.83
                             2181.51  4262.38  4279.00  4300.63  4310.11
                             4310.79  4313.17  4314.10  4317.35  4318.90
                             4326.51  4333.45  4338.94  4342.38  4346.19
                             4347.14  4353.38  4354.85  4355.69  4359.34
                             4361.34  4376.63  4393.80  4399.09  4408.26
                             4413.87  4438.26  4447.06  4454.44  4459.01
                             4468.59  4493.02  5483.79

 Zero-point correction=                           0.448046 (Hartree/Particle)
 Thermal correction to Energy=                    0.469756
 Thermal correction to Enthalpy=                  0.470700
 Thermal correction to Gibbs Free Energy=         0.394238
 Sum of electronic and zero-point Energies=           -665.723690
 Sum of electronic and thermal Energies=              -665.701980
 Sum of electronic and thermal Enthalpies=            -665.701036
 Sum of electronic and thermal Free Energies=         -665.777498

                     E (Thermal)             CV                S
                      KCal/Mol        Cal/Mol-Kelvin    Cal/Mol-Kelvin
 Total                  294.776             78.014            160.928
 Electronic               0.000              0.000              0.000
 Translational            0.889              2.981             42.178
 Rotational               0.889              2.981             34.311
 Vibrational            292.999             72.052             84.439
 Vibration     1          0.593              1.986              7.071
 Vibration     2          0.593              1.986              6.572
 Vibration     3          0.593              1.985              6.140
 Vibration     4          0.595              1.980              5.088
 Vibration     5          0.596              1.975              4.604
 Vibration     6          0.598              1.968              4.126
 Vibration     7          0.600              1.962              3.867
 Vibration     8          0.603              1.951              3.517
 Vibration     9          0.608              1.936              3.163
 Vibration    10          0.612              1.922              2.923
 Vibration    11          0.614              1.917              2.848
 Vibration    12          0.617              1.906              2.714
 Vibration    13          0.618              1.904              2.686
 Vibration    14          0.624              1.884              2.478
 Vibration    15          0.624              1.883              2.464
 Vibration    16          0.644              1.819              2.007
 Vibration    17          0.651              1.800              1.901
 Vibration    18          0.655              1.787              1.838
 Vibration    19          0.663              1.762              1.726
 Vibration    20          0.674              1.729              1.598
 Vibration    21          0.691              1.679              1.433
 Vibration    22          0.701              1.648              1.344
 Vibration    23          0.705              1.637              1.315
 Vibration    24          0.747              1.522              1.056
 Vibration    25          0.754              1.503              1.020
 Vibration    26          0.782              1.429              0.895
 Vibration    27          0.795              1.395              0.845
 Vibration    28          0.810              1.357              0.791
 Vibration    29          0.844              1.277              0.689
 Vibration    30          0.868              1.221              0.626
 Vibration    31          0.906              1.138              0.543

 Optimization completed.
    -- Stationary point found.
 Normal termination of Gaussian 16 at Mon May 22 16:58:29 2023.
