 Gaussian 16, Revision A.03,
 Gaussian 16:  ES64L-G16RevA.03 25-Dec-2016

 -----------------------------
 # opt freq b3lyp/6-31g(2df,p)
 -----------------------------

 -------------------
 Title Card Required
 -------------------
 Symbolic Z-matrix:
 Charge =  0 Multiplicity = 1

 SCF Done:  E(RB3LYP) =  -352.505868281     A.U. after   12 cycles
 SCF Done:  E(RB3LYP) =  -352.527622226     A.U. after   11 cycles
 SCF Done:  E(RB3LYP) =  -352.531860650     A.U. after   11 cycles
 SCF Done:  E(RB3LYP) =  -352.533334206     A.U. after   10 cycles
 SCF Done:  E(RB3LYP) =  -352.533743874     A.U. after   10 cycles
 SCF Done:  E(RB3LYP) =  -352.533960819     A.U. after    9 cycles
 SCF Done:  E(RB3LYP) =  -352.534029864     A.U. after    9 cycles
 SCF Done:  E(RB3LYP) =  -352.534043666     A.U. after    8 cycles
 SCF Done:  E(RB3LYP) =  -352.534050361     A.U. after    8 cycles
 SCF Done:  E(RB3LYP) =  -352.534051485     A.U. after    7 cycles
 SCF Done:  E(RB3LYP) =  -352.534051570     A.U. after    6 cycles
 Optimization completed.
    -- Stationary point found.
 Normal termination of Gaussian 16 at Mon May 29 01:28:50 2023.

 ----------------------------------------------------------------------
 #N Geom=AllCheck Guess=TCheck SCRF=Check GenChk RB3LYP/6-31G(2df,p) Fr
 eq
 ----------------------------------------------------------------------

 Structure from the checkpoint file:  "CCqCrqCrC1C2CC1C2.chk"
 -------------------
 Title Card Required
 -------------------
 Charge =  0 Multiplicity = 1

                         Standard orientation:
 ---------------------------------------------------------------------
 Center     Atomic      Atomic             Coordinates (Angstroms)
 Number     Number       Type             X           Y           Z
 ---------------------------------------------------------------------
      1          6           0       -1.498049    0.788188   -1.262883
      2          6           0       -1.192137   -0.042689   -0.000009
      3          6           0       -1.498284    0.786722    1.263783
      4          6           0       -2.141086   -1.261163   -0.000814
      5          6           0        0.269582   -0.593634   -0.000099
      6          6           0        1.410479   -0.068893   -0.939680
      7          6           0        2.405182   -0.808260   -0.000148
      8          6           0        1.410467   -0.069182    0.939633
      9          6           0        1.575968    1.161768    0.000189
     10          1           0       -2.552961    1.084984   -1.276977
     11          1           0       -1.306253    0.207396   -2.171300
     12          1           0       -0.899023    1.700641   -1.319394
     13          1           0       -2.553145    1.083696    1.277925
     14          1           0       -0.899082    1.698968    1.321555
     15          1           0       -1.306860    0.204765    2.171534
     16          1           0       -3.189461   -0.943193   -0.000356
     17          1           0       -1.980290   -1.887724    0.883490
     18          1           0       -1.980623   -1.886268   -0.886212
     19          1           0        0.225978   -1.688777   -0.000236
     20          1           0        1.418615   -0.070349   -2.031032
     21          1           0        3.434771   -0.440270   -0.000089
     22          1           0        2.367750   -1.901250   -0.000295
     23          1           0        1.418610   -0.071069    2.030985
     24          1           0        2.561367    1.637801    0.000274
     25          1           0        0.787878    1.913505    0.000295
 ---------------------------------------------------------------------

 SCF Done:  E(RB3LYP) =  -352.534051570     A.U. after    1 cycles

 The electronic state is 1-A.
 Alpha  occ. eigenvalues --  -10.19386 -10.19384 -10.19068 -10.18310 -10.18041
 Alpha  occ. eigenvalues --  -10.17952 -10.16672 -10.16634 -10.16634  -0.90429
 Alpha  occ. eigenvalues --   -0.80347  -0.68041  -0.67969  -0.65915  -0.65177
 Alpha  occ. eigenvalues --   -0.61561  -0.55521  -0.50775  -0.49035  -0.45545
 Alpha  occ. eigenvalues --   -0.44952  -0.43084  -0.41181  -0.38855  -0.38391
 Alpha  occ. eigenvalues --   -0.37660  -0.35886  -0.34160  -0.33404  -0.31946
 Alpha  occ. eigenvalues --   -0.31938  -0.30671  -0.29543  -0.28674  -0.28595
 Alpha virt. eigenvalues --    0.08162   0.11044   0.11887   0.12249   0.13310
 Alpha virt. eigenvalues --    0.14137   0.14564   0.15667   0.16081   0.16131
 Alpha virt. eigenvalues --    0.16157   0.17158   0.18760   0.19019   0.19925

 Mulliken charges:
               1
     1  C   -0.406547
     2  C    0.239217
     3  C   -0.406515
     4  C   -0.412123
     5  C    0.041376
     6  C   -0.058689
     7  C   -0.231653
     8  C   -0.058681
     9  C   -0.215419
    10  H    0.103931
    11  H    0.109324
    12  H    0.112277
    13  H    0.103930
    14  H    0.112272
    15  H    0.109318
    16  H    0.103720
    17  H    0.108425
    18  H    0.108421
    19  H    0.056107
    20  H    0.065891
    21  H    0.085721
    22  H    0.086522
    23  H    0.065889
    24  H    0.084699
    25  H    0.092587
 Sum of Mulliken charges =  -0.00000

 Dipole moment (field-independent basis, Debye):
    X=             -0.0561    Y=             -0.0053    Z=             -0.0000  Tot=              0.0564
 Quadrupole moment (field-independent basis, Debye-Ang):
   XX=            -58.4793   YY=            -58.4474   ZZ=            -58.4728
   XY=             -0.0055   XZ=             -0.0000   YZ=             -0.0002

  Exact polarizability: 104.755  -0.070  87.829   0.000  -0.000  84.994
 Approx polarizability: 137.159  -0.082 132.791   0.000  -0.000 129.800

                      1                      2                      3
                      A                      A                      A
 Frequencies --     61.6543               193.5274               212.4875
 Red. masses --      2.6981                 2.5607                 2.3955
 Frc consts  --      0.0060                 0.0565                 0.0637
 IR Inten    --      0.0000                 0.0075                 0.0268

                      4                      5                      6
                      A                      A                      A
 Frequencies --    215.1150               258.3945               300.3677
 Red. masses --      1.0307                 1.1262                 1.0530
 Frc consts  --      0.0281                 0.0443                 0.0560
 IR Inten    --      0.0090                 0.0411                 0.0042

                      7                      8                      9
                      A                      A                      A
 Frequencies --    321.6729               340.6525               351.2700
 Red. masses --      2.4685                 2.7450                 2.3503
 Frc consts  --      0.1505                 0.1877                 0.1709
 IR Inten    --      0.0734                 0.0116                 0.0863

                     10                     11                     12
                      A                      A                      A
 Frequencies --    400.9476               445.8950               543.0261
 Red. masses --      2.3876                 2.6688                 2.2088
 Frc consts  --      0.2261                 0.3126                 0.3838
 IR Inten    --      0.3275                 0.1751                 0.0846

                     13                     14                     15
                      A                      A                      A
 Frequencies --    588.2045               770.3241               790.2917
 Red. masses --      2.0220                 2.9114                 2.9374
 Frc consts  --      0.4122                 1.0179                 1.0809
 IR Inten    --      0.7488                 0.0477                 0.1349

                     16                     17                     18
                      A                      A                      A
 Frequencies --    809.1562               868.3307               881.3751
 Red. masses --      2.8175                 2.5836                 2.2646
 Frc consts  --      1.0869                 1.1477                 1.0365
 IR Inten    --      0.6237                 1.6171                 1.2944

                     19                     20                     21
                      A                      A                      A
 Frequencies --    899.7653               905.2220               931.0960
 Red. masses --      2.6935                 2.1440                 1.7076
 Frc consts  --      1.2848                 1.0351                 0.8722
 IR Inten    --      0.0101                 0.5452                 0.8755

                     22                     23                     24
                      A                      A                      A
 Frequencies --    936.2390               957.9561               998.4347
 Red. masses --      1.7084                 1.1967                 2.0406
 Frc consts  --      0.8823                 0.6471                 1.1986
 IR Inten    --      0.3804                 0.0077                 3.5279

                     25                     26                     27
                      A                      A                      A
 Frequencies --   1010.8156              1028.6336              1034.1574
 Red. masses --      1.0389                 1.0219                 1.5399
 Frc consts  --      0.6254                 0.6371                 0.9703
 IR Inten    --      0.0465                 0.3500                 0.6283

                     28                     29                     30
                      A                      A                      A
 Frequencies --   1048.5476              1064.6004              1090.4242
 Red. masses --      1.2942                 1.5424                 1.4176
 Frc consts  --      0.8383                 1.0299                 0.9931
 IR Inten    --      0.0588                 1.3067                 0.1077

                     31                     32                     33
                      A                      A                      A
 Frequencies --   1113.4830              1138.3503              1142.7484
 Red. masses --      1.9496                 2.9543                 1.3095
 Frc consts  --      1.4242                 2.2556                 1.0075
 IR Inten    --      0.7547                 1.2341                 0.3297

                     34                     35                     36
                      A                      A                      A
 Frequencies --   1189.6058              1217.2478              1221.1946
 Red. masses --      1.3932                 1.4536                 2.1490
 Frc consts  --      1.1616                 1.2690                 1.8882
 IR Inten    --      0.1093                 0.3136                 6.0126

                     37                     38                     39
                      A                      A                      A
 Frequencies --   1231.6139              1248.0559              1259.6841
 Red. masses --      1.9661                 1.8312                 2.0985
 Frc consts  --      1.7571                 1.6805                 1.9619
 IR Inten    --      1.7371                 4.5019                20.2800

                     40                     41                     42
                      A                      A                      A
 Frequencies --   1264.5133              1276.9315              1397.3908
 Red. masses --      2.2438                 2.2806                 1.2146
 Frc consts  --      2.1139                 2.1910                 1.3973
 IR Inten    --      1.2965                 1.6687                 4.1359

                     43                     44                     45
                      A                      A                      A
 Frequencies --   1400.5743              1420.0372              1447.4928
 Red. masses --      1.2179                 1.1986                 1.2143
 Frc consts  --      1.4076                 1.4240                 1.4991
 IR Inten    --      5.5572                 0.3348                 5.8870

                     46                     47                     48
                      A                      A                      A
 Frequencies --   1481.1939              1485.4147              1486.9203
 Red. masses --      1.0498                 1.0456                 1.0446
 Frc consts  --      1.3570                 1.3593                 1.3607
 IR Inten    --      0.0771                 0.0376                 0.2189

                     49                     50                     51
                      A                      A                      A
 Frequencies --   1497.4080              1506.7703              1507.4528
 Red. masses --      1.0819                 1.0539                 1.0750
 Frc consts  --      1.4292                 1.4098                 1.4393
 IR Inten    --      0.7660                 3.1255                 4.9000

                     52                     53                     54
                      A                      A                      A
 Frequencies --   1517.5586              1545.2970              3019.0099
 Red. masses --      1.0588                 1.1359                 1.0428
 Frc consts  --      1.4367                 1.5982                 5.5998
 IR Inten    --      8.2040                 2.9374                 5.1658

                     55                     56                     57
                      A                      A                      A
 Frequencies --   3024.7786              3027.5008              3034.1775
 Red. masses --      1.0710                 1.0366                 1.0414
 Frc consts  --      5.7731                 5.5981                 5.6485
 IR Inten    --     53.7586                25.4948                25.6328

                     58                     59                     60
                      A                      A                      A
 Frequencies --   3045.7755              3054.8636              3086.9155
 Red. masses --      1.0541                 1.0615                 1.0982
 Frc consts  --      5.7616                 5.8364                 6.1654
 IR Inten    --     59.4888                39.3239                17.6786

                     61                     62                     63
                      A                      A                      A
 Frequencies --   3088.4942              3090.4016              3093.5541
 Red. masses --      1.1012                 1.0971                 1.0964
 Frc consts  --      6.1891                 6.1734                 6.1823
 IR Inten    --      0.8991                 8.9227               127.4055

                     64                     65                     66
                      A                      A                      A
 Frequencies --   3096.2602              3097.7935              3110.9912
 Red. masses --      1.0986                 1.0955                 1.1093
 Frc consts  --      6.2055                 6.1940                 6.3254
 IR Inten    --     43.0541                51.0306                12.3912

                     67                     68                     69
                      A                      A                      A
 Frequencies --   3111.5129              3113.2459              3141.0004
 Red. masses --      1.0997                 1.1013                 1.0998
 Frc consts  --      6.2727                 6.2889                 6.3929
 IR Inten    --      5.8050                96.3895                36.3471

 - Thermochemistry -
 -------------------
 Temperature   298.150 Kelvin.  Pressure   1.00000 Atm.
 Atom     1 has atomic number  6 and mass  12.00000

 Molecular mass:   124.12520 amu.
 Principal axes and moments of inertia in atomic units:
                           1         2         3
     Eigenvalues --   633.973331516.152051538.07582
           X            1.00000   0.00174   0.00000
           Y           -0.00174   1.00000  -0.00001
           Z           -0.00000   0.00001   1.00000
 This molecule is an asymmetric top.
 Rotational symmetry number  1.
 Warning -- assumption of classical behavior for rotation
           may cause significant error
 Rotational temperatures (Kelvin)      0.13662     0.05713     0.05631
 Rotational constants (GHZ):           2.84671     1.19034     1.17338
 Zero-point vibrational energy     601074.4 (Joules/Mol)
                                  143.66024 (Kcal/Mol)
 Warning -- explicit consideration of  13 degrees of freedom as
           vibrations may cause significant error
 Vibrational temperatures:     88.71   278.44   305.72   309.50   371.77
          (Kelvin)            432.16   462.82   490.12   505.40   576.87
                              641.54   781.29   846.30  1108.32  1137.05
                             1164.20  1249.33  1268.10  1294.56  1302.41
                             1339.64  1347.04  1378.29  1436.52  1454.34
                             1479.97  1487.92  1508.63  1531.72  1568.88
                             1602.05  1637.83  1644.16  1711.58  1751.35
                             1757.03  1772.02  1795.67  1812.40  1819.35
                             1837.22  2010.53  2015.11  2043.12  2082.62
                             2131.11  2137.18  2139.35  2154.44  2167.91
                             2168.89  2183.43  2223.34  4343.68  4351.98
                             4355.90  4365.50  4382.19  4395.27  4441.38
                             4443.65  4446.40  4450.93  4454.83  4457.03
                             4476.02  4476.77  4479.27  4519.20

 Zero-point correction=                           0.228937 (Hartree/Particle)
 Thermal correction to Energy=                    0.238266
 Thermal correction to Enthalpy=                  0.239210
 Thermal correction to Gibbs Free Energy=         0.195461
 Sum of electronic and zero-point Energies=           -352.305114
 Sum of electronic and thermal Energies=              -352.295785
 Sum of electronic and thermal Enthalpies=            -352.294841
 Sum of electronic and thermal Free Energies=         -352.338591

                     E (Thermal)             CV                S
                      KCal/Mol        Cal/Mol-Kelvin    Cal/Mol-Kelvin
 Total                  149.514             37.670             92.078
 Electronic               0.000              0.000              0.000
 Translational            0.889              2.981             40.362
 Rotational               0.889              2.981             28.782
 Vibrational            147.737             31.708             22.934
 Vibration     1          0.597              1.973              4.404
 Vibration     2          0.635              1.849              2.194
 Vibration     3          0.644              1.822              2.022
 Vibration     4          0.645              1.818              2.000
 Vibration     5          0.667              1.749              1.673
 Vibration     6          0.693              1.673              1.415
 Vibration     7          0.707              1.632              1.302
 Vibration     8          0.720              1.594              1.209
 Vibration     9          0.728              1.573              1.160
 Vibration    10          0.767              1.468              0.959
 Vibration    11          0.805              1.370              0.808
 Vibration    12          0.898              1.155              0.559
 Vibration    13          0.945              1.057              0.470

 Optimization completed.
    -- Stationary point found.
 Normal termination of Gaussian 16 at Mon May 29 02:19:03 2023.
