 Gaussian 16, Revision A.03,
 Gaussian 16:  ES64L-G16RevA.03 25-Dec-2016

 -----------------------------
 # opt freq b3lyp/6-31g(2df,p)
 -----------------------------

 -------------------
 Title Card Required
 -------------------
 Symbolic Z-matrix:
 Charge =  0 Multiplicity = 1

 SCF Done:  E(RB3LYP) =  -276.414004258     A.U. after   12 cycles
 SCF Done:  E(RB3LYP) =  -276.415506817     A.U. after   10 cycles
 SCF Done:  E(RB3LYP) =  -276.416929662     A.U. after    9 cycles
 SCF Done:  E(RB3LYP) =  -276.417822045     A.U. after    9 cycles
 SCF Done:  E(RB3LYP) =  -276.418123837     A.U. after    9 cycles
 SCF Done:  E(RB3LYP) =  -276.418151355     A.U. after    8 cycles
 SCF Done:  E(RB3LYP) =  -276.418152262     A.U. after    6 cycles
 SCF Done:  E(RB3LYP) =  -276.418152370     A.U. after    5 cycles
 Optimization completed.
    -- Stationary point found.
 Normal termination of Gaussian 16 at Sun May 28 04:48:34 2023.

 ----------------------------------------------------------------------
 #N Geom=AllCheck Guess=TCheck SCRF=Check GenChk RB3LYP/6-31G(2df,p) Fr
 eq
 ----------------------------------------------------------------------

 Structure from the checkpoint file:  "CCqCrCCqCrC.chk"
 -------------------
 Title Card Required
 -------------------
 Charge =  0 Multiplicity = 1

                         Standard orientation:
 ---------------------------------------------------------------------
 Center     Atomic      Atomic             Coordinates (Angstroms)
 Number     Number       Type             X           Y           Z
 ---------------------------------------------------------------------
      1          6           0       -2.463749   -1.038304    0.042836
      2          6           0       -1.326897   -0.071344   -0.326706
      3          6           0       -1.719972    1.357706    0.078341
      4          6           0        0.000001   -0.567504    0.291486
      5          6           0        1.326900   -0.071353   -0.326710
      6          6           0        1.719963    1.357711    0.078297
      7          6           0        2.463755   -1.038296    0.042868
      8          1           0       -3.413300   -0.724020   -0.403193
      9          1           0       -2.606326   -1.076342    1.129822
     10          1           0       -2.251627   -2.056701   -0.299006
     11          1           0       -1.213837   -0.095991   -1.420564
     12          1           0       -1.782331    1.449536    1.169472
     13          1           0       -2.702868    1.616864   -0.330184
     14          1           0       -1.012015    2.108391   -0.278090
     15          1           0       -0.000002   -1.662259    0.210282
     16          1           0        0.000003   -0.352935    1.370781
     17          1           0        1.213848   -0.096032   -1.420568
     18          1           0        1.782307    1.449576    1.169426
     19          1           0        1.012009    2.108381   -0.278169
     20          1           0        2.702864    1.616860   -0.330221
     21          1           0        2.606325   -1.076300    1.129856
     22          1           0        3.413307   -0.724021   -0.403165
     23          1           0        2.251640   -2.056705   -0.298944
 ---------------------------------------------------------------------

 SCF Done:  E(RB3LYP) =  -276.418152370     A.U. after    1 cycles

 The electronic state is 1-A.
 Alpha  occ. eigenvalues --  -10.18200 -10.18200 -10.16994 -10.16689 -10.16689
 Alpha  occ. eigenvalues --  -10.16654 -10.16654  -0.81132  -0.77133  -0.68143
 Alpha  occ. eigenvalues --   -0.67147  -0.66843  -0.56607  -0.54959  -0.45788
 Alpha  occ. eigenvalues --   -0.45184  -0.43442  -0.42085  -0.39835  -0.38242
 Alpha  occ. eigenvalues --   -0.37845  -0.37303  -0.36613  -0.35257  -0.32872
 Alpha  occ. eigenvalues --   -0.32098  -0.31286  -0.30768  -0.29767
 Alpha virt. eigenvalues --    0.08039   0.10739   0.11408   0.12897   0.14201
 Alpha virt. eigenvalues --    0.14941   0.15854   0.15943   0.16244   0.17794
 Alpha virt. eigenvalues --    0.18665   0.19195   0.19228   0.20102   0.20956

 Mulliken charges:
               1
     1  C   -0.383930
     2  C    0.038563
     3  C   -0.383301
     4  C   -0.161407
     5  C    0.038563
     6  C   -0.383300
     7  C   -0.383930
     8  H    0.106363
     9  H    0.110578
    10  H    0.107631
    11  H    0.068070
    12  H    0.109654
    13  H    0.106932
    14  H    0.115879
    15  H    0.084697
    16  H    0.083833
    17  H    0.068070
    18  H    0.109654
    19  H    0.115879
    20  H    0.106932
    21  H    0.110578
    22  H    0.106363
    23  H    0.107631
 Sum of Mulliken charges =  -0.00000

 Dipole moment (field-independent basis, Debye):
    X=              0.0000    Y=             -0.0185    Z=             -0.1191  Tot=              0.1205
 Quadrupole moment (field-independent basis, Debye-Ang):
   XX=            -48.7481   YY=            -48.6903   ZZ=            -47.5973
   XY=              0.0000   XZ=             -0.0000   YZ=              0.0465

  Exact polarizability:  89.232  -0.000  77.392  -0.000   0.129  67.717
 Approx polarizability: 108.203  -0.000 105.172  -0.000   0.034 105.619

 ******    1 imaginary frequencies (negative Signs) ******

                      1                      2                      3
                      A                      A                      A
 Frequencies --    -56.6115                94.5626               189.3732
 Red. masses --      2.3083                 2.0062                 1.8868
 Frc consts  --      0.0044                 0.0106                 0.0399
 IR Inten    --      0.0272                 0.0062                 0.0165

                      4                      5                      6
                      A                      A                      A
 Frequencies --    191.7702               240.5917               242.3385
 Red. masses --      1.0627                 1.0630                 1.1972
 Frc consts  --      0.0230                 0.0363                 0.0414
 IR Inten    --      0.1499                 0.0005                 0.0013

                      7                      8                      9
                      A                      A                      A
 Frequencies --    257.4872               288.9673               333.3902
 Red. masses --      1.3446                 2.6222                 2.0778
 Frc consts  --      0.0525                 0.1290                 0.1361
 IR Inten    --      0.0037                 0.1851                 0.0359

                     10                     11                     12
                      A                      A                      A
 Frequencies --    401.1365               409.9653               456.1069
 Red. masses --      2.0498                 1.6536                 2.0840
 Frc consts  --      0.1943                 0.1637                 0.2554
 IR Inten    --      0.0002                 0.1235                 0.0530

                     13                     14                     15
                      A                      A                      A
 Frequencies --    479.4387               803.0288               838.2939
 Red. masses --      2.3384                 2.4430                 2.8413
 Frc consts  --      0.3167                 0.9282                 1.1764
 IR Inten    --      0.1581                 1.1331                 0.0405

                     16                     17                     18
                      A                      A                      A
 Frequencies --    863.2540               920.8403               922.2423
 Red. masses --      1.3975                 1.1813                 1.3969
 Frc consts  --      0.6136                 0.5902                 0.7000
 IR Inten    --      0.6791                 1.1279                 0.7550

                     19                     20                     21
                      A                      A                      A
 Frequencies --    943.5173               959.6643               967.6419
 Red. masses --      1.6514                 1.5014                 1.5441
 Frc consts  --      0.8662                 0.8147                 0.8518
 IR Inten    --      0.3741                 0.7243                 0.0404

                     22                     23                     24
                      A                      A                      A
 Frequencies --    988.4235              1061.1212              1089.8833
 Red. masses --      1.6054                 1.4940                 2.0728
 Frc consts  --      0.9241                 0.9911                 1.4507
 IR Inten    --      3.4368                 0.1627                 0.1221

                     25                     26                     27
                      A                      A                      A
 Frequencies --   1167.8334              1185.2669              1191.3850
 Red. masses --      2.1326                 1.6979                 1.8722
 Frc consts  --      1.7137                 1.4053                 1.5657
 IR Inten    --      2.7139                 6.7142                 0.5388

                     28                     29                     30
                      A                      A                      A
 Frequencies --   1201.5216              1267.7310              1311.5996
 Red. masses --      2.1231                 1.3683                 1.1637
 Frc consts  --      1.8059                 1.2957                 1.1795
 IR Inten    --      0.1526                 6.9878                 2.0987

                     31                     32                     33
                      A                      A                      A
 Frequencies --   1350.7465              1363.9209              1377.6744
 Red. masses --      1.3569                 1.3887                 1.3679
 Frc consts  --      1.4586                 1.5221                 1.5297
 IR Inten    --      4.9812                 4.2047                 1.6594

                     34                     35                     36
                      A                      A                      A
 Frequencies --   1383.6824              1398.9723              1402.8802
 Red. masses --      1.3407                 1.3123                 1.2468
 Frc consts  --      1.5124                 1.5132                 1.4457
 IR Inten    --      2.5185                 0.0012                 6.3729

                     37                     38                     39
                      A                      A                      A
 Frequencies --   1422.6156              1423.9246              1475.6240
 Red. masses --      1.2158                 1.2482                 1.0799
 Frc consts  --      1.4497                 1.4912                 1.3854
 IR Inten    --      2.5082                 1.8719                 0.6461

                     40                     41                     42
                      A                      A                      A
 Frequencies --   1481.2366              1487.9110              1491.8906
 Red. masses --      1.0456                 1.0522                 1.0442
 Frc consts  --      1.3517                 1.3724                 1.3694
 IR Inten    --      1.2296                 0.0692                 2.9918

                     43                     44                     45
                      A                      A                      A
 Frequencies --   1499.2831              1503.6294              1506.0377
 Red. masses --      1.0599                 1.0574                 1.0512
 Frc consts  --      1.4037                 1.4086                 1.4048
 IR Inten    --      3.3037                 0.4891                 4.7644

                     46                     47                     48
                      A                      A                      A
 Frequencies --   1507.8974              1518.7917              2990.5710
 Red. masses --      1.0554                 1.0456                 1.0709
 Frc consts  --      1.4139                 1.4210                 5.6430
 IR Inten    --      1.1957                15.1159                 4.1564

                     49                     50                     51
                      A                      A                      A
 Frequencies --   2990.6897              3002.3148              3021.0714
 Red. masses --      1.0826                 1.0704                 1.0357
 Frc consts  --      5.7053                 5.6847                 5.5693
 IR Inten    --      0.9469                45.5332                18.2556

                     52                     53                     54
                      A                      A                      A
 Frequencies --   3021.8875              3028.3647              3031.9504
 Red. masses --      1.0365                 1.0385                 1.0406
 Frc consts  --      5.5769                 5.6114                 5.6361
 IR Inten    --     38.3628                27.8438                28.1455

                     55                     56                     57
                      A                      A                      A
 Frequencies --   3037.3450              3083.9977              3084.4840
 Red. masses --      1.1003                 1.1005                 1.1006
 Frc consts  --      5.9809                 6.1672                 6.1696
 IR Inten    --     34.6833                 2.4166                 4.7155

                     58                     59                     60
                      A                      A                      A
 Frequencies --   3089.7146              3091.4768              3096.9569
 Red. masses --      1.1003                 1.0999                 1.1017
 Frc consts  --      6.1885                 6.1933                 6.2255
 IR Inten    --     18.4812               113.5606                38.9585

                     61                     62                     63
                      A                      A                      A
 Frequencies --   3097.8710              3116.5051              3133.5446
 Red. masses --      1.1014                 1.0986                 1.0939
 Frc consts  --      6.2274                 6.2866                 6.3285
 IR Inten    --     45.1056                44.4788                28.2315

 - Thermochemistry -
 -------------------
 Temperature   298.150 Kelvin.  Pressure   1.00000 Atm.
 Atom     1 has atomic number  6 and mass  12.00000

 Molecular mass:   100.12520 amu.
 Principal axes and moments of inertia in atomic units:
                           1         2         3
     Eigenvalues --   440.661861244.446731570.93023
           X            1.00000   0.00000   0.00000
           Y           -0.00000   1.00000  -0.00028
           Z           -0.00000   0.00028   1.00000
 This molecule is an asymmetric top.
 Rotational symmetry number  1.
 Warning -- assumption of classical behavior for rotation
           may cause significant error
 Rotational temperatures (Kelvin)      0.19655     0.06960     0.05514
 Rotational constants (GHZ):           4.09552     1.45024     1.14884
    1 imaginary frequencies ignored.
 Zero-point vibrational energy     566933.3 (Joules/Mol)
                                  135.50030 (Kcal/Mol)
 Warning -- explicit consideration of  12 degrees of freedom as
           vibrations may cause significant error
 Vibrational temperatures:    136.05   272.47   275.91   346.16   348.67
          (Kelvin)            370.47   415.76   479.67   577.15   589.85
                              656.24   689.81  1155.38  1206.12  1242.03
                             1324.88  1326.90  1357.51  1380.74  1392.22
                             1422.12  1526.72  1568.10  1680.25  1705.33
                             1714.14  1728.72  1823.98  1887.10  1943.42
                             1962.38  1982.17  1990.81  2012.81  2018.43
                             2046.83  2048.71  2123.09  2131.17  2140.77
                             2146.50  2157.13  2163.39  2166.85  2169.53
                             2185.20  4302.76  4302.94  4319.66  4346.65
                             4347.82  4357.14  4362.30  4370.06  4437.18
                             4437.88  4445.41  4447.95  4455.83  4457.15
                             4483.96  4508.47

 Zero-point correction=                           0.215933 (Hartree/Particle)
 Thermal correction to Energy=                    0.224789
 Thermal correction to Enthalpy=                  0.225733
 Thermal correction to Gibbs Free Energy=         0.183352
 Sum of electronic and zero-point Energies=           -276.202219
 Sum of electronic and thermal Energies=              -276.193364
 Sum of electronic and thermal Enthalpies=            -276.192419
 Sum of electronic and thermal Free Energies=         -276.234800

                     E (Thermal)             CV                S
                      KCal/Mol        Cal/Mol-Kelvin    Cal/Mol-Kelvin
 Total                  141.057             33.516             89.197
 Electronic               0.000              0.000              0.000
 Translational            0.889              2.981             39.722
 Rotational               0.889              2.981             28.245
 Vibrational            139.280             27.555             21.230
 Vibration     1          0.603              1.953              3.563
 Vibration     2          0.633              1.854              2.234
 Vibration     3          0.634              1.851              2.211
 Vibration     4          0.658              1.778              1.798
 Vibration     5          0.659              1.775              1.786
 Vibration     6          0.667              1.750              1.679
 Vibration     7          0.686              1.694              1.480
 Vibration     8          0.715              1.609              1.244
 Vibration     9          0.767              1.468              0.958
 Vibration    10          0.774              1.449              0.927
 Vibration    11          0.814              1.347              0.778
 Vibration    12          0.836              1.296              0.712

 Optimization completed.
    -- Stationary point found.
 Normal termination of Gaussian 16 at Sun May 28 05:12:50 2023.
