 Gaussian 16, Revision A.03,
 Gaussian 16:  ES64L-G16RevA.03 25-Dec-2016

 -----------------------------
 # opt freq b3lyp/6-31g(2df,p)
 -----------------------------

 -------------------
 Title Card Required
 -------------------
 Symbolic Z-matrix:
 Charge =  0 Multiplicity = 1

 SCF Done:  E(RB3LYP) =  -313.191205943     A.U. after   12 cycles
 SCF Done:  E(RB3LYP) =  -313.210084836     A.U. after   11 cycles
 SCF Done:  E(RB3LYP) =  -313.216373053     A.U. after   11 cycles
 SCF Done:  E(RB3LYP) =  -313.218350669     A.U. after   10 cycles
 SCF Done:  E(RB3LYP) =  -313.218753934     A.U. after   10 cycles
 SCF Done:  E(RB3LYP) =  -313.218911772     A.U. after    9 cycles
 SCF Done:  E(RB3LYP) =  -313.218937329     A.U. after    9 cycles
 SCF Done:  E(RB3LYP) =  -313.218944170     A.U. after    7 cycles
 SCF Done:  E(RB3LYP) =  -313.218946338     A.U. after    7 cycles
 SCF Done:  E(RB3LYP) =  -313.218946594     A.U. after    6 cycles
 Optimization completed.
    -- Stationary point found.
 Normal termination of Gaussian 16 at Sun May 28 06:19:16 2023.

 ----------------------------------------------------------------------
 #N Geom=AllCheck Guess=TCheck SCRF=Check GenChk RB3LYP/6-31G(2df,p) Fr
 eq
 ----------------------------------------------------------------------

 Structure from the checkpoint file:  "CCqCrC1C2CC1C2.chk"
 -------------------
 Title Card Required
 -------------------
 Charge =  0 Multiplicity = 1

                         Standard orientation:
 ---------------------------------------------------------------------
 Center     Atomic      Atomic             Coordinates (Angstroms)
 Number     Number       Type             X           Y           Z
 ---------------------------------------------------------------------
      1          6           0        1.775326    1.335300   -0.020242
      2          6           0        1.372928   -0.081756   -0.455576
      3          6           0        2.203968   -1.123305    0.314650
      4          6           0       -0.108499   -0.495016   -0.416941
      5          6           0       -1.052010   -0.462542    0.836314
      6          6           0       -2.223934   -0.696694   -0.163301
      7          6           0       -1.329444    0.401789   -0.812541
      8          6           0       -1.282513    1.059117    0.600159
      9          1           0        2.839928    1.489333   -0.228980
     10          1           0        1.633391    1.494481    1.053722
     11          1           0        1.220599    2.108582   -0.559159
     12          1           0        1.654518   -0.166082   -1.516280
     13          1           0        1.982258   -1.083004    1.387435
     14          1           0        3.276790   -0.942701    0.190140
     15          1           0        1.992601   -2.140960   -0.029921
     16          1           0       -0.153245   -1.472982   -0.915184
     17          1           0       -0.901563   -0.966172    1.793079
     18          1           0       -3.214418   -0.376982    0.171508
     19          1           0       -2.261827   -1.667020   -0.666251
     20          1           0       -1.498889    0.901845   -1.768371
     21          1           0       -2.234003    1.455828    0.967504
     22          1           0       -0.471064    1.744470    0.825624
 ---------------------------------------------------------------------

 SCF Done:  E(RB3LYP) =  -313.218946594     A.U. after    1 cycles

 The electronic state is 1-A.
 Alpha  occ. eigenvalues --  -10.19314 -10.19292 -10.18432 -10.18406 -10.18009
 Alpha  occ. eigenvalues --  -10.17659 -10.16927 -10.16875  -0.90216  -0.78685
 Alpha  occ. eigenvalues --   -0.68215  -0.66118  -0.65095  -0.61589  -0.57325
 Alpha  occ. eigenvalues --   -0.51263  -0.48866  -0.45836  -0.44239  -0.43119
 Alpha  occ. eigenvalues --   -0.39255  -0.38736  -0.37600  -0.34589  -0.34214
 Alpha  occ. eigenvalues --   -0.32741  -0.31757  -0.30549  -0.29993  -0.28816
 Alpha  occ. eigenvalues --   -0.28567
 Alpha virt. eigenvalues --    0.08507   0.11445   0.12386   0.12679   0.14188
 Alpha virt. eigenvalues --    0.14627   0.15380   0.15609   0.16491   0.16684
 Alpha virt. eigenvalues --    0.17788   0.18416   0.19254   0.19531   0.20218

 Mulliken charges:
               1
     1  C   -0.397769
     2  C   -0.020160
     3  C   -0.379843
     4  C    0.088959
     5  C   -0.060071
     6  C   -0.212833
     7  C   -0.081447
     8  C   -0.213509
     9  H    0.104624
    10  H    0.118493
    11  H    0.116709
    12  H    0.074237
    13  H    0.114486
    14  H    0.107125
    15  H    0.109106
    16  H    0.057879
    17  H    0.063758
    18  H    0.085468
    19  H    0.085178
    20  H    0.062858
    21  H    0.082069
    22  H    0.094681
 Sum of Mulliken charges =  -0.00000

 Dipole moment (field-independent basis, Debye):
    X=              0.2054    Y=             -0.0057    Z=             -0.0998  Tot=              0.2284
 Quadrupole moment (field-independent basis, Debye-Ang):
   XX=            -51.6380   YY=            -51.8445   ZZ=            -51.3648
   XY=              0.0499   XZ=             -0.3033   YZ=              0.0852

  Exact polarizability:  93.911  -0.117  80.128  -0.641   1.065  73.064
 Approx polarizability: 121.241  -0.499 117.021  -1.156   1.365 115.380

                      1                      2                      3
                      A                      A                      A
 Frequencies --     55.6416               174.0931               229.6953
 Red. masses --      2.6637                 2.5913                 1.1522
 Frc consts  --      0.0049                 0.0463                 0.0358
 IR Inten    --      0.0056                 0.0451                 0.0022

                      4                      5                      6
                      A                      A                      A
 Frequencies --    264.9653               324.3334               339.8021
 Red. masses --      2.3947                 2.1586                 1.1823
 Frc consts  --      0.0991                 0.1338                 0.0804
 IR Inten    --      0.1096                 0.1465                 0.0310

                      7                      8                      9
                      A                      A                      A
 Frequencies --    369.6490               449.2185               555.0137
 Red. masses --      2.4114                 2.4574                 2.1172
 Frc consts  --      0.1941                 0.2922                 0.3843
 IR Inten    --      0.4008                 0.2796                 0.8244

                     10                     11                     12
                      A                      A                      A
 Frequencies --    622.2261               765.0927               804.1875
 Red. masses --      2.0896                 2.9559                 2.8447
 Frc consts  --      0.4767                 1.0195                 1.0839
 IR Inten    --      0.7250                 0.0326                 0.3706

                     13                     14                     15
                      A                      A                      A
 Frequencies --    812.9247               876.2852               891.2142
 Red. masses --      2.7845                 2.1846                 2.1992
 Frc consts  --      1.0842                 0.9883                 1.0292
 IR Inten    --      0.7188                 2.1235                 0.1297

                     16                     17                     18
                      A                      A                      A
 Frequencies --    897.4304               903.4853               927.3879
 Red. masses --      2.5698                 2.4295                 1.1744
 Frc consts  --      1.2194                 1.1685                 0.5951
 IR Inten    --      0.0162                 0.3443                 0.6119

                     19                     20                     21
                      A                      A                      A
 Frequencies --    965.0183              1005.6893              1011.3194
 Red. masses --      1.5083                 1.3691                 1.1753
 Frc consts  --      0.8276                 0.8158                 0.7082
 IR Inten    --      0.1627                 3.2304                 1.8205

                     22                     23                     24
                      A                      A                      A
 Frequencies --   1031.8035              1038.5921              1070.8292
 Red. masses --      1.0236                 1.6312                 1.3255
 Frc consts  --      0.6420                 1.0367                 0.8955
 IR Inten    --      0.3812                 1.2623                 0.1845

                     25                     26                     27
                      A                      A                      A
 Frequencies --   1106.9601              1114.3181              1136.5446
 Red. masses --      1.6183                 2.5767                 1.9544
 Frc consts  --      1.1683                 1.8851                 1.4874
 IR Inten    --      3.2466                 0.6164                 0.9600

                     28                     29                     30
                      A                      A                      A
 Frequencies --   1147.0304              1163.8890              1190.0255
 Red. masses --      1.4981                 1.8128                 1.4138
 Frc consts  --      1.1613                 1.4469                 1.1796
 IR Inten    --      0.2701                 0.2468                 0.0549

                     31                     32                     33
                      A                      A                      A
 Frequencies --   1219.1947              1221.1308              1244.6090
 Red. masses --      1.7057                 1.5336                 1.6852
 Frc consts  --      1.4938                 1.3473                 1.5380
 IR Inten    --      0.2567                 1.4669                 1.2930

                     34                     35                     36
                      A                      A                      A
 Frequencies --   1252.9722              1285.1776              1336.5347
 Red. masses --      1.6797                 2.0370                 1.3535
 Frc consts  --      1.5537                 1.9823                 1.4246
 IR Inten    --     12.7066                 0.5426                 5.9590

                     37                     38                     39
                      A                      A                      A
 Frequencies --   1369.9793              1397.6009              1415.0603
 Red. masses --      1.3953                 1.2267                 1.2202
 Frc consts  --      1.5429                 1.4118                 1.4396
 IR Inten    --      2.9437                 3.0124                 1.3851

                     40                     41                     42
                      A                      A                      A
 Frequencies --   1447.1402              1488.2385              1496.4151
 Red. masses --      1.2408                 1.0472                 1.0594
 Frc consts  --      1.5311                 1.3666                 1.3977
 IR Inten    --      9.5533                 0.9668                 3.1179

                     43                     44                     45
                      A                      A                      A
 Frequencies --   1502.6367              1508.7344              1515.4353
 Red. masses --      1.0845                 1.0456                 1.0727
 Frc consts  --      1.4428                 1.4024                 1.4514
 IR Inten    --      1.7929                 7.3512                 6.0470

                     46                     47                     48
                      A                      A                      A
 Frequencies --   1548.2882              2980.4866              3004.6515
 Red. masses --      1.1320                 1.0818                 1.0832
 Frc consts  --      1.5989                 5.6619                 5.7616
 IR Inten    --      2.2729                15.1635                54.5743

                     49                     50                     51
                      A                      A                      A
 Frequencies --   3024.7037              3030.5429              3045.8235
 Red. masses --      1.0350                 1.0362                 1.0540
 Frc consts  --      5.5790                 5.6072                 5.7612
 IR Inten    --     28.2399                18.5710                53.5558

                     52                     53                     54
                      A                      A                      A
 Frequencies --   3057.8148              3085.8989              3087.3331
 Red. masses --      1.0673                 1.0905                 1.0999
 Frc consts  --      5.8798                 6.1185                 6.1770
 IR Inten    --     48.6519                97.7658                22.2465

                     55                     56                     57
                      A                      A                      A
 Frequencies --   3093.2248              3094.2715              3097.9734
 Red. masses --      1.0963                 1.0973                 1.1015
 Frc consts  --      6.1802                 6.1899                 6.2286
 IR Inten    --     17.5166                53.6223                41.8060

                     58                     59                     60
                      A                      A                      A
 Frequencies --   3108.7330              3112.2929              3181.4578
 Red. masses --      1.1016                 1.1107                 1.0943
 Frc consts  --      6.2723                 6.3386                 6.5260
 IR Inten    --     33.3721                51.6009                23.7373

 - Thermochemistry -
 -------------------
 Temperature   298.150 Kelvin.  Pressure   1.00000 Atm.
 Atom     1 has atomic number  6 and mass  12.00000

 Molecular mass:   110.10955 amu.
 Principal axes and moments of inertia in atomic units:
                           1         2         3
     Eigenvalues --   474.877761185.405841361.46984
           X            0.99999   0.00062   0.00319
           Y           -0.00066   0.99993   0.01222
           Z           -0.00319  -0.01222   0.99992
 This molecule is an asymmetric top.
 Rotational symmetry number  1.
 Warning -- assumption of classical behavior for rotation
           may cause significant error
 Rotational temperatures (Kelvin)      0.18239     0.07307     0.06362
 Rotational constants (GHZ):           3.80043     1.52247     1.32558
 Zero-point vibrational energy     529341.7 (Joules/Mol)
                                  126.51570 (Kcal/Mol)
 Warning -- explicit consideration of   9 degrees of freedom as
           vibrations may cause significant error
 Vibrational temperatures:     80.06   250.48   330.48   381.23   466.64
          (Kelvin)            488.90   531.84   646.33   798.54   895.24
                             1100.80  1157.05  1169.62  1260.78  1282.26
                             1291.20  1299.91  1334.30  1388.45  1446.96
                             1455.06  1484.54  1494.30  1540.68  1592.67
                             1603.26  1635.23  1650.32  1674.58  1712.18
                             1754.15  1756.93  1790.71  1802.75  1849.08
                             1922.98  1971.09  2010.84  2035.96  2082.11
                             2141.24  2153.01  2161.96  2170.73  2180.37
                             2227.64  4288.26  4323.02  4351.87  4360.28
                             4382.26  4399.51  4439.92  4441.98  4450.46
                             4451.97  4457.29  4472.77  4477.90  4577.41

 Zero-point correction=                           0.201616 (Hartree/Particle)
 Thermal correction to Energy=                    0.209540
 Thermal correction to Enthalpy=                  0.210484
 Thermal correction to Gibbs Free Energy=         0.169395
 Sum of electronic and zero-point Energies=           -313.017331
 Sum of electronic and thermal Energies=              -313.009406
 Sum of electronic and thermal Enthalpies=            -313.008462
 Sum of electronic and thermal Free Energies=         -313.049552

                     E (Thermal)             CV                S
                      KCal/Mol        Cal/Mol-Kelvin    Cal/Mol-Kelvin
 Total                  131.488             31.557             86.480
 Electronic               0.000              0.000              0.000
 Translational            0.889              2.981             40.005
 Rotational               0.889              2.981             28.129
 Vibrational            129.711             25.595             18.346
 Vibration     1          0.596              1.975              4.606
 Vibration     2          0.627              1.874              2.391
 Vibration     3          0.652              1.796              1.881
 Vibration     4          0.671              1.737              1.629
 Vibration     5          0.709              1.627              1.288
 Vibration     6          0.720              1.596              1.213
 Vibration     7          0.742              1.535              1.081
 Vibration     8          0.808              1.363              0.798
 Vibration     9          0.910              1.129              0.534

 Optimization completed.
    -- Stationary point found.
 Normal termination of Gaussian 16 at Sun May 28 06:52:04 2023.
