 Gaussian 16, Revision A.03,
 Gaussian 16:  ES64L-G16RevA.03 25-Dec-2016

 -----------------------------
 # opt freq b3lyp/6-31g(2df,p)
 -----------------------------

 -------------------
 Title Card Required
 -------------------
 Symbolic Z-matrix:
 Charge =  0 Multiplicity = 1

 SCF Done:  E(RB3LYP) =  -563.015275253     A.U. after   12 cycles
 SCF Done:  E(RB3LYP) =  -563.026152683     A.U. after   11 cycles
 SCF Done:  E(RB3LYP) =  -563.030442758     A.U. after   10 cycles
 SCF Done:  E(RB3LYP) =  -563.032999278     A.U. after   10 cycles
 SCF Done:  E(RB3LYP) =  -563.034241654     A.U. after   11 cycles
 SCF Done:  E(RB3LYP) =  -563.034397765     A.U. after   10 cycles
 SCF Done:  E(RB3LYP) =  -563.034441630     A.U. after    9 cycles
 SCF Done:  E(RB3LYP) =  -563.034473960     A.U. after    8 cycles
 SCF Done:  E(RB3LYP) =  -563.034495072     A.U. after    9 cycles
 SCF Done:  E(RB3LYP) =  -563.034515782     A.U. after    9 cycles
 SCF Done:  E(RB3LYP) =  -563.034538609     A.U. after    9 cycles
 SCF Done:  E(RB3LYP) =  -563.034547208     A.U. after    8 cycles
 SCF Done:  E(RB3LYP) =  -563.034553596     A.U. after    9 cycles
 SCF Done:  E(RB3LYP) =  -563.034555239     A.U. after    8 cycles
 SCF Done:  E(RB3LYP) =  -563.034555357     A.U. after    7 cycles
 Optimization completed.
    -- Stationary point found.
 Normal termination of Gaussian 16 at Mon May 22 16:55:52 2023.

 ----------------------------------------------------------------------
 #N Geom=AllCheck Guess=TCheck SCRF=Check GenChk RB3LYP/6-31G(2df,p) Fr
 eq
 ----------------------------------------------------------------------

 Structure from the checkpoint file:  "CCqCrCC1NCCCCCqCrO1.chk"
 -------------------
 Title Card Required
 -------------------
 Charge =  0 Multiplicity = 1

                         Standard orientation:
 ---------------------------------------------------------------------
 Center     Atomic      Atomic             Coordinates (Angstroms)
 Number     Number       Type             X           Y           Z
 ---------------------------------------------------------------------
      1          6           0       -3.982377   -1.080559   -0.800769
      2          6           0       -2.848564   -0.098638   -0.467961
      3          6           0       -3.387354    1.069981    0.369708
      4          6           0       -1.683166   -0.850381    0.207279
      5          6           0       -0.300198   -0.188064    0.120450
      6          7           0       -0.236008    0.996320    0.928078
      7          6           0        0.889781    1.933879    0.860539
      8          6           0        1.491899    2.117859   -0.543046
      9          6           0        2.670345    1.193566   -0.898886
     10          6           0        2.434687   -0.324432   -0.984454
     11          6           0        2.014244   -1.028073    0.327208
     12          6           0        2.634474   -2.419310    0.444158
     13          8           0        0.610923   -1.242000    0.459146
     14          1           0       -4.817313   -0.568921   -1.291275
     15          1           0       -4.372770   -1.549247    0.110910
     16          1           0       -3.640000   -1.881600   -1.464475
     17          1           0       -2.474964    0.311137   -1.418070
     18          1           0       -3.802318    0.703994    1.317685
     19          1           0       -4.192254    1.590618   -0.160819
     20          1           0       -2.597022    1.785936    0.600342
     21          1           0       -1.571166   -1.834289   -0.258432
     22          1           0       -1.918361   -1.040713    1.264000
     23          1           0       -0.122020    0.111453   -0.919117
     24          1           0       -0.477110    0.786276    1.889513
     25          1           0        1.705291    1.667104    1.552968
     26          1           0        0.509416    2.904079    1.204554
     27          1           0        1.869223    3.145365   -0.599834
     28          1           0        0.698064    2.055823   -1.296794
     29          1           0        3.466932    1.368836   -0.161780
     30          1           0        3.080525    1.526741   -1.860453
     31          1           0        3.380267   -0.773160   -1.310888
     32          1           0        1.709702   -0.571431   -1.769552
     33          1           0        2.372205   -0.424052    1.176470
     34          1           0        2.362881   -3.031459   -0.422189
     35          1           0        2.267143   -2.920554    1.343531
     36          1           0        3.725695   -2.355152    0.498627
 ---------------------------------------------------------------------

 SCF Done:  E(RB3LYP) =  -563.034555357     A.U. after    1 cycles

 The electronic state is 1-A.
 Alpha  occ. eigenvalues --  -19.11907 -14.30902 -10.24330 -10.22399 -10.20562
 Alpha  occ. eigenvalues --  -10.18227 -10.18186 -10.17816 -10.17707 -10.16730
 Alpha  occ. eigenvalues --  -10.16647 -10.16354 -10.15612  -1.01617  -0.89232
 Alpha  occ. eigenvalues --   -0.80712  -0.78891  -0.74915  -0.72642  -0.68663
 Alpha  occ. eigenvalues --   -0.66910  -0.63966  -0.60576  -0.58979  -0.55416
 Alpha  occ. eigenvalues --   -0.54728  -0.50417  -0.47490  -0.46906  -0.45537
 Alpha  occ. eigenvalues --   -0.44216  -0.43586  -0.42205  -0.41678  -0.40481
 Alpha  occ. eigenvalues --   -0.40315  -0.38522  -0.37710  -0.37528  -0.37076
 Alpha  occ. eigenvalues --   -0.35741  -0.34603  -0.33796  -0.33408  -0.32686
 Alpha  occ. eigenvalues --   -0.32337  -0.31440  -0.31217  -0.31078  -0.29174
 Alpha  occ. eigenvalues --   -0.25105  -0.21267
 Alpha virt. eigenvalues --    0.07886   0.08803   0.09469   0.11246   0.11811
 Alpha virt. eigenvalues --    0.12751   0.13148   0.14376   0.14691   0.15533
 Alpha virt. eigenvalues --    0.15779   0.16233   0.16622   0.16944   0.17420

 Mulliken charges:
               1
     1  C   -0.385850
     2  C    0.052025
     3  C   -0.384013
     4  C   -0.200114
     5  C    0.107989
     6  N   -0.275134
     7  C   -0.151630
     8  C   -0.193698
     9  C   -0.194867
    10  C   -0.224034
    11  C    0.165124
    12  C   -0.399241
    13  O   -0.287456
    14  H    0.105368
    15  H    0.110093
    16  H    0.106554
    17  H    0.064893
    18  H    0.099752
    19  H    0.099086
    20  H    0.127665
    21  H    0.101590
    22  H    0.087216
    23  H    0.071123
    24  H    0.216488
    25  H    0.086875
    26  H    0.095029
    27  H    0.097139
    28  H    0.107387
    29  H    0.096062
    30  H    0.093969
    31  H    0.094816
    32  H    0.106462
    33  H    0.061490
    34  H    0.117046
    35  H    0.119184
    36  H    0.105611
 Sum of Mulliken charges =  -0.00000

 Dipole moment (field-independent basis, Debye):
    X=              1.1835    Y=              0.8888    Z=             -0.0809  Tot=              1.4823
 Quadrupole moment (field-independent basis, Debye-Ang):
   XX=            -82.7732   YY=            -85.3202   ZZ=            -80.9385
   XY=              1.5427   XZ=             -0.3376   YZ=              0.8275

  Exact polarizability: 148.475  -0.955 130.784  -1.227   0.955 111.735
 Approx polarizability: 183.662   0.033 179.016  -0.215   0.569 175.554

                      1                      2                      3
                      A                      A                      A
 Frequencies --     24.8623                46.5536                70.9060
 Red. masses --      2.6294                 3.4322                 3.3035
 Frc consts  --      0.0010                 0.0044                 0.0098
 IR Inten    --      0.0575                 1.0226                 0.1246

                      4                      5                      6
                      A                      A                      A
 Frequencies --    122.1401               134.3219               181.0506
 Red. masses --      3.3456                 2.3966                 2.5793
 Frc consts  --      0.0294                 0.0255                 0.0498
 IR Inten    --      0.6450                 0.4373                 0.7084

                      7                      8                      9
                      A                      A                      A
 Frequencies --    203.8683               230.3589               245.7699
 Red. masses --      1.8794                 1.1145                 1.3297
 Frc consts  --      0.0460                 0.0348                 0.0473
 IR Inten    --      0.4865                 0.0422                 1.2486

                     10                     11                     12
                      A                      A                      A
 Frequencies --    254.2835               261.7446               276.0768
 Red. masses --      1.3822                 2.7335                 1.8854
 Frc consts  --      0.0527                 0.1103                 0.0847
 IR Inten    --      1.2971                 0.7460                 0.6668

                     13                     14                     15
                      A                      A                      A
 Frequencies --    284.4371               314.5900               358.6450
 Red. masses --      2.7815                 1.9785                 2.4642
 Frc consts  --      0.1326                 0.1154                 0.1867
 IR Inten    --      0.4126                 0.0898                 0.9871

                     16                     17                     18
                      A                      A                      A
 Frequencies --    371.6635               417.4488               424.1067
 Red. masses --      2.3706                 2.2824                 2.0079
 Frc consts  --      0.1929                 0.2343                 0.2128
 IR Inten    --      0.5818                 1.0612                 1.3733

                     19                     20                     21
                      A                      A                      A
 Frequencies --    459.7320               479.6750               480.4616
 Red. masses --      2.5697                 2.0395                 1.7825
 Frc consts  --      0.3200                 0.2765                 0.2424
 IR Inten    --      1.8885                 1.3819                27.9409

                     22                     23                     24
                      A                      A                      A
 Frequencies --    557.0160               620.9359               671.6756
 Red. masses --      2.0973                 2.5575                 2.5261
 Frc consts  --      0.3834                 0.5810                 0.6715
 IR Inten    --     30.5635                 8.6007                72.0958

                     25                     26                     27
                      A                      A                      A
 Frequencies --    762.9550               799.1090               831.0171
 Red. masses --      2.4702                 2.4270                 1.9237
 Frc consts  --      0.8472                 0.9131                 0.7827
 IR Inten    --      1.9115                 3.3074                 2.2993

                     28                     29                     30
                      A                      A                      A
 Frequencies --    840.4450               862.7278               900.8143
 Red. masses --      2.0722                 1.7218                 1.6697
 Frc consts  --      0.8624                 0.7551                 0.7983
 IR Inten    --      2.5888                 1.2254                16.7994

                     31                     32                     33
                      A                      A                      A
 Frequencies --    913.9361               928.1968               945.4946
 Red. masses --      2.3253                 1.2073                 1.7308
 Frc consts  --      1.1444                 0.6128                 0.9116
 IR Inten    --     12.8533                 3.5675                 2.9784

                     34                     35                     36
                      A                      A                      A
 Frequencies --    963.6014               968.6390               985.2233
 Red. masses --      1.5973                 2.0439                 2.1904
 Frc consts  --      0.8739                 1.1299                 1.2527
 IR Inten    --      7.3321                 9.0326                 5.7071

                     37                     38                     39
                      A                      A                      A
 Frequencies --   1011.1410              1024.5600              1033.3214
 Red. masses --      2.1044                 1.8583                 2.0537
 Frc consts  --      1.2677                 1.1493                 1.2920
 IR Inten    --     54.5771                85.6436                22.8486

                     40                     41                     42
                      A                      A                      A
 Frequencies --   1081.1918              1098.2481              1116.4932
 Red. masses --      2.3997                 2.2175                 2.0239
 Frc consts  --      1.6527                 1.5759                 1.4865
 IR Inten    --     16.6124                21.3401                51.4653

                     43                     44                     45
                      A                      A                      A
 Frequencies --   1136.6858              1141.0705              1152.8871
 Red. masses --      2.1053                 2.0638                 2.3789
 Frc consts  --      1.6027                 1.5833                 1.8630
 IR Inten    --      6.8069                 3.7879                 4.7000

                     46                     47                     48
                      A                      A                      A
 Frequencies --   1177.4795              1191.6723              1198.1069
 Red. masses --      1.9659                 1.8783                 1.8723
 Frc consts  --      1.6059                 1.5716                 1.5835
 IR Inten    --     26.5427                39.6677                25.8549

                     49                     50                     51
                      A                      A                      A
 Frequencies --   1205.6066              1246.9446              1263.9703
 Red. masses --      1.8673                 1.3062                 1.2518
 Frc consts  --      1.5991                 1.1966                 1.1783
 IR Inten    --     31.1236                 4.1223                 9.9163

                     52                     53                     54
                      A                      A                      A
 Frequencies --   1277.3404              1306.7697              1309.8523
 Red. masses --      1.2993                 1.1697                 1.2083
 Frc consts  --      1.2490                 1.1769                 1.2215
 IR Inten    --      1.3127                 0.5184                17.3037

                     55                     56                     57
                      A                      A                      A
 Frequencies --   1350.1592              1358.9175              1360.8866
 Red. masses --      1.2379                 1.2560                 1.3950
 Frc consts  --      1.3296                 1.3666                 1.5222
 IR Inten    --      1.9703                 5.9355                 0.4385

                     58                     59                     60
                      A                      A                      A
 Frequencies --   1372.1685              1379.8069              1383.0572
 Red. masses --      1.2711                 1.3653                 1.3147
 Frc consts  --      1.4101                 1.5315                 1.4817
 IR Inten    --     18.2257                 6.0665                 7.1321

                     61                     62                     63
                      A                      A                      A
 Frequencies --   1390.5849              1393.3946              1396.8366
 Red. masses --      1.4038                 1.4096                 1.2925
 Frc consts  --      1.5993                 1.6124                 1.4858
 IR Inten    --      3.7128                 3.9870                 2.1327

                     64                     65                     66
                      A                      A                      A
 Frequencies --   1405.4372              1407.1160              1416.5095
 Red. masses --      1.3697                 1.3582                 1.2779
 Frc consts  --      1.5940                 1.5845                 1.5108
 IR Inten    --      7.8546                 9.3081                15.7374

                     67                     68                     69
                      A                      A                      A
 Frequencies --   1419.1995              1476.0317              1481.3499
 Red. masses --      1.2444                 1.0926                 1.0797
 Frc consts  --      1.4768                 1.4025                 1.3959
 IR Inten    --      4.3981                 2.4428                 2.6291

                     70                     71                     72
                      A                      A                      A
 Frequencies --   1483.0272              1485.6024              1490.8223
 Red. masses --      1.0810                 1.0620                 1.0485
 Frc consts  --      1.4008                 1.3810                 1.3730
 IR Inten    --      2.0784                 6.5571                 2.6100

                     73                     74                     75
                      A                      A                      A
 Frequencies --   1493.1814              1493.7123              1500.0213
 Red. masses --      1.0840                 1.0661                 1.0537
 Frc consts  --      1.4240                 1.4015                 1.3969
 IR Inten    --     10.4001                 3.0089                 2.2489

                     76                     77                     78
                      A                      A                      A
 Frequencies --   1502.8959              1517.9096              1521.6809
 Red. masses --      1.0514                 1.0522                 1.1848
 Frc consts  --      1.3991                 1.4283                 1.6164
 IR Inten    --      2.4547                 4.6319                 5.8155

                     79                     80                     81
                      A                      A                      A
 Frequencies --   1534.4694              2951.0294              2969.5977
 Red. masses --      1.1652                 1.0758                 1.0781
 Frc consts  --      1.6165                 5.5200                 5.6015
 IR Inten    --     18.3294                17.6603                83.9140

                     82                     83                     84
                      A                      A                      A
 Frequencies --   2990.2818              3004.5429              3014.0830
 Red. masses --      1.0813                 1.0647                 1.0656
 Frc consts  --      5.6965                 5.6628                 5.7038
 IR Inten    --     11.1520                28.9680                 8.4233

                     85                     86                     87
                      A                      A                      A
 Frequencies --   3014.6919              3019.2817              3024.2725
 Red. masses --      1.0829                 1.0376                 1.0536
 Frc consts  --      5.7986                 5.5729                 5.6776
 IR Inten    --     27.4332                21.7057                18.5808

                     88                     89                     90
                      A                      A                      A
 Frequencies --   3025.7340              3032.8703              3036.7935
 Red. masses --      1.0555                 1.0651                 1.0401
 Frc consts  --      5.6934                 5.7723                 5.6513
 IR Inten    --     31.3762                28.5709                52.8617

                     91                     92                     93
                      A                      A                      A
 Frequencies --   3039.6392              3050.8670              3063.4196
 Red. masses --      1.0804                 1.0863                 1.1018
 Frc consts  --      5.8814                 5.9573                 6.0919
 IR Inten    --     22.8897                59.3590                16.6259

                     94                     95                     96
                      A                      A                      A
 Frequencies --   3071.1546              3078.2191              3080.5464
 Red. masses --      1.0996                 1.0969                 1.0983
 Frc consts  --      6.1109                 6.1238                 6.1407
 IR Inten    --     66.3202                16.7308                11.8626

                     97                     98                     99
                      A                      A                      A
 Frequencies --   3088.8187              3096.4590              3108.6288
 Red. masses --      1.0996                 1.1013                 1.1018
 Frc consts  --      6.1813                 6.2212                 6.2732
 IR Inten    --     72.4483                43.8376                33.0158

                    100                    101                    102
                      A                      A                      A
 Frequencies --   3119.5882              3135.8951              3543.6783
 Red. masses --      1.1017                 1.0972                 1.0735
 Frc consts  --      6.3168                 6.3573                 7.9425
 IR Inten    --     24.3489                11.0171                 1.1918

 - Thermochemistry -
 -------------------
 Temperature   298.150 Kelvin.  Pressure   1.00000 Atm.
 Atom     1 has atomic number  6 and mass  12.00000

 Molecular mass:   185.17796 amu.
 Principal axes and moments of inertia in atomic units:
                           1         2         3
     Eigenvalues --  1590.023293825.201994718.11534
           X            1.00000   0.00002   0.00010
           Y           -0.00002   0.99999   0.00526
           Z           -0.00010  -0.00526   0.99999
 This molecule is an asymmetric top.
 Rotational symmetry number  1.
 Warning -- assumption of classical behavior for rotation
           may cause significant error
 Rotational temperatures (Kelvin)      0.05447     0.02264     0.01836
 Rotational constants (GHZ):           1.13504     0.47180     0.38251
 Zero-point vibrational energy     871734.9 (Joules/Mol)
                                  208.34964 (Kcal/Mol)
 Warning -- explicit consideration of  22 degrees of freedom as
           vibrations may cause significant error
 Vibrational temperatures:     35.77    66.98   102.02   175.73   193.26
          (Kelvin)            260.49   293.32   331.44   353.61   365.86
                              376.59   397.21   409.24   452.62   516.01
                              534.74   600.62   610.19   661.45   690.15
                              691.28   801.42   893.39   966.39  1097.72
                             1149.74  1195.65  1209.21  1241.27  1296.07
                             1314.95  1335.47  1360.36  1386.41  1393.66
                             1417.52  1454.81  1474.11  1486.72  1555.59
                             1580.13  1606.38  1635.44  1641.75  1658.75
                             1694.13  1714.55  1723.81  1734.60  1794.08
                             1818.57  1837.81  1880.15  1884.59  1942.58
                             1955.18  1958.01  1974.24  1985.23  1989.91
                             2000.74  2004.78  2009.74  2022.11  2024.53
                             2038.04  2041.91  2123.68  2131.33  2133.75
                             2137.45  2144.96  2148.35  2149.12  2158.20
                             2162.33  2183.93  2189.36  2207.76  4245.87
                             4272.59  4302.35  4322.87  4336.59  4337.47
                             4344.07  4351.25  4353.36  4363.62  4369.27
                             4373.36  4389.52  4407.58  4418.71  4428.87
                             4432.22  4444.12  4455.11  4472.62  4488.39
                             4511.85  5098.56

 Zero-point correction=                           0.332026 (Hartree/Particle)
 Thermal correction to Energy=                    0.346825
 Thermal correction to Enthalpy=                  0.347769
 Thermal correction to Gibbs Free Energy=         0.290332
 Sum of electronic and zero-point Energies=           -562.702529
 Sum of electronic and thermal Energies=              -562.687730
 Sum of electronic and thermal Enthalpies=            -562.686786
 Sum of electronic and thermal Free Energies=         -562.744223

                     E (Thermal)             CV                S
                      KCal/Mol        Cal/Mol-Kelvin    Cal/Mol-Kelvin
 Total                  217.636             57.264            120.886
 Electronic               0.000              0.000              0.000
 Translational            0.889              2.981             41.555
 Rotational               0.889              2.981             31.729
 Vibrational            215.859             51.302             47.603
 Vibration     1          0.593              1.985              6.202
 Vibration     2          0.595              1.979              4.959
 Vibration     3          0.598              1.968              4.128
 Vibration     4          0.610              1.931              3.066
 Vibration     5          0.613              1.919              2.883
 Vibration     6          0.630              1.865              2.318
 Vibration     7          0.640              1.834              2.098
 Vibration     8          0.652              1.795              1.876
 Vibration     9          0.660              1.770              1.761
 Vibration    10          0.665              1.756              1.701
 Vibration    11          0.669              1.743              1.650
 Vibration    12          0.678              1.718              1.558
 Vibration    13          0.683              1.703              1.507
 Vibration    14          0.702              1.646              1.338
 Vibration    15          0.733              1.557              1.128
 Vibration    16          0.743              1.530              1.073
 Vibration    17          0.780              1.432              0.901
 Vibration    18          0.786              1.418              0.878
 Vibration    19          0.818              1.339              0.767
 Vibration    20          0.836              1.295              0.711
 Vibration    21          0.837              1.293              0.709
 Vibration    22          0.913              1.124              0.530

                           ! Non-Optimized Parameters !
 Normal termination of Gaussian 16 at Mon May 22 19:16:24 2023.
