 Gaussian 16, Revision A.03,
 Gaussian 16:  ES64L-G16RevA.03 25-Dec-2016

 -----------------------------
 # opt freq b3lyp/6-31g(2df,p)
 -----------------------------

 -------------------
 Title Card Required
 -------------------
 Symbolic Z-matrix:
 Charge =  0 Multiplicity = 1

 SCF Done:  E(RB3LYP) =  -1431.10136735     A.U. after   14 cycles
 SCF Done:  E(RB3LYP) =  -1431.11089724     A.U. after   12 cycles
 SCF Done:  E(RB3LYP) =  -1431.11220553     A.U. after   12 cycles
 SCF Done:  E(RB3LYP) =  -1431.11292406     A.U. after   12 cycles
 SCF Done:  E(RB3LYP) =  -1431.11551055     A.U. after   13 cycles
 SCF Done:  E(RB3LYP) =  -1431.11783805     A.U. after   13 cycles
 SCF Done:  E(RB3LYP) =  -1431.12063922     A.U. after   12 cycles
 SCF Done:  E(RB3LYP) =  -1431.12822507     A.U. after   13 cycles
 SCF Done:  E(RB3LYP) =  -1431.13911381     A.U. after   13 cycles
 SCF Done:  E(RB3LYP) =  -1431.14121321     A.U. after   12 cycles
 SCF Done:  E(RB3LYP) =  -1431.14252207     A.U. after   11 cycles
 SCF Done:  E(RB3LYP) =  -1431.14262148     A.U. after   12 cycles
 SCF Done:  E(RB3LYP) =  -1431.14272103     A.U. after   10 cycles
 SCF Done:  E(RB3LYP) =  -1431.14277699     A.U. after   11 cycles
 SCF Done:  E(RB3LYP) =  -1431.14278919     A.U. after   10 cycles
 SCF Done:  E(RB3LYP) =  -1431.14279176     A.U. after    9 cycles
 SCF Done:  E(RB3LYP) =  -1431.14279385     A.U. after    9 cycles
 SCF Done:  E(RB3LYP) =  -1431.14279413     A.U. after    7 cycles
 SCF Done:  E(RB3LYP) =  -1431.14279421     A.U. after    8 cycles
 Optimization completed.
    -- Stationary point found.
 Normal termination of Gaussian 16 at Mon May 29 16:04:14 2023.

 ----------------------------------------------------------------------
 #N Geom=AllCheck Guess=TCheck SCRF=Check GenChk RB3LYP/6-31G(2df,p) Fr
 eq
 ----------------------------------------------------------------------

 Structure from the checkpoint file:  "CCqCCCCCCSSrCqdOrNOO.chk"
 -------------------
 Title Card Required
 -------------------
 Charge =  0 Multiplicity = 1

                         Standard orientation:
 ---------------------------------------------------------------------
 Center     Atomic      Atomic             Coordinates (Angstroms)
 Number     Number       Type             X           Y           Z
 ---------------------------------------------------------------------
      1          6           0        3.476171    2.569722   -0.050728
      2          6           0        3.394781    1.092620    0.355560
      3          6           0        2.166867    0.359643   -0.237795
      4          6           0        0.814262    0.852035    0.288879
      5          6           0       -0.364993    0.045276   -0.267832
      6          6           0       -1.725908    0.532506    0.241929
      7          6           0       -2.901396   -0.283712   -0.313695
      8          6           0       -4.249709    0.220312    0.207157
      9         16           0       -5.596551   -0.811639   -0.506598
     10         16           0       -7.297236   -0.097568    0.435815
     11          6           0        4.643425    0.361836   -0.135148
     12          8           0        5.115147    0.487664   -1.236299
     13          7           0        5.208708   -0.469727    0.839724
     14          8           0        6.163593   -1.347671    0.482397
     15          8           0        5.511443   -2.497439   -0.200927
     16          1           0        2.581046    3.115045    0.257715
     17          1           0        3.587176    2.651799   -1.134853
     18          1           0        4.340920    3.055128    0.411357
     19          1           0        3.343587    1.022298    1.451061
     20          1           0        2.259687   -0.714359   -0.025948
     21          1           0        2.205142    0.455742   -1.329556
     22          1           0        0.674461    1.909941    0.035692
     23          1           0        0.806325    0.796930    1.386756
     24          1           0       -0.237032   -1.014387   -0.007561
     25          1           0       -0.349902    0.090886   -1.365168
     26          1           0       -1.858277    1.589699   -0.024997
     27          1           0       -1.741482    0.490884    1.339517
     28          1           0       -2.776431   -1.339402   -0.042519
     29          1           0       -2.890987   -0.240411   -1.410084
     30          1           0       -4.417752    1.261377   -0.081949
     31          1           0       -4.305182    0.148679    1.296278
     32          1           0       -7.616756    0.902038   -0.416956
     33          1           0        4.630262   -0.783925    1.612049
     34          1           0        5.762364   -3.204423    0.412301
 ---------------------------------------------------------------------

 SCF Done:  E(RB3LYP) =  -1431.14279421     A.U. after    1 cycles

 The electronic state is 1-A.
 Alpha  occ. eigenvalues --  -88.89408 -88.89364 -19.24342 -19.19280 -19.11920
 Alpha  occ. eigenvalues --  -14.41186 -10.28778 -10.21891 -10.20800 -10.19792
 Alpha  occ. eigenvalues --  -10.19429 -10.19315 -10.19117 -10.18997 -10.18172
 Alpha  occ. eigenvalues --   -7.95976  -7.95608  -5.92442  -5.92158  -5.92074
 Alpha  occ. eigenvalues --   -5.91722  -5.91466  -5.91074  -1.15528  -1.04340
 Alpha  occ. eigenvalues --   -0.97797  -0.84189  -0.82913  -0.81111  -0.79009
 Alpha  occ. eigenvalues --   -0.75979  -0.71724  -0.67489  -0.64475  -0.61493
 Alpha  occ. eigenvalues --   -0.59438  -0.59168  -0.58218  -0.55422  -0.51430
 Alpha  occ. eigenvalues --   -0.50016  -0.49374  -0.47147  -0.45286  -0.44743
 Alpha  occ. eigenvalues --   -0.44026  -0.43255  -0.42263  -0.41550  -0.40790
 Alpha  occ. eigenvalues --   -0.40566  -0.37881  -0.37643  -0.37497  -0.37247
 Alpha  occ. eigenvalues --   -0.35502  -0.34759  -0.34018  -0.33908  -0.33489
 Alpha  occ. eigenvalues --   -0.33227  -0.33192  -0.32144  -0.29422  -0.27897
 Alpha  occ. eigenvalues --   -0.25596  -0.25369  -0.24185
 Alpha virt. eigenvalues --   -0.02815  -0.01928   0.03463   0.03818   0.04214
 Alpha virt. eigenvalues --    0.05747   0.07962   0.08534   0.09667   0.10422
 Alpha virt. eigenvalues --    0.10623   0.11983   0.13116   0.13400   0.14388

 Mulliken charges:
               1
     1  C   -0.393377
     2  C   -0.128311
     3  C   -0.173020
     4  C   -0.199684
     5  C   -0.182349
     6  C   -0.192930
     7  C   -0.193570
     8  C   -0.194385
     9  S   -0.079276
    10  S   -0.210324
    11  C    0.445999
    12  O   -0.338100
    13  N   -0.166444
    14  O   -0.153493
    15  O   -0.327137
    16  H    0.115819
    17  H    0.145217
    18  H    0.123359
    19  H    0.071880
    20  H    0.096852
    21  H    0.122478
    22  H    0.104031
    23  H    0.090690
    24  H    0.096698
    25  H    0.101993
    26  H    0.099261
    27  H    0.097978
    28  H    0.116993
    29  H    0.116406
    30  H    0.126344
    31  H    0.134829
    32  H    0.167021
    33  H    0.249664
    34  H    0.308886
 Sum of Mulliken charges =  -0.00000

 Dipole moment (field-independent basis, Debye):
    X=             -0.8414    Y=              0.5244    Z=              3.5385  Tot=              3.6747
 Quadrupole moment (field-independent basis, Debye-Ang):
   XX=           -141.2980   YY=            -98.8962   ZZ=           -106.9893
   XY=            -16.9059   XZ=             19.7638   YZ=             -4.6317

  Exact polarizability: 213.326  -8.235 146.819  -5.471   1.106 125.326
 Approx polarizability: 250.822 -13.044 224.487 -12.775   3.300 217.833

                      1                      2                      3
                      A                      A                      A
 Frequencies --     14.6180                20.5229                30.0689
 Red. masses --      7.1199                 5.5945                 4.3313
 Frc consts  --      0.0009                 0.0014                 0.0023
 IR Inten    --      2.8384                 1.5369                 2.0411

                      4                      5                      6
                      A                      A                      A
 Frequencies --     33.7158                53.7857                62.4139
 Red. masses --      5.7603                 2.4111                 6.7837
 Frc consts  --      0.0039                 0.0041                 0.0156
 IR Inten    --      2.9476                 0.4643                 3.5303

                      7                      8                      9
                      A                      A                      A
 Frequencies --     82.9275               102.4673               107.2568
 Red. masses --      2.4906                 2.5388                 4.8472
 Frc consts  --      0.0101                 0.0157                 0.0329
 IR Inten    --      1.1661                 0.0845                 0.4527

                     10                     11                     12
                      A                      A                      A
 Frequencies --    117.7866               143.8004               146.0180
 Red. masses --      5.3032                 5.7293                 2.3476
 Frc consts  --      0.0433                 0.0698                 0.0295
 IR Inten    --      3.2366                 0.2333                 0.4978

                     13                     14                     15
                      A                      A                      A
 Frequencies --    153.9919               179.1216               193.5315
 Red. masses --      2.0097                 5.5914                 1.2379
 Frc consts  --      0.0281                 0.1057                 0.0273
 IR Inten    --      0.3957                 2.6765                71.6346

                     16                     17                     18
                      A                      A                      A
 Frequencies --    208.1752               256.3195               280.9975
 Red. masses --      1.1703                 2.6128                 4.1375
 Frc consts  --      0.0299                 0.1011                 0.1925
 IR Inten    --     21.6403                 4.2561                 2.6279

                     19                     20                     21
                      A                      A                      A
 Frequencies --    284.5016               314.6492               323.3114
 Red. masses --      3.2859                 4.4309                 1.0991
 Frc consts  --      0.1567                 0.2585                 0.0677
 IR Inten    --      2.3111                 4.8530                13.8715

                     22                     23                     24
                      A                      A                      A
 Frequencies --    348.7133               415.0213               448.9566
 Red. masses --      5.4456                 3.3551                 3.7973
 Frc consts  --      0.3902                 0.3405                 0.4510
 IR Inten    --      8.8527                 4.0308                 1.2377

                     25                     26                     27
                      A                      A                      A
 Frequencies --    494.7081               512.3738               518.9225
 Red. masses --      2.5398                 1.7609                14.9652
 Frc consts  --      0.3662                 0.2724                 2.3743
 IR Inten    --     12.2911                68.3391                 1.7014

                     28                     29                     30
                      A                      A                      A
 Frequencies --    597.9000               718.1398               733.6216
 Red. masses --      3.2514                 3.0879                 1.0665
 Frc consts  --      0.6848                 0.9383                 0.3382
 IR Inten    --     58.7762                 4.9715                 4.2767

                     31                     32                     33
                      A                      A                      A
 Frequencies --    743.2073               743.9793               759.1810
 Red. masses --      2.7520                 1.4181                 7.9193
 Frc consts  --      0.8956                 0.4625                 2.6892
 IR Inten    --      2.3184                 0.8711                29.7079

                     34                     35                     36
                      A                      A                      A
 Frequencies --    779.1343               781.9855               855.3551
 Red. masses --      7.5168                 1.2163                 1.4121
 Frc consts  --      2.6885                 0.4382                 0.6087
 IR Inten    --     32.4611                 0.4749                 0.8032

                     37                     38                     39
                      A                      A                      A
 Frequencies --    881.8923               889.6887               938.9801
 Red. masses --      1.0997                 2.0085                 3.4137
 Frc consts  --      0.5039                 0.9367                 1.7733
 IR Inten    --      9.6856                 1.2671                16.2719

                     40                     41                     42
                      A                      A                      A
 Frequencies --    952.9724               998.2358              1016.1904
 Red. masses --      1.2723                 4.5923                 3.1995
 Frc consts  --      0.6808                 2.6962                 1.9466
 IR Inten    --      0.7504                 0.2854                 0.1643

                     43                     44                     45
                      A                      A                      A
 Frequencies --   1022.0315              1044.3316              1055.5165
 Red. masses --      1.5318                 3.0453                 2.6297
 Frc consts  --      0.9427                 1.9569                 1.7262
 IR Inten    --     10.2706                14.8050                 1.8652

                     46                     47                     48
                      A                      A                      A
 Frequencies --   1062.5728              1068.5257              1081.4065
 Red. masses --      2.1505                 2.1490                 1.1881
 Frc consts  --      1.4306                 1.4456                 0.8186
 IR Inten    --     15.3785                 1.6422                 4.1296

                     49                     50                     51
                      A                      A                      A
 Frequencies --   1099.7556              1120.9840              1169.0728
 Red. masses --      2.8391                 2.7304                 3.3828
 Frc consts  --      2.0231                 2.0215                 2.7240
 IR Inten    --      1.2938                 4.4623               113.7414

                     52                     53                     54
                      A                      A                      A
 Frequencies --   1202.4656              1218.3659              1242.0968
 Red. masses --      1.9461                 1.2182                 1.4929
 Frc consts  --      1.6579                 1.0654                 1.3570
 IR Inten    --     13.9175                 8.7457                 4.3697

                     55                     56                     57
                      A                      A                      A
 Frequencies --   1262.4112              1287.1579              1310.8015
 Red. masses --      1.2882                 1.3097                 1.2691
 Frc consts  --      1.2096                 1.2785                 1.2847
 IR Inten    --     10.7962                 1.1489                 5.1031

                     58                     59                     60
                      A                      A                      A
 Frequencies --   1324.2067              1331.2790              1337.4652
 Red. masses --      1.1388                 1.1103                 1.1052
 Frc consts  --      1.1766                 1.1594                 1.1648
 IR Inten    --      1.2565                 0.4047                 1.1385

                     61                     62                     63
                      A                      A                      A
 Frequencies --   1341.0185              1343.9883              1367.9537
 Red. masses --      1.1599                 1.2222                 1.4104
 Frc consts  --      1.2289                 1.3007                 1.5550
 IR Inten    --     39.6575                15.9242                 7.0624

                     64                     65                     66
                      A                      A                      A
 Frequencies --   1386.0604              1396.8479              1400.7256
 Red. masses --      1.5089                 1.4623                 1.5847
 Frc consts  --      1.7080                 1.6810                 1.8320
 IR Inten    --      7.6093                 6.2362                 0.9284

                     67                     68                     69
                      A                      A                      A
 Frequencies --   1408.6673              1478.0791              1481.3179
 Red. masses --      1.2607                 1.0881                 1.0775
 Frc consts  --      1.4739                 1.4007                 1.3931
 IR Inten    --      6.0921                 3.7613                 0.6227

                     70                     71                     72
                      A                      A                      A
 Frequencies --   1484.3941              1488.7189              1489.0610
 Red. masses --      1.0691                 1.2737                 1.0957
 Frc consts  --      1.3880                 1.6632                 1.4314
 IR Inten    --      1.3795                71.4085                 3.9459

                     73                     74                     75
                      A                      A                      A
 Frequencies --   1494.4895              1500.7699              1505.4012
 Red. masses --      1.0554                 1.0794                 1.0730
 Frc consts  --      1.3888                 1.4324                 1.4327
 IR Inten    --     11.2003                 3.4650                 3.6849

                     76                     77                     78
                      A                      A                      A
 Frequencies --   1514.0106              1831.7970              2615.0801
 Red. masses --      1.0982                10.7792                 1.0395
 Frc consts  --      1.4831                21.3103                 4.1884
 IR Inten    --      4.8059               162.4160                 7.1871

                     79                     80                     81
                      A                      A                      A
 Frequencies --   3004.4243              3005.6312              3007.0836
 Red. masses --      1.0681                 1.0587                 1.0743
 Frc consts  --      5.6804                 5.6353                 5.7238
 IR Inten    --      1.6016                 0.8896                19.7669

                     82                     83                     84
                      A                      A                      A
 Frequencies --   3011.8405              3016.3021              3025.8699
 Red. masses --      1.0611                 1.0669                 1.0598
 Frc consts  --      5.6712                 5.7188                 5.7168
 IR Inten    --      5.3996                47.4217                36.7734

                     85                     86                     87
                      A                      A                      A
 Frequencies --   3030.6822              3042.6890              3049.0470
 Red. masses --      1.0961                 1.0908                 1.0418
 Frc consts  --      5.9317                 5.9497                 5.7066
 IR Inten    --      5.7499                 5.3239                15.0003

                     88                     89                     90
                      A                      A                      A
 Frequencies --   3054.8213              3055.6679              3067.9579
 Red. masses --      1.0763                 1.0764                 1.1035
 Frc consts  --      5.9175                 5.9214                 6.1196
 IR Inten    --     25.5868                 3.6949                 3.6969

                     91                     92                     93
                      A                      A                      A
 Frequencies --   3076.2101              3113.4698              3116.4189
 Red. masses --      1.1031                 1.1092                 1.1008
 Frc consts  --      6.1506                 6.3351                 6.2989
 IR Inten    --    100.8320                18.7612                27.4628

                     94                     95                     96
                      A                      A                      A
 Frequencies --   3133.0528              3528.8946              3749.5721
 Red. masses --      1.1024                 1.0769                 1.0684
 Frc consts  --      6.3754                 7.9017                 8.8501
 IR Inten    --     14.0596                 8.3344                45.3840

 - Thermochemistry -
 -------------------
 Temperature   298.150 Kelvin.  Pressure   1.00000 Atm.
 Atom     1 has atomic number  6 and mass  12.00000

 Molecular mass:   253.08064 amu.
 Principal axes and moments of inertia in atomic units:
                           1         2         3
     Eigenvalues --  1413.78031********************
           X            1.00000   0.00026   0.00201
           Y           -0.00025   1.00000  -0.00309
           Z           -0.00201   0.00309   0.99999
 This molecule is an asymmetric top.
 Rotational symmetry number  1.
 Warning -- assumption of classical behavior for rotation
           may cause significant error
 Rotational temperatures (Kelvin)      0.06126     0.00413     0.00397
 Rotational constants (GHZ):           1.27654     0.08609     0.08269
 Zero-point vibrational energy     736287.2 (Joules/Mol)
                                  175.97686 (Kcal/Mol)
 Warning -- explicit consideration of  28 degrees of freedom as
           vibrations may cause significant error
 Vibrational temperatures:     21.03    29.53    43.26    48.51    77.39
          (Kelvin)             89.80   119.31   147.43   154.32   169.47
                              206.90   210.09   221.56   257.72   278.45
                              299.52   368.79   404.29   409.33   452.71
                              465.17   501.72   597.12   645.95   711.77
                              737.19   746.61   860.24  1033.24  1055.52
                             1069.31  1070.42  1092.29  1121.00  1125.10
                             1230.67  1268.85  1280.06  1350.98  1371.11
                             1436.24  1462.07  1470.48  1502.56  1518.65
                             1528.81  1537.37  1555.90  1582.30  1612.85
                             1682.04  1730.08  1752.96  1787.10  1816.33
                             1851.93  1885.95  1905.24  1915.41  1924.31
                             1929.43  1933.70  1968.18  1994.23  2009.75
                             2015.33  2026.76  2126.63  2131.29  2135.71
                             2141.93  2142.43  2150.24  2159.27  2165.94
                             2178.32  2635.55  3762.52  4322.70  4324.43
                             4326.52  4333.37  4339.79  4353.55  4360.48
                             4377.75  4386.90  4395.21  4396.42  4414.11
                             4425.98  4479.59  4483.83  4507.76  5077.29
                             5394.80

 Zero-point correction=                           0.280437 (Hartree/Particle)
 Thermal correction to Energy=                    0.300387
 Thermal correction to Enthalpy=                  0.301332
 Thermal correction to Gibbs Free Energy=         0.227035
 Sum of electronic and zero-point Energies=          -1430.862357
 Sum of electronic and thermal Energies=             -1430.842407
 Sum of electronic and thermal Enthalpies=           -1430.841463
 Sum of electronic and thermal Free Energies=        -1430.915759

                     E (Thermal)             CV                S
                      KCal/Mol        Cal/Mol-Kelvin    Cal/Mol-Kelvin
 Total                  188.496             68.458            156.371
 Electronic               0.000              0.000              0.000
 Translational            0.889              2.981             42.486
 Rotational               0.889              2.981             34.824
 Vibrational            186.719             62.497             79.061
 Vibration     1          0.593              1.986              7.257
 Vibration     2          0.593              1.986              6.583
 Vibration     3          0.594              1.984              5.825
 Vibration     4          0.594              1.983              5.598
 Vibration     5          0.596              1.976              4.673
 Vibration     6          0.597              1.972              4.379
 Vibration     7          0.600              1.961              3.820
 Vibration     8          0.605              1.947              3.407
 Vibration     9          0.606              1.943              3.318
 Vibration    10          0.608              1.935              3.136
 Vibration    11          0.616              1.909              2.753
 Vibration    12          0.617              1.907              2.723
 Vibration    13          0.620              1.898              2.622
 Vibration    14          0.629              1.868              2.338
 Vibration    15          0.635              1.849              2.194
 Vibration    16          0.641              1.828              2.060
 Vibration    17          0.666              1.752              1.687
 Vibration    18          0.681              1.709              1.528
 Vibration    19          0.683              1.702              1.506
 Vibration    20          0.702              1.646              1.338
 Vibration    21          0.708              1.629              1.293
 Vibration    22          0.726              1.578              1.172
 Vibration    23          0.778              1.438              0.909
 Vibration    24          0.808              1.363              0.799
 Vibration    25          0.850              1.262              0.671
 Vibration    26          0.867              1.223              0.628
 Vibration    27          0.874              1.208              0.612
 Vibration    28          0.956              1.036              0.453

 Optimization completed.
    -- Stationary point found.
 Normal termination of Gaussian 16 at Mon May 29 18:02:24 2023.
