 Gaussian 16, Revision A.03,
 Gaussian 16:  ES64L-G16RevA.03 25-Dec-2016

 -----------------------------
 # opt freq b3lyp/6-31g(2df,p)
 -----------------------------

 -------------------
 Title Card Required
 -------------------
 Symbolic Z-matrix:
 Charge =  0 Multiplicity = 1

 SCF Done:  E(RB3LYP) =  -618.773218343     A.U. after   12 cycles
 SCF Done:  E(RB3LYP) =  -618.780353594     A.U. after   10 cycles
 SCF Done:  E(RB3LYP) =  -618.781073042     A.U. after   10 cycles
 SCF Done:  E(RB3LYP) =  -618.781236238     A.U. after   10 cycles
 SCF Done:  E(RB3LYP) =  -618.781262806     A.U. after    9 cycles
 SCF Done:  E(RB3LYP) =  -618.781270440     A.U. after    8 cycles
 SCF Done:  E(RB3LYP) =  -618.781273952     A.U. after    7 cycles
 SCF Done:  E(RB3LYP) =  -618.781274706     A.U. after    7 cycles
 SCF Done:  E(RB3LYP) =  -618.781274907     A.U. after    6 cycles
 Optimization completed.
    -- Stationary point found.
 Normal termination of Gaussian 16 at Mon May 22 23:19:01 2023.

 ----------------------------------------------------------------------
 #N Geom=AllCheck Guess=TCheck SCRF=Check GenChk RB3LYP/6-31G(2df,p) Fr
 eq
 ----------------------------------------------------------------------

 Structure from the checkpoint file:  "CCqCOrCOCC1CCqCrC1O.chk"
 -------------------
 Title Card Required
 -------------------
 Charge =  0 Multiplicity = 1

                         Standard orientation:
 ---------------------------------------------------------------------
 Center     Atomic      Atomic             Coordinates (Angstroms)
 Number     Number       Type             X           Y           Z
 ---------------------------------------------------------------------
      1          6           0       -4.437557   -1.121295   -0.123565
      2          6           0       -3.143923   -0.327507   -0.332271
      3          6           0       -3.230812    1.064278    0.312310
      4          8           0       -4.286040    1.856448   -0.217211
      5          6           0       -1.934811   -1.095996    0.197564
      6          8           0       -0.751572   -0.411568   -0.161234
      7          6           0        0.425760   -1.036271    0.308815
      8          6           0        1.623573   -0.221012   -0.126183
      9          6           0        1.901191    1.158470    0.534829
     10          6           0        3.423876    0.827592    0.547941
     11          6           0        4.209079    1.426079   -0.616684
     12          6           0        3.029471   -0.672196    0.351691
     13          8           0        3.809788   -1.522968   -0.450001
     14          1           0       -5.296744   -0.524936   -0.438590
     15          1           0       -4.577043   -1.371973    0.935088
     16          1           0       -4.433781   -2.056741   -0.692070
     17          1           0       -2.982715   -0.184039   -1.411173
     18          1           0       -2.262254    1.571980    0.221724
     19          1           0       -3.450958    0.959591    1.382142
     20          1           0       -4.059934    2.069554   -1.128157
     21          1           0       -1.924609   -2.118403   -0.216764
     22          1           0       -2.001079   -1.196834    1.296103
     23          1           0        0.501187   -2.063681   -0.088258
     24          1           0        0.401667   -1.116478    1.410278
     25          1           0        1.609618   -0.125779   -1.218387
     26          1           0        1.477875    1.218348    1.541704
     27          1           0        1.594817    2.045935   -0.023084
     28          1           0        3.947108    1.041294    1.484558
     29          1           0        3.692879    1.291911   -1.575550
     30          1           0        5.200536    0.968661   -0.700495
     31          1           0        4.346481    2.503052   -0.477401
     32          1           0        2.959445   -1.174642    1.322588
     33          1           0        3.885028   -1.124966   -1.323377
 ---------------------------------------------------------------------

 SCF Done:  E(RB3LYP) =  -618.781274907     A.U. after    1 cycles

 The electronic state is 1-A.
 Alpha  occ. eigenvalues --  -19.13954 -19.13787 -19.13010 -10.22821 -10.22595
 Alpha  occ. eigenvalues --  -10.22589 -10.21701 -10.18497 -10.18447 -10.18376
 Alpha  occ. eigenvalues --  -10.18046 -10.17955 -10.17043  -1.03321  -1.02063
 Alpha  occ. eigenvalues --   -1.00976  -0.84445  -0.79717  -0.74351  -0.69814
 Alpha  occ. eigenvalues --   -0.67084  -0.65262  -0.64566  -0.59621  -0.57378
 Alpha  occ. eigenvalues --   -0.55594  -0.50612  -0.49590  -0.48898  -0.48256
 Alpha  occ. eigenvalues --   -0.46588  -0.44642  -0.43930  -0.42963  -0.40651
 Alpha  occ. eigenvalues --   -0.40419  -0.39945  -0.39141  -0.38792  -0.37332
 Alpha  occ. eigenvalues --   -0.36772  -0.36005  -0.35306  -0.34151  -0.32353
 Alpha  occ. eigenvalues --   -0.31774  -0.31195  -0.30374  -0.28904  -0.26442
 Alpha  occ. eigenvalues --   -0.25620  -0.25078
 Alpha virt. eigenvalues --    0.06892   0.07752   0.08640   0.09009   0.10486
 Alpha virt. eigenvalues --    0.11061   0.12476   0.12797   0.14875   0.15502
 Alpha virt. eigenvalues --    0.15686   0.15827   0.16556   0.16740   0.17031

 Mulliken charges:
               1
     1  C   -0.398314
     2  C   -0.013482
     3  C   -0.059792
     4  O   -0.421463
     5  C   -0.056569
     6  O   -0.257956
     7  C   -0.086035
     8  C   -0.024549
     9  C   -0.243362
    10  C   -0.032235
    11  C   -0.412719
    12  C    0.130327
    13  O   -0.432677
    14  H    0.131162
    15  H    0.111950
    16  H    0.108839
    17  H    0.070700
    18  H    0.104505
    19  H    0.101843
    20  H    0.280371
    21  H    0.085299
    22  H    0.083132
    23  H    0.091970
    24  H    0.080604
    25  H    0.071443
    26  H    0.099548
    27  H    0.101401
    28  H    0.068430
    29  H    0.106902
    30  H    0.123770
    31  H    0.120714
    32  H    0.085891
    33  H    0.280351
 Sum of Mulliken charges =  -0.00000

 Dipole moment (field-independent basis, Debye):
    X=              0.8352    Y=              0.1518    Z=             -0.9446  Tot=              1.2700
 Quadrupole moment (field-independent basis, Debye-Ang):
   XX=            -91.4864   YY=            -84.2841   ZZ=            -75.2556
   XY=              9.7072   XZ=              1.0422   YZ=             -2.5831

  Exact polarizability: 143.144   3.985 114.068  -1.128  -0.954 103.790
 Approx polarizability: 166.062  -1.688 161.863  -1.359  -2.083 164.098

                      1                      2                      3
                      A                      A                      A
 Frequencies --     26.0250                31.7826                52.5273
 Red. masses --      3.9932                 3.8996                 3.4533
 Frc consts  --      0.0016                 0.0023                 0.0056
 IR Inten    --      0.4607                 0.3721                 0.1805

                      4                      5                      6
                      A                      A                      A
 Frequencies --     86.0570                99.1577               123.3582
 Red. masses --      2.8983                 3.7136                 2.7257
 Frc consts  --      0.0126                 0.0215                 0.0244
 IR Inten    --      0.7832                 1.6563                 2.7659

                      7                      8                      9
                      A                      A                      A
 Frequencies --    155.7375               189.7141               215.2029
 Red. masses --      3.3505                 2.4783                 2.4130
 Frc consts  --      0.0479                 0.0526                 0.0658
 IR Inten    --      4.9464                 1.5651                 0.8969

                     10                     11                     12
                      A                      A                      A
 Frequencies --    224.9201               227.5903               241.4045
 Red. masses --      1.1422                 1.7183                 1.6650
 Frc consts  --      0.0340                 0.0524                 0.0572
 IR Inten    --      1.9587                 2.2707                 1.3867

                     13                     14                     15
                      A                      A                      A
 Frequencies --    255.1185               276.9188               298.9582
 Red. masses --      2.3935                 2.0088                 1.2410
 Frc consts  --      0.0918                 0.0908                 0.0653
 IR Inten    --      4.0875                 7.4622               104.7437

                     16                     17                     18
                      A                      A                      A
 Frequencies --    317.9096               360.4473               369.8621
 Red. masses --      1.6481                 2.2740                 2.3320
 Frc consts  --      0.0981                 0.1741                 0.1880
 IR Inten    --     64.7909                22.5366                 1.0203

                     19                     20                     21
                      A                      A                      A
 Frequencies --    408.8823               442.7719               529.5541
 Red. masses --      2.2384                 2.5736                 2.7550
 Frc consts  --      0.2205                 0.2973                 0.4552
 IR Inten    --     15.5224                 2.6673                 6.4130

                     22                     23                     24
                      A                      A                      A
 Frequencies --    548.2576               563.5550               684.8911
 Red. masses --      3.3044                 3.6632                 2.8316
 Frc consts  --      0.5852                 0.6855                 0.7826
 IR Inten    --      2.2072                 3.9751                 2.9484

                     25                     26                     27
                      A                      A                      A
 Frequencies --    814.3833               826.9791               840.6411
 Red. masses --      2.5471                 2.0780                 2.4642
 Frc consts  --      0.9953                 0.8373                 1.0260
 IR Inten    --      5.3342                11.7786                 1.8066

                     28                     29                     30
                      A                      A                      A
 Frequencies --    871.8040               903.1909               905.6449
 Red. masses --      1.9322                 2.0786                 1.4219
 Frc consts  --      0.8652                 0.9990                 0.6871
 IR Inten    --      1.5295                 2.8525                 9.7677

                     31                     32                     33
                      A                      A                      A
 Frequencies --    926.2192               961.8236               969.3567
 Red. masses --      1.3241                 1.3406                 1.6359
 Frc consts  --      0.6693                 0.7307                 0.9057
 IR Inten    --      4.9271                 3.9164                10.6518

                     34                     35                     36
                      A                      A                      A
 Frequencies --    994.9174              1015.6128              1057.4762
 Red. masses --      2.1050                 1.8740                 2.1318
 Frc consts  --      1.2277                 1.1389                 1.4045
 IR Inten    --     10.6334                 5.6050                13.6781

                     37                     38                     39
                      A                      A                      A
 Frequencies --   1068.2584              1077.2795              1110.8844
 Red. masses --      3.5928                 1.9284                 1.4684
 Frc consts  --      2.4156                 1.3186                 1.0677
 IR Inten    --    117.4884                29.3529                 6.6876

                     40                     41                     42
                      A                      A                      A
 Frequencies --   1118.0965              1124.2568              1139.5649
 Red. masses --      2.4744                 2.4334                 2.5090
 Frc consts  --      1.8226                 1.8121                 1.9197
 IR Inten    --     61.6970                63.3791                 0.9583

                     43                     44                     45
                      A                      A                      A
 Frequencies --   1152.7123              1158.0540              1174.5568
 Red. masses --      3.7450                 2.4640                 1.9945
 Frc consts  --      2.9318                 1.9469                 1.6212
 IR Inten    --     90.9369               168.6285                 9.5477

                     46                     47                     48
                      A                      A                      A
 Frequencies --   1196.2541              1215.7653              1225.0004
 Red. masses --      1.8273                 1.3772                 1.3622
 Frc consts  --      1.5406                 1.1994                 1.2043
 IR Inten    --      6.7499                 6.0288                 6.1499

                     49                     50                     51
                      A                      A                      A
 Frequencies --   1231.5979              1258.0930              1270.4096
 Red. masses --      1.4316                 1.3120                 1.4370
 Frc consts  --      1.2794                 1.2235                 1.3665
 IR Inten    --      2.0400                 2.5743                 2.3760

                     52                     53                     54
                      A                      A                      A
 Frequencies --   1277.2743              1290.5232              1317.6518
 Red. masses --      1.2670                 1.4003                 1.3981
 Frc consts  --      1.2178                 1.3741                 1.4301
 IR Inten    --      3.1904                 1.0040                 4.6037

                     55                     56                     57
                      A                      A                      A
 Frequencies --   1320.7949              1354.1428              1362.0631
 Red. masses --      1.2654                 1.2852                 1.3769
 Frc consts  --      1.3006                 1.3885                 1.5051
 IR Inten    --      2.3591                35.0467                 0.3472

                     58                     59                     60
                      A                      A                      A
 Frequencies --   1370.4498              1393.3546              1399.5437
 Red. masses --      1.4004                 1.4046                 1.3130
 Frc consts  --      1.5496                 1.6066                 1.5153
 IR Inten    --      0.1755                38.5647                32.4044

                     61                     62                     63
                      A                      A                      A
 Frequencies --   1405.3609              1408.4349              1418.1802
 Red. masses --      1.2934                 1.2747                 1.2799
 Frc consts  --      1.5050                 1.4899                 1.5166
 IR Inten    --      7.0461                 4.0095                19.0970

                     64                     65                     66
                      A                      A                      A
 Frequencies --   1435.5336              1449.8731              1488.3314
 Red. masses --      1.2156                 1.5160                 1.1124
 Frc consts  --      1.4760                 1.8776                 1.4518
 IR Inten    --     53.6543                 2.8185                 6.7976

                     67                     68                     69
                      A                      A                      A
 Frequencies --   1493.1106              1500.1519              1503.0321
 Red. masses --      1.0630                 1.0523                 1.0506
 Frc consts  --      1.3963                 1.3952                 1.3983
 IR Inten    --      3.6792                 7.2287                 2.2368

                     70                     71                     72
                      A                      A                      A
 Frequencies --   1505.1401              1508.6806              1510.3081
 Red. masses --      1.0605                 1.0766                 1.0817
 Frc consts  --      1.4156                 1.4438                 1.4537
 IR Inten    --      3.5806                13.2212                 2.6711

                     73                     74                     75
                      A                      A                      A
 Frequencies --   1529.1132              2935.1040              2946.4248
 Red. masses --      1.0905                 1.0555                 1.0584
 Frc consts  --      1.5024                 5.3576                 5.4135
 IR Inten    --      1.4510                14.2802                70.6822

                     76                     77                     78
                      A                      A                      A
 Frequencies --   2969.2635              2971.4856              2999.7723
 Red. masses --      1.1002                 1.1002                 1.0844
 Frc consts  --      5.7152                 5.7236                 5.7494
 IR Inten    --     76.5662                12.0634                25.3025

                     79                     80                     81
                      A                      A                      A
 Frequencies --   3018.3085              3021.4873              3030.2621
 Red. masses --      1.0569                 1.0400                 1.0392
 Frc consts  --      5.6730                 5.5942                 5.6224
 IR Inten    --     46.9873                15.8755                23.6546

                     82                     83                     84
                      A                      A                      A
 Frequencies --   3037.3893              3050.1375              3053.7507
 Red. masses --      1.0817                 1.0846                 1.0712
 Frc consts  --      5.8798                 5.9452                 5.8857
 IR Inten    --     15.4700                16.1705                28.1052

                     85                     86                     87
                      A                      A                      A
 Frequencies --   3064.4014              3064.5715              3087.7980
 Red. masses --      1.1066                 1.0761                 1.0973
 Frc consts  --      6.1227                 5.9544                 6.1641
 IR Inten    --     38.7954                42.5201                55.5585

                     88                     89                     90
                      A                      A                      A
 Frequencies --   3093.1023              3101.6320              3112.3067
 Red. masses --      1.0993                 1.1015                 1.1068
 Frc consts  --      6.1965                 6.2433                 6.3167
 IR Inten    --     37.3921                18.7542                30.2254

                     91                     92                     93
                      A                      A                      A
 Frequencies --   3126.4543              3814.0180              3815.4134
 Red. masses --      1.0994                 1.0656                 1.0661
 Frc consts  --      6.3315                 9.1331                 9.1441
 IR Inten    --     14.6029                13.6615                16.7801

 - Thermochemistry -
 -------------------
 Temperature   298.150 Kelvin.  Pressure   1.00000 Atm.
 Atom     1 has atomic number  6 and mass  12.00000

 Molecular mass:   188.14124 amu.
 Principal axes and moments of inertia in atomic units:
                           1         2         3
     Eigenvalues --  1056.784306691.861717424.63804
           X            0.99982   0.01895  -0.00228
           Y           -0.01898   0.99971  -0.01458
           Z            0.00200   0.01462   0.99989
 This molecule is an asymmetric top.
 Rotational symmetry number  1.
 Warning -- assumption of classical behavior for rotation
           may cause significant error
 Rotational temperatures (Kelvin)      0.08196     0.01294     0.01167
 Rotational constants (GHZ):           1.70777     0.26969     0.24307
 Zero-point vibrational energy     770954.7 (Joules/Mol)
                                  184.26261 (Kcal/Mol)
 Warning -- explicit consideration of  23 degrees of freedom as
           vibrations may cause significant error
 Vibrational temperatures:     37.44    45.73    75.58   123.82   142.67
          (Kelvin)            177.48   224.07   272.96   309.63   323.61
                              327.45   347.33   367.06   398.42   430.13
                              457.40   518.60   532.15   588.29   637.05
                              761.91   788.82   810.83   985.41  1171.72
                             1189.84  1209.50  1254.33  1299.49  1303.02
                             1332.62  1383.85  1394.69  1431.46  1461.24
                             1521.47  1536.99  1549.96  1598.31  1608.69
                             1617.55  1639.58  1658.50  1666.18  1689.93
                             1721.14  1749.22  1762.50  1771.99  1810.12
                             1827.84  1837.71  1856.78  1895.81  1900.33
                             1948.31  1959.71  1971.77  2004.73  2013.63
                             2022.00  2026.42  2040.45  2065.41  2086.04
                             2141.38  2148.25  2158.38  2162.53  2165.56
                             2170.65  2173.00  2200.05  4222.96  4239.25
                             4272.11  4275.30  4316.00  4342.67  4347.25
                             4359.87  4370.13  4388.47  4393.67  4408.99
                             4409.23  4442.65  4450.28  4462.56  4477.92
                             4498.27  5487.52  5489.53

 Zero-point correction=                           0.293641 (Hartree/Particle)
 Thermal correction to Energy=                    0.309309
 Thermal correction to Enthalpy=                  0.310253
 Thermal correction to Gibbs Free Energy=         0.249531
 Sum of electronic and zero-point Energies=           -618.487634
 Sum of electronic and thermal Energies=              -618.471966
 Sum of electronic and thermal Enthalpies=            -618.471022
 Sum of electronic and thermal Free Energies=         -618.531744

                     E (Thermal)             CV                S
                      KCal/Mol        Cal/Mol-Kelvin    Cal/Mol-Kelvin
 Total                  194.094             57.100            127.800
 Electronic               0.000              0.000              0.000
 Translational            0.889              2.981             41.602
 Rotational               0.889              2.981             32.329
 Vibrational            192.317             51.138             53.869
 Vibration     1          0.593              1.985              6.111
 Vibration     2          0.594              1.983              5.715
 Vibration     3          0.596              1.977              4.720
 Vibration     4          0.601              1.959              3.748
 Vibration     5          0.604              1.950              3.471
 Vibration     6          0.610              1.930              3.047
 Vibration     7          0.620              1.896              2.601
 Vibration     8          0.633              1.854              2.231
 Vibration     9          0.645              1.818              1.999
 Vibration    10          0.650              1.803              1.919
 Vibration    11          0.651              1.799              1.898
 Vibration    12          0.658              1.777              1.793
 Vibration    13          0.665              1.754              1.695
 Vibration    14          0.678              1.716              1.553
 Vibration    15          0.692              1.676              1.423
 Vibration    16          0.704              1.639              1.321
 Vibration    17          0.735              1.554              1.120
 Vibration    18          0.742              1.534              1.080
 Vibration    19          0.773              1.451              0.931
 Vibration    20          0.802              1.377              0.818
 Vibration    21          0.885              1.185              0.588
 Vibration    22          0.903              1.143              0.548
 Vibration    23          0.919              1.110              0.517

                           ! Non-Optimized Parameters !
 Normal termination of Gaussian 16 at Tue May 23 00:51:51 2023.
