 Gaussian 16, Revision A.03,
 Gaussian 16:  ES64L-G16RevA.03 25-Dec-2016

 -----------------------------
 # opt freq b3lyp/6-31g(2df,p)
 -----------------------------

 -------------------
 Title Card Required
 -------------------
 Symbolic Z-matrix:
 Charge =  0 Multiplicity = 1

 SCF Done:  E(RB3LYP) =  -638.145103589     A.U. after   13 cycles
 SCF Done:  E(RB3LYP) =  -638.149542664     A.U. after   10 cycles
 SCF Done:  E(RB3LYP) =  -638.150379930     A.U. after    9 cycles
 SCF Done:  E(RB3LYP) =  -638.151119290     A.U. after   10 cycles
 SCF Done:  E(RB3LYP) =  -638.151300111     A.U. after   11 cycles
 SCF Done:  E(RB3LYP) =  -638.151441200     A.U. after   11 cycles
 SCF Done:  E(RB3LYP) =  -638.151467524     A.U. after   11 cycles
 SCF Done:  E(RB3LYP) =  -638.151510346     A.U. after   10 cycles
 SCF Done:  E(RB3LYP) =  -638.151540492     A.U. after   10 cycles
 SCF Done:  E(RB3LYP) =  -638.151565200     A.U. after   10 cycles
 SCF Done:  E(RB3LYP) =  -638.151571929     A.U. after   10 cycles
 SCF Done:  E(RB3LYP) =  -638.151573942     A.U. after    9 cycles
 SCF Done:  E(RB3LYP) =  -638.151573887     A.U. after    7 cycles
 SCF Done:  E(RB3LYP) =  -638.151573948     A.U. after    6 cycles
 SCF Done:  E(RB3LYP) =  -638.151573961     A.U. after    6 cycles
 Optimization completed.
    -- Stationary point found.
 Normal termination of Gaussian 16 at Tue May 23 06:17:27 2023.

 ----------------------------------------------------------------------
 #N Geom=AllCheck Guess=TCheck SCRF=Check GenChk RB3LYP/6-31G(2df,p) Fr
 eq
 ----------------------------------------------------------------------

 Structure from the checkpoint file:  "CCqCrOOCC1CC1CCCCN.chk"
 -------------------
 Title Card Required
 -------------------
 Charge =  0 Multiplicity = 1

                         Standard orientation:
 ---------------------------------------------------------------------
 Center     Atomic      Atomic             Coordinates (Angstroms)
 Number     Number       Type             X           Y           Z
 ---------------------------------------------------------------------
      1          6           0        4.586902   -1.986486   -0.760781
      2          6           0        3.356121   -1.486586   -0.009745
      3          6           0        3.609026   -1.269687    1.480594
      4          8           0        3.001573   -0.274539   -0.675212
      5          8           0        1.688337    0.110243   -0.182687
      6          6           0        1.732351    1.520395   -0.005127
      7          6           0        0.379156    1.932751    0.503168
      8          6           0       -0.162535    3.307369    0.178456
      9          6           0       -0.779337    2.086884   -0.452235
     10          6           0       -2.159875    1.605067   -0.060990
     11          6           0       -2.370121    0.111264   -0.342772
     12          6           0       -3.748228   -0.398223    0.087954
     13          6           0       -3.958973   -1.884809   -0.199527
     14          7           0       -5.306201   -2.304639    0.203095
     15          1           0        4.916278   -2.942015   -0.342938
     16          1           0        5.409671   -1.270177   -0.670864
     17          1           0        4.363688   -2.126181   -1.821409
     18          1           0        2.530234   -2.199961   -0.142093
     19          1           0        4.448720   -0.583413    1.632708
     20          1           0        3.845992   -2.219583    1.970819
     21          1           0        2.720745   -0.850411    1.957815
     22          1           0        1.953683    2.009293   -0.964635
     23          1           0        2.531497    1.780997    0.702062
     24          1           0        0.134858    1.545195    1.489006
     25          1           0        0.439845    3.962208   -0.442668
     26          1           0       -0.718563    3.821355    0.955660
     27          1           0       -0.530580    1.928420   -1.499617
     28          1           0       -2.921361    2.189382   -0.595505
     29          1           0       -2.321782    1.803456    1.007574
     30          1           0       -1.581770   -0.462211    0.161969
     31          1           0       -2.232539   -0.073302   -1.417169
     32          1           0       -4.540002    0.170080   -0.415389
     33          1           0       -3.881955   -0.219673    1.165301
     34          1           0       -3.148659   -2.462201    0.281044
     35          1           0       -3.864667   -2.060627   -1.278717
     36          1           0       -5.393979   -2.234949    1.213636
     37          1           0       -5.442156   -3.286472   -0.019038
 ---------------------------------------------------------------------

 SCF Done:  E(RB3LYP) =  -638.151573961     A.U. after    1 cycles

 The electronic state is 1-A.
 Alpha  occ. eigenvalues --  -19.17862 -19.17706 -14.30052 -10.23077 -10.22506
 Alpha  occ. eigenvalues --  -10.19663 -10.18960 -10.18663 -10.18439 -10.17761
 Alpha  occ. eigenvalues --  -10.17682 -10.17165 -10.17031 -10.17023  -1.10227
 Alpha  occ. eigenvalues --   -0.92200  -0.87052  -0.86001  -0.78044  -0.76074
 Alpha  occ. eigenvalues --   -0.71194  -0.68945  -0.67289  -0.62035  -0.58448
 Alpha  occ. eigenvalues --   -0.57409  -0.57374  -0.56168  -0.51060  -0.48430
 Alpha  occ. eigenvalues --   -0.47658  -0.47485  -0.45974  -0.45257  -0.44411
 Alpha  occ. eigenvalues --   -0.43797  -0.42340  -0.40773  -0.40288  -0.38932
 Alpha  occ. eigenvalues --   -0.38592  -0.37768  -0.36833  -0.35974  -0.35188
 Alpha  occ. eigenvalues --   -0.34926  -0.34624  -0.33243  -0.32751  -0.32232
 Alpha  occ. eigenvalues --   -0.31835  -0.29468  -0.28426  -0.27068  -0.23064
 Alpha  occ. eigenvalues --   -0.22917
 Alpha virt. eigenvalues --    0.03700   0.08710   0.09184   0.09922   0.10244
 Alpha virt. eigenvalues --    0.10864   0.12902   0.13106   0.13791   0.13882
 Alpha virt. eigenvalues --    0.14383   0.14961   0.15207   0.16111   0.16814

 Mulliken charges:
               1
     1  C   -0.401349
     2  C    0.188035
     3  C   -0.391183
     4  O   -0.195340
     5  O   -0.198251
     6  C   -0.039914
     7  C   -0.028772
     8  C   -0.325507
     9  C    0.022937
    10  C   -0.221126
    11  C   -0.170708
    12  C   -0.155651
    13  C   -0.148184
    14  N   -0.509673
    15  H    0.119886
    16  H    0.124776
    17  H    0.127823
    18  H    0.079892
    19  H    0.114599
    20  H    0.111028
    21  H    0.127010
    22  H    0.094960
    23  H    0.093367
    24  H    0.086424
    25  H    0.110891
    26  H    0.110284
    27  H    0.086937
    28  H    0.095439
    29  H    0.087560
    30  H    0.104200
    31  H    0.094048
    32  H    0.104099
    33  H    0.082673
    34  H    0.075879
    35  H    0.100492
    36  H    0.219690
    37  H    0.222730
 Sum of Mulliken charges =  -0.00000

 Dipole moment (field-independent basis, Debye):
    X=              0.8347    Y=             -0.6180    Z=              1.3365  Tot=              1.6926
 Quadrupole moment (field-independent basis, Debye-Ang):
   XX=            -93.9586   YY=            -79.9607   ZZ=            -86.4151
   XY=              0.3198   XZ=             -1.9560   YZ=             -1.4364

  Exact polarizability: 157.024  -5.509 146.508  -2.313   1.834 115.759
 Approx polarizability: 193.537  -6.874 190.544  -3.198   1.809 178.249

                      1                      2                      3
                      A                      A                      A
 Frequencies --     17.1162                29.1112                38.3887
 Red. masses --      3.5362                 3.4685                 2.8874
 Frc consts  --      0.0006                 0.0017                 0.0025
 IR Inten    --      0.1260                 0.5098                 0.1032

                      4                      5                      6
                      A                      A                      A
 Frequencies --     52.3471                55.2797                82.3227
 Red. masses --      2.2745                 2.9605                 3.4729
 Frc consts  --      0.0037                 0.0053                 0.0139
 IR Inten    --      3.8035                 1.5743                 0.4709

                      7                      8                      9
                      A                      A                      A
 Frequencies --     88.8060               129.7937               137.7342
 Red. masses --      2.9985                 2.7845                 2.4528
 Frc consts  --      0.0139                 0.0276                 0.0274
 IR Inten    --      1.3282                 0.7305                 0.2712

                     10                     11                     12
                      A                      A                      A
 Frequencies --    147.8918               200.1897               217.5693
 Red. masses --      2.1960                 1.1105                 2.5740
 Frc consts  --      0.0283                 0.0262                 0.0718
 IR Inten    --      1.3960                 0.1032                 2.5261

                     13                     14                     15
                      A                      A                      A
 Frequencies --    241.6172               253.2473               267.7819
 Red. masses --      1.1542                 1.4612                 2.0112
 Frc consts  --      0.0397                 0.0552                 0.0850
 IR Inten    --      0.5230                18.7654                13.2946

                     16                     17                     18
                      A                      A                      A
 Frequencies --    281.5972               294.9319               315.1806
 Red. masses --      3.2542                 2.4399                 2.8460
 Frc consts  --      0.1520                 0.1250                 0.1666
 IR Inten    --      7.4583                 2.1261                 0.3330

                     19                     20                     21
                      A                      A                      A
 Frequencies --    370.4996               379.2620               449.0547
 Red. masses --      3.3281                 2.7546                 2.8087
 Frc consts  --      0.2692                 0.2334                 0.3337
 IR Inten    --      1.9735                 0.5432                 2.9985

                     22                     23                     24
                      A                      A                      A
 Frequencies --    462.9137               467.8785               507.0303
 Red. masses --      2.5618                 2.7570                 3.0922
 Frc consts  --      0.3234                 0.3556                 0.4684
 IR Inten    --      3.5103                 0.9114                 3.7468

                     25                     26                     27
                      A                      A                      A
 Frequencies --    550.9140               738.1082               777.3134
 Red. masses --      3.6342                 1.1004                 1.4121
 Frc consts  --      0.6499                 0.3532                 0.5027
 IR Inten    --      7.9261                 2.2707                 1.9399

                     28                     29                     30
                      A                      A                      A
 Frequencies --    813.2314               822.4540               837.4408
 Red. masses --      1.6715                 1.6670                 2.1232
 Frc consts  --      0.6513                 0.6644                 0.8773
 IR Inten    --      4.8147                13.3106                 1.6948

                     31                     32                     33
                      A                      A                      A
 Frequencies --    862.3658               889.5468               909.0868
 Red. masses --      1.2722                 1.4684                 2.7202
 Frc consts  --      0.5574                 0.6846                 1.3245
 IR Inten    --     95.3695                29.2035                 2.4749

                     34                     35                     36
                      A                      A                      A
 Frequencies --    925.5564               937.6940               946.4478
 Red. masses --      1.3082                 1.3605                 2.2556
 Frc consts  --      0.6603                 0.7048                 1.1905
 IR Inten    --      0.5197                 6.9700                 6.9878

                     37                     38                     39
                      A                      A                      A
 Frequencies --    953.3661               965.0003               975.6403
 Red. masses --      1.7258                 3.8410                 2.7208
 Frc consts  --      0.9242                 2.1074                 1.5259
 IR Inten    --     14.9317                 5.1136                 4.4199

                     40                     41                     42
                      A                      A                      A
 Frequencies --   1003.8088              1029.5574              1054.5680
 Red. masses --      1.8814                 2.2598                 1.9117
 Frc consts  --      1.1170                 1.4113                 1.2526
 IR Inten    --      8.8589                10.8849                 5.4474

                     43                     44                     45
                      A                      A                      A
 Frequencies --   1061.0470              1071.2468              1085.9857
 Red. masses --      1.7021                 2.5344                 2.0679
 Frc consts  --      1.1291                 1.7136                 1.4369
 IR Inten    --     17.9750                43.3659                19.4613

                     46                     47                     48
                      A                      A                      A
 Frequencies --   1090.9883              1103.4431              1123.2424
 Red. masses --      2.6963                 1.8702                 1.1537
 Frc consts  --      1.8908                 1.3416                 0.8576
 IR Inten    --      9.6848                 1.5811                 1.0347

                     49                     50                     51
                      A                      A                      A
 Frequencies --   1140.9482              1144.8880              1180.5729
 Red. masses --      1.9578                 1.6693                 2.0305
 Frc consts  --      1.5016                 1.2892                 1.6674
 IR Inten    --     19.4138                 8.0135                38.9262

                     52                     53                     54
                      A                      A                      A
 Frequencies --   1191.5297              1205.4702              1208.1047
 Red. masses --      1.8298                 2.0451                 1.7818
 Frc consts  --      1.5306                 1.7509                 1.5323
 IR Inten    --      4.3692                 1.2632                 0.4543

                     55                     56                     57
                      A                      A                      A
 Frequencies --   1229.8224              1238.9083              1255.1675
 Red. masses --      1.5102                 1.3484                 1.2975
 Frc consts  --      1.3457                 1.2194                 1.2044
 IR Inten    --      2.0417                 2.3828                 0.1973

                     58                     59                     60
                      A                      A                      A
 Frequencies --   1274.4418              1311.4943              1325.9260
 Red. masses --      1.3739                 1.2801                 1.0500
 Frc consts  --      1.3148                 1.2973                 1.0876
 IR Inten    --      5.4625                 3.2369                 0.7803

                     61                     62                     63
                      A                      A                      A
 Frequencies --   1326.9120              1342.4119              1352.9789
 Red. masses --      1.2175                 1.2001                 1.3540
 Frc consts  --      1.2630                 1.2742                 1.4604
 IR Inten    --      1.1523                19.7821                16.4963

                     64                     65                     66
                      A                      A                      A
 Frequencies --   1360.1863              1379.1003              1391.7281
 Red. masses --      1.3498                 1.2060                 1.4023
 Frc consts  --      1.4713                 1.3514                 1.6003
 IR Inten    --      0.0503                13.5767                 7.4952

                     67                     68                     69
                      A                      A                      A
 Frequencies --   1396.6550              1400.6557              1409.4374
 Red. masses --      1.4018                 1.5374                 1.2611
 Frc consts  --      1.6111                 1.7770                 1.4760
 IR Inten    --     24.2148                 8.9992                 6.5241

                     70                     71                     72
                      A                      A                      A
 Frequencies --   1431.4129              1449.7200              1478.7637
 Red. masses --      1.4787                 1.5427                 1.0566
 Frc consts  --      1.7851                 1.9103                 1.3613
 IR Inten    --     16.7520                 5.3008                 1.0072

                     73                     74                     75
                      A                      A                      A
 Frequencies --   1481.8043              1486.2945              1487.4566
 Red. masses --      1.0778                 1.0476                 1.0864
 Frc consts  --      1.3944                 1.3636                 1.4162
 IR Inten    --      1.0390                 2.6127                 0.0743

                     76                     77                     78
                      A                      A                      A
 Frequencies --   1492.4486              1499.4243              1503.4971
 Red. masses --      1.0486                 1.5365                 1.1126
 Frc consts  --      1.3761                 2.0354                 1.4818
 IR Inten    --      1.4907                 1.1704                 2.3045

                     79                     80                     81
                      A                      A                      A
 Frequencies --   1511.9490              1519.8105              1522.1013
 Red. masses --      1.0580                 1.0932                 1.0911
 Frc consts  --      1.4250                 1.4877                 1.4894
 IR Inten    --      4.4976                 1.3013                 6.5631

                     82                     83                     84
                      A                      A                      A
 Frequencies --   1658.8920              2934.4482              2995.4242
 Red. masses --      1.0887                 1.0726                 1.0553
 Frc consts  --      1.7652                 5.4418                 5.5790
 IR Inten    --     21.5354                70.7783                42.2220

                     85                     86                     87
                      A                      A                      A
 Frequencies --   2997.9978              3003.6177              3004.7741
 Red. masses --      1.0659                 1.0589                 1.0832
 Frc consts  --      5.6447                 5.6286                 5.7623
 IR Inten    --      6.8126                11.9894                23.8130

                     88                     89                     90
                      A                      A                      A
 Frequencies --   3015.0460              3030.4428              3033.3668
 Red. masses --      1.0629                 1.0970                 1.1053
 Frc consts  --      5.6928                 5.9357                 5.9922
 IR Inten    --     56.7176                 5.6401                33.5926

                     91                     92                     93
                      A                      A                      A
 Frequencies --   3036.5637              3037.5077              3044.3149
 Red. masses --      1.0830                 1.0371                 1.0351
 Frc consts  --      5.8834                 5.6375                 5.6519
 IR Inten    --     40.1859                22.0801                19.7731

                     94                     95                     96
                      A                      A                      A
 Frequencies --   3048.0340              3069.1604              3105.1481
 Red. masses --      1.0996                 1.1021                 1.1017
 Frc consts  --      6.0189                 6.1167                 6.2585
 IR Inten    --      1.3697                91.1183                13.2383

                     97                     98                     99
                      A                      A                      A
 Frequencies --   3117.1636              3125.9536              3126.2575
 Red. masses --      1.1011                 1.0649                 1.1021
 Frc consts  --      6.3035                 6.1309                 6.3463
 IR Inten    --     36.4351                16.7376                18.5772

                    100                    101                    102
                      A                      A                      A
 Frequencies --   3129.5791              3130.6962              3140.3640
 Red. masses --      1.0773                 1.1000                 1.0873
 Frc consts  --      6.2164                 6.3524                 6.3177
 IR Inten    --     11.2343                19.9977                17.7318

                    103                    104                    105
                      A                      A                      A
 Frequencies --   3211.1603              3481.4922              3558.9497
 Red. masses --      1.1160                 1.0496                 1.0916
 Frc consts  --      6.7802                 7.4954                 8.1462
 IR Inten    --     11.6671                 1.6146                 0.2939

 - Thermochemistry -
 -------------------
 Temperature   298.150 Kelvin.  Pressure   1.00000 Atm.
 Atom     1 has atomic number  6 and mass  12.00000

 Molecular mass:   201.17288 amu.
 Principal axes and moments of inertia in atomic units:
                           1         2         3
     Eigenvalues --  2443.379527168.319689046.43845
           X            0.99998  -0.00520   0.00204
           Y            0.00520   0.99999  -0.00167
           Z           -0.00203   0.00168   1.00000
 This molecule is an asymmetric top.
 Rotational symmetry number  1.
 Warning -- assumption of classical behavior for rotation
           may cause significant error
 Rotational temperatures (Kelvin)      0.03545     0.01208     0.00957
 Rotational constants (GHZ):           0.73863     0.25177     0.19950
 Zero-point vibrational energy     873178.1 (Joules/Mol)
                                  208.69457 (Kcal/Mol)
 Warning -- explicit consideration of  25 degrees of freedom as
           vibrations may cause significant error
 Vibrational temperatures:     24.63    41.88    55.23    75.32    79.54
          (Kelvin)            118.44   127.77   186.74   198.17   212.78
                              288.03   313.03   347.63   364.37   385.28
                              405.16   424.34   453.47   533.07   545.67
                              646.09   666.03   673.17   729.50   792.64
                             1061.97  1118.38  1170.06  1183.33  1204.89
                             1240.75  1279.86  1307.97  1331.67  1349.13
                             1361.73  1371.68  1388.42  1403.73  1444.26
                             1481.30  1517.29  1526.61  1541.29  1562.49
                             1569.69  1587.61  1616.10  1641.57  1647.24
                             1698.58  1714.35  1734.40  1738.19  1769.44
                             1782.51  1805.91  1833.64  1886.95  1907.71
                             1909.13  1931.43  1946.63  1957.00  1984.22
                             2002.39  2009.48  2015.23  2027.87  2059.48
                             2085.82  2127.61  2131.99  2138.45  2140.12
                             2147.30  2157.34  2163.20  2175.36  2186.67
                             2189.96  2386.78  4222.02  4309.75  4313.45
                             4321.54  4323.20  4337.98  4360.13  4364.34
                             4368.94  4370.30  4380.09  4385.44  4415.84
                             4467.62  4484.90  4497.55  4497.99  4502.77
                             4504.37  4518.28  4620.14  5009.09  5120.53

 Zero-point correction=                           0.332576 (Hartree/Particle)
 Thermal correction to Energy=                    0.350293
 Thermal correction to Enthalpy=                  0.351238
 Thermal correction to Gibbs Free Energy=         0.284006
 Sum of electronic and zero-point Energies=           -637.818998
 Sum of electronic and thermal Energies=              -637.801280
 Sum of electronic and thermal Enthalpies=            -637.800336
 Sum of electronic and thermal Free Energies=         -637.867568

                     E (Thermal)             CV                S
                      KCal/Mol        Cal/Mol-Kelvin    Cal/Mol-Kelvin
 Total                  219.812             63.473            141.500
 Electronic               0.000              0.000              0.000
 Translational            0.889              2.981             41.802
 Rotational               0.889              2.981             33.427
 Vibrational            218.035             57.511             66.272
 Vibration     1          0.593              1.986              6.943
 Vibration     2          0.593              1.984              5.889
 Vibration     3          0.594              1.982              5.341
 Vibration     4          0.596              1.977              4.727
 Vibration     5          0.596              1.975              4.619
 Vibration     6          0.600              1.961              3.835
 Vibration     7          0.602              1.957              3.686
 Vibration     8          0.612              1.923              2.949
 Vibration     9          0.614              1.916              2.835
 Vibration    10          0.617              1.905              2.699
 Vibration    11          0.638              1.840              2.131
 Vibration    12          0.646              1.814              1.979
 Vibration    13          0.658              1.777              1.791
 Vibration    14          0.664              1.757              1.708
 Vibration    15          0.673              1.732              1.610
 Vibration    16          0.681              1.708              1.524
 Vibration    17          0.689              1.683              1.445
 Vibration    18          0.703              1.645              1.335
 Vibration    19          0.742              1.533              1.078
 Vibration    20          0.749              1.514              1.042
 Vibration    21          0.808              1.363              0.799
 Vibration    22          0.821              1.332              0.758
 Vibration    23          0.825              1.321              0.744
 Vibration    24          0.862              1.234              0.641
 Vibration    25          0.906              1.138              0.542

 Optimization completed.
    -- Stationary point found.
 Normal termination of Gaussian 16 at Tue May 23 08:18:31 2023.
