 Gaussian 16, Revision A.03,
 Gaussian 16:  ES64L-G16RevA.03 25-Dec-2016

 -----------------------------
 # opt freq b3lyp/6-31g(2df,p)
 -----------------------------

 -------------------
 Title Card Required
 -------------------
 Symbolic Z-matrix:
 Charge =  0 Multiplicity = 1

 SCF Done:  E(RB3LYP) =  -495.531029151     A.U. after   12 cycles
 SCF Done:  E(RB3LYP) =  -495.531850354     A.U. after    9 cycles
 SCF Done:  E(RB3LYP) =  -495.531895099     A.U. after    8 cycles
 SCF Done:  E(RB3LYP) =  -495.531897542     A.U. after    7 cycles
 Optimization completed.
    -- Stationary point found.
 Normal termination of Gaussian 16 at Sat May 27 19:10:51 2023.

 ----------------------------------------------------------------------
 #N Geom=AllCheck Guess=TCheck SCRF=Check GenChk RB3LYP/6-31G(2df,p) Fr
 eq
 ----------------------------------------------------------------------

 Structure from the checkpoint file:  "CCqCrqCrCqFrqFrF.chk"
 -------------------
 Title Card Required
 -------------------
 Charge =  0 Multiplicity = 1

                         Standard orientation:
 ---------------------------------------------------------------------
 Center     Atomic      Atomic             Coordinates (Angstroms)
 Number     Number       Type             X           Y           Z
 ---------------------------------------------------------------------
      1          6           0        1.242258    1.315084   -0.633871
      2          6           0        0.754059    0.000002   -0.000020
      3          6           0        1.242249   -1.206444   -0.822020
      4          6           0        1.242498   -0.108638    1.455726
      5          6           0       -0.778431   -0.000005    0.000067
      6          9           0       -1.280125    1.031350    0.702517
      7          9           0       -1.280145    0.092697   -1.244317
      8          9           0       -1.280130   -1.124053    0.541940
      9          1           0        2.335847    1.335619   -0.643712
     10          1           0        0.889811    2.181471   -0.068196
     11          1           0        0.889908    1.412292   -1.664029
     12          1           0        2.335839   -1.225260   -0.834789
     13          1           0        0.889893   -1.149712   -1.855196
     14          1           0        0.889842   -2.147183   -0.391150
     15          1           0        2.336089   -0.110347    1.478131
     16          1           0        0.890246   -1.031742    1.923305
     17          1           0        0.890327    0.734912    2.055081
 ---------------------------------------------------------------------

 SCF Done:  E(RB3LYP) =  -495.531897542     A.U. after    1 cycles

 The electronic state is 1-A.
 Alpha  occ. eigenvalues --  -24.71207 -24.71207 -24.71206 -10.40671 -10.21714
 Alpha  occ. eigenvalues --  -10.18413 -10.18413 -10.18413  -1.29848  -1.20929
 Alpha  occ. eigenvalues --   -1.20928  -0.83730  -0.69807  -0.69806  -0.69424
 Alpha  occ. eigenvalues --   -0.60376  -0.57420  -0.57419  -0.51238  -0.46327
 Alpha  occ. eigenvalues --   -0.46327  -0.43890  -0.43890  -0.43097  -0.41239
 Alpha  occ. eigenvalues --   -0.41238  -0.39611  -0.38830  -0.38830  -0.37203
 Alpha  occ. eigenvalues --   -0.34379  -0.34379  -0.33703
 Alpha virt. eigenvalues --    0.08103   0.12319   0.13343   0.13343   0.14547
 Alpha virt. eigenvalues --    0.14547   0.16544   0.16545   0.19619   0.20836
 Alpha virt. eigenvalues --    0.20838   0.21640   0.23544   0.25576   0.25880

 Mulliken charges:
               1
     1  C   -0.421248
     2  C    0.108476
     3  C   -0.421240
     4  C   -0.421252
     5  C    0.296126
     6  F   -0.089094
     7  F   -0.089096
     8  F   -0.089096
     9  H    0.117660
    10  H    0.128909
    11  H    0.128909
    12  H    0.117658
    13  H    0.128907
    14  H    0.128907
    15  H    0.117663
    16  H    0.128909
    17  H    0.128902
 Sum of Mulliken charges =   0.00000

 Dipole moment (field-independent basis, Debye):
    X=              2.0306    Y=             -0.0000    Z=              0.0000  Tot=              2.0306
 Quadrupole moment (field-independent basis, Debye-Ang):
   XX=            -47.3514   YY=            -47.0152   ZZ=            -47.0151
   XY=              0.0000   XZ=              0.0000   YZ=             -0.0001

  Exact polarizability:  56.129  -0.000  56.896   0.000  -0.000  56.895
 Approx polarizability:  77.087   0.000  79.583  -0.000  -0.000  79.582

                      1                      2                      3
                      A                      A                      A
 Frequencies --     74.9970               192.2584               228.7764
 Red. masses --      4.2139                 1.0614                 1.8893
 Frc consts  --      0.0140                 0.0231                 0.0583
 IR Inten    --      0.0000                 0.0001                 0.3480

                      4                      5                      6
                      A                      A                      A
 Frequencies --    228.9816               252.0701               252.5017
 Red. masses --      1.9314                 1.4616                 1.4272
 Frc consts  --      0.0597                 0.0547                 0.0536
 IR Inten    --      0.3570                 0.1698                 0.1565

                      7                      8                      9
                      A                      A                      A
 Frequencies --    328.9823               337.2025               337.3644
 Red. masses --      3.2781                 2.8694                 2.8692
 Frc consts  --      0.2090                 0.1922                 0.1924
 IR Inten    --      3.6114                 0.4896                 0.4900

                     10                     11                     12
                      A                      A                      A
 Frequencies --    438.0714               438.2177               566.0748
 Red. masses --      4.1022                 4.0974                 3.2323
 Frc consts  --      0.4638                 0.4636                 0.6103
 IR Inten    --      2.0354                 2.0330                 7.3961

                     13                     14                     15
                      A                      A                      A
 Frequencies --    577.6467               577.6687               749.1898
 Red. masses --      9.5627                 9.5666                 8.2356
 Frc consts  --      1.8800                 1.8809                 2.7235
 IR Inten    --      0.1570                 0.1569                 2.2474

                     16                     17                     18
                      A                      A                      A
 Frequencies --    852.6539               946.7410               946.8364
 Red. masses --      2.6296                 1.6418                 1.6418
 Frc consts  --      1.1264                 0.8670                 0.8672
 IR Inten    --      0.1434                 1.4429                 1.4453

                     19                     20                     21
                      A                      A                      A
 Frequencies --    967.5800              1038.6204              1038.8339
 Red. masses --      1.2002                 1.4621                 1.4621
 Frc consts  --      0.6620                 0.9293                 0.9296
 IR Inten    --      0.0001                 8.2008                 8.2323

                     22                     23                     24
                      A                      A                      A
 Frequencies --   1174.1177              1184.7493              1184.8394
 Red. masses --      3.4680                 7.0369                 7.0368
 Frc consts  --      2.8168                 5.8195                 5.8203
 IR Inten    --    149.4735               189.4232               189.3749

                     25                     26                     27
                      A                      A                      A
 Frequencies --   1258.6714              1258.7799              1334.2183
 Red. masses --      3.1913                 3.1921                 3.7893
 Frc consts  --      2.9789                 2.9801                 3.9743
 IR Inten    --      5.4535                 5.4869                43.0583

                     28                     29                     30
                      A                      A                      A
 Frequencies --   1397.8126              1397.9007              1434.9202
 Red. masses --      1.2280                 1.2277                 1.2487
 Frc consts  --      1.4137                 1.4135                 1.5149
 IR Inten    --      2.7326                 2.7312                22.1610

                     31                     32                     33
                      A                      A                      A
 Frequencies --   1475.9881              1492.1059              1492.1432
 Red. masses --      1.0471                 1.0453                 1.0453
 Frc consts  --      1.3440                 1.3712                 1.3712
 IR Inten    --      0.0000                 0.5022                 0.4911

                     34                     35                     36
                      A                      A                      A
 Frequencies --   1501.2368              1501.5090              1528.7057
 Red. masses --      1.0534                 1.0534                 1.0847
 Frc consts  --      1.3987                 1.3992                 1.4935
 IR Inten    --      3.5355                 3.5286                29.8382

                     37                     38                     39
                      A                      A                      A
 Frequencies --   3044.2537              3044.3643              3050.5859
 Red. masses --      1.0344                 1.0344                 1.0355
 Frc consts  --      5.6480                 5.6484                 5.6776
 IR Inten    --     18.1734                18.1526                 9.2389

                     40                     41                     42
                      A                      A                      A
 Frequencies --   3116.3240              3116.4224              3121.8516
 Red. masses --      1.1021                 1.1021                 1.1012
 Frc consts  --      6.3062                 6.3066                 6.3231
 IR Inten    --      2.6263                 2.5490                44.2117

                     43                     44                     45
                      A                      A                      A
 Frequencies --   3123.4040              3126.7636              3126.8379
 Red. masses --      1.1027                 1.1018                 1.1018
 Frc consts  --      6.3379                 6.3466                 6.3468
 IR Inten    --      0.0118                26.8510                26.7583

 - Thermochemistry -
 -------------------
 Temperature   298.150 Kelvin.  Pressure   1.00000 Atm.
 Atom     1 has atomic number  6 and mass  12.00000

 Molecular mass:   126.06564 amu.
 Principal axes and moments of inertia in atomic units:
                           1         2         3
     Eigenvalues --   717.492151009.713941009.73529
           X            1.00000  -0.00000   0.00001
           Y            0.00000   0.99967  -0.02567
           Z           -0.00001   0.02567   0.99967
 This molecule is an asymmetric top.
 Rotational symmetry number  1.
 Warning -- assumption of classical behavior for rotation
           may cause significant error
 Rotational temperatures (Kelvin)      0.12072     0.08578     0.08578
 Rotational constants (GHZ):           2.51535     1.78738     1.78734
 Zero-point vibrational energy     358041.0 (Joules/Mol)
                                   85.57384 (Kcal/Mol)
 Warning -- explicit consideration of  14 degrees of freedom as
           vibrations may cause significant error
 Vibrational temperatures:    107.90   276.62   329.16   329.45   362.67
          (Kelvin)            363.29   473.33   485.16   485.39   630.29
                              630.50   814.46   831.10   831.14  1077.92
                             1226.78  1362.15  1362.29  1392.13  1494.34
                             1494.65  1689.29  1704.59  1704.72  1810.95
                             1811.10  1919.64  2011.14  2011.27  2064.53
                             2123.62  2146.81  2146.86  2159.94  2160.34
                             2199.47  4380.00  4380.16  4389.11  4483.70
                             4483.84  4491.65  4493.88  4498.72  4498.82

 Zero-point correction=                           0.136371 (Hartree/Particle)
 Thermal correction to Energy=                    0.145265
 Thermal correction to Enthalpy=                  0.146210
 Thermal correction to Gibbs Free Energy=         0.103421
 Sum of electronic and zero-point Energies=           -495.395527
 Sum of electronic and thermal Energies=              -495.386632
 Sum of electronic and thermal Enthalpies=            -495.385688
 Sum of electronic and thermal Free Energies=         -495.428476

                     E (Thermal)             CV                S
                      KCal/Mol        Cal/Mol-Kelvin    Cal/Mol-Kelvin
 Total                   91.155             32.903             90.056
 Electronic               0.000              0.000              0.000
 Translational            0.889              2.981             40.408
 Rotational               0.889              2.981             28.083
 Vibrational             89.378             26.942             21.565
 Vibration     1          0.599              1.966              4.018
 Vibration     2          0.634              1.851              2.206
 Vibration     3          0.651              1.797              1.889
 Vibration     4          0.652              1.797              1.887
 Vibration     5          0.664              1.759              1.716
 Vibration     6          0.664              1.759              1.713
 Vibration     7          0.712              1.618              1.265
 Vibration     8          0.718              1.601              1.225
 Vibration     9          0.718              1.601              1.225
 Vibration    10          0.798              1.387              0.833
 Vibration    11          0.798              1.387              0.832
 Vibration    12          0.922              1.105              0.512
 Vibration    13          0.934              1.080              0.490
 Vibration    14          0.934              1.080              0.490

                           ! Non-Optimized Parameters !
 Normal termination of Gaussian 16 at Sat May 27 19:38:44 2023.
