 Gaussian 16, Revision A.03,
 Gaussian 16:  ES64L-G16RevA.03 25-Dec-2016

 -----------------------------
 # opt freq b3lyp/6-31g(2df,p)
 -----------------------------

 -------------------
 Title Card Required
 -------------------
 Symbolic Z-matrix:
 Charge =  0 Multiplicity = 1

 SCF Done:  E(RB3LYP) =  -1241.19916698     A.U. after   14 cycles
 SCF Done:  E(RB3LYP) =  -1241.20739224     A.U. after   13 cycles
 SCF Done:  E(RB3LYP) =  -1241.20929763     A.U. after   13 cycles
 SCF Done:  E(RB3LYP) =  -1241.22036313     A.U. after   14 cycles
 SCF Done:  E(RB3LYP) =  -1241.21280118     A.U. after   12 cycles
 SCF Done:  E(RB3LYP) =  -1241.22497126     A.U. after   13 cycles
 SCF Done:  E(RB3LYP) =  -1241.22973384     A.U. after   12 cycles
 SCF Done:  E(RB3LYP) =  -1241.23025270     A.U. after   11 cycles
 SCF Done:  E(RB3LYP) =  -1241.23158742     A.U. after   12 cycles
 SCF Done:  E(RB3LYP) =  -1241.23245579     A.U. after   12 cycles
 SCF Done:  E(RB3LYP) =  -1241.25482481     A.U. after   11 cycles
 SCF Done:  E(RB3LYP) =  -1241.25494404     A.U. after   11 cycles
 SCF Done:  E(RB3LYP) =  -1241.25500410     A.U. after   11 cycles
 SCF Done:  E(RB3LYP) =  -1241.25502446     A.U. after    9 cycles
 SCF Done:  E(RB3LYP) =  -1241.25504125     A.U. after   10 cycles
 SCF Done:  E(RB3LYP) =  -1241.25504540     A.U. after    8 cycles
 SCF Done:  E(RB3LYP) =  -1241.25504750     A.U. after    9 cycles
 SCF Done:  E(RB3LYP) =  -1241.25504775     A.U. after    8 cycles
 SCF Done:  E(RB3LYP) =  -1241.25504778     A.U. after    6 cycles
 Optimization completed.
    -- Stationary point found.
 Normal termination of Gaussian 16 at Tue May 23 06:35:39 2023.

 ----------------------------------------------------------------------
 #N Geom=AllCheck Guess=TCheck SCRF=Check GenChk RB3LYP/6-31G(2df,p) Fr
 eq
 ----------------------------------------------------------------------

 Structure from the checkpoint file:  "CCqCrc1cqCSrcccc1SN.chk"
 -------------------
 Title Card Required
 -------------------
 Charge =  0 Multiplicity = 1

                         Standard orientation:
 ---------------------------------------------------------------------
 Center     Atomic      Atomic             Coordinates (Angstroms)
 Number     Number       Type             X           Y           Z
 ---------------------------------------------------------------------
      1          6           0       -0.330545   -2.281567    1.506770
      2          6           0        0.321127   -1.611334    0.279746
      3          6           0       -0.030401   -2.338173   -1.035192
      4          6           0        0.093776   -0.097395    0.232106
      5          6           0        1.183615    0.779081    0.437047
      6          6           0        2.580655    0.291472    0.746355
      7         16           0        3.640205   -0.039441   -0.735560
      8          6           0        1.009637    2.165766    0.375275
      9          6           0       -0.235241    2.713938    0.122277
     10          6           0       -1.324479    1.873344   -0.062092
     11          6           0       -1.176149    0.487473   -0.006608
     12         16           0       -2.645618   -0.540733   -0.233440
     13          7           0       -3.965258    0.503600   -0.389151
     14          1           0       -0.054473   -3.340838    1.543322
     15          1           0       -1.421024   -2.221165    1.484464
     16          1           0        0.010614   -1.810412    2.433963
     17          1           0        1.395230   -1.760742    0.400695
     18          1           0       -1.103209   -2.365580   -1.235774
     19          1           0        0.322703   -3.373698   -0.985680
     20          1           0        0.451860   -1.855764   -1.891588
     21          1           0        2.597344   -0.586934    1.390645
     22          1           0        3.133654    1.076779    1.266408
     23          1           0        2.839203   -0.951732   -1.315569
     24          1           0        1.867714    2.812301    0.527802
     25          1           0       -0.365486    3.789996    0.075460
     26          1           0       -2.300914    2.302619   -0.249321
     27          1           0       -4.142143    1.069407    0.433029
     28          1           0       -3.939636    1.077713   -1.223900
 ---------------------------------------------------------------------

 SCF Done:  E(RB3LYP) =  -1241.25504778     A.U. after    1 cycles

 The electronic state is 1-A.
 Alpha  occ. eigenvalues --  -88.90295 -88.86833 -14.35515 -10.22212 -10.21641
 Alpha  occ. eigenvalues --  -10.20083 -10.20029 -10.19639 -10.18900 -10.18828
 Alpha  occ. eigenvalues --  -10.18355 -10.17401 -10.17321  -7.96162  -7.93430
 Alpha  occ. eigenvalues --   -5.92781  -5.92266  -5.91666  -5.89882  -5.89550
 Alpha  occ. eigenvalues --   -5.88933  -0.91242  -0.86645  -0.80315  -0.79755
 Alpha  occ. eigenvalues --   -0.75026  -0.72910  -0.68432  -0.68289  -0.65246
 Alpha  occ. eigenvalues --   -0.61533  -0.57737  -0.56231  -0.51327  -0.50922
 Alpha  occ. eigenvalues --   -0.48629  -0.46239  -0.44748  -0.43068  -0.42889
 Alpha  occ. eigenvalues --   -0.42734  -0.41406  -0.39757  -0.38730  -0.38388
 Alpha  occ. eigenvalues --   -0.37281  -0.36353  -0.34833  -0.34092  -0.33343
 Alpha  occ. eigenvalues --   -0.32832  -0.31675  -0.28483  -0.27152  -0.24739
 Alpha  occ. eigenvalues --   -0.23358  -0.21243
 Alpha virt. eigenvalues --   -0.01515  -0.00616   0.01818   0.03210   0.06805
 Alpha virt. eigenvalues --    0.07005   0.09154   0.10118   0.10637   0.12843
 Alpha virt. eigenvalues --    0.13427   0.13861   0.14935   0.15440   0.16474

 Mulliken charges:
               1
     1  C   -0.401997
     2  C   -0.081766
     3  C   -0.408365
     4  C    0.105492
     5  C    0.235838
     6  C   -0.326896
     7  S   -0.256124
     8  C   -0.177058
     9  C   -0.121123
    10  C   -0.183175
    11  C    0.106779
    12  S   -0.060671
    13  N   -0.489778
    14  H    0.111229
    15  H    0.149835
    16  H    0.113550
    17  H    0.078787
    18  H    0.152595
    19  H    0.111972
    20  H    0.115656
    21  H    0.146483
    22  H    0.137362
    23  H    0.158116
    24  H    0.094134
    25  H    0.098659
    26  H    0.071831
    27  H    0.258690
    28  H    0.259944
 Sum of Mulliken charges =  -0.00000

 Dipole moment (field-independent basis, Debye):
    X=             -1.3387    Y=              1.4410    Z=              0.8964  Tot=              2.1616
 Quadrupole moment (field-independent basis, Debye-Ang):
   XX=            -98.6760   YY=            -87.0157   ZZ=            -93.4026
   XY=             -7.6771   XZ=              4.1303   YZ=              0.8992

  Exact polarizability: 192.254  -0.587 162.637   4.132   2.181 102.069
 Approx polarizability: 289.408   4.581 262.506  12.795   5.990 168.117

                      1                      2                      3
                      A                      A                      A
 Frequencies --     38.2902                52.5544                62.5734
 Red. masses --      4.0915                 5.9202                 4.3111
 Frc consts  --      0.0035                 0.0096                 0.0099
 IR Inten    --      0.5297                 1.5643                 1.6867

                      4                      5                      6
                      A                      A                      A
 Frequencies --     85.2874               124.9478               171.3976
 Red. masses --      2.9687                 3.5507                 1.3502
 Frc consts  --      0.0127                 0.0327                 0.0234
 IR Inten    --      0.7997                 0.9435                10.2454

                      7                      8                      9
                      A                      A                      A
 Frequencies --    175.2564               185.5918               209.5888
 Red. masses --      1.9296                 3.4267                 1.1730
 Frc consts  --      0.0349                 0.0695                 0.0304
 IR Inten    --      0.5936                 0.8669                 0.7407

                     10                     11                     12
                      A                      A                      A
 Frequencies --    221.0746               241.6190               252.8144
 Red. masses --      1.4981                 3.5277                 3.3316
 Frc consts  --      0.0431                 0.1213                 0.1255
 IR Inten    --      0.4030                 3.0995                 0.8948

                     13                     14                     15
                      A                      A                      A
 Frequencies --    272.8717               314.6349               370.3304
 Red. masses --      2.5715                 3.3783                 3.3938
 Frc consts  --      0.1128                 0.1970                 0.2742
 IR Inten    --      1.9664                 4.6506                 0.1858

                     16                     17                     18
                      A                      A                      A
 Frequencies --    408.1429               440.6022               447.8910
 Red. masses --      2.8625                 2.5568                 1.4558
 Frc consts  --      0.2809                 0.2924                 0.1721
 IR Inten    --      2.8206                15.5963                30.5341

                     19                     20                     21
                      A                      A                      A
 Frequencies --    501.9978               515.1726               561.1841
 Red. masses --      3.8250                 3.3709                 3.7881
 Frc consts  --      0.5679                 0.5271                 0.7029
 IR Inten    --      1.6491                 5.0501                 0.4005

                     22                     23                     24
                      A                      A                      A
 Frequencies --    585.2583               609.7774               634.1993
 Red. masses --      4.0393                 1.9929                 4.3698
 Frc consts  --      0.8152                 0.4366                 1.0355
 IR Inten    --      0.2943               255.9290                 1.8211

                     25                     26                     27
                      A                      A                      A
 Frequencies --    682.2169               757.1365               769.8805
 Red. masses --      4.3025                 4.3094                 1.9089
 Frc consts  --      1.1798                 1.4555                 0.6666
 IR Inten    --     15.2706                 3.7244                11.1581

                     28                     29                     30
                      A                      A                      A
 Frequencies --    785.7225               828.3126               853.4618
 Red. masses --      1.2773                 2.3869                 4.1760
 Frc consts  --      0.4646                 0.9649                 1.7922
 IR Inten    --      2.7726                 5.7955                 1.0045

                     31                     32                     33
                      A                      A                      A
 Frequencies --    890.5878               895.8964               899.0704
 Red. masses --      2.8217                 2.4913                 1.4040
 Frc consts  --      1.3186                 1.1781                 0.6686
 IR Inten    --     16.2526                 0.9742                 0.5502

                     34                     35                     36
                      A                      A                      A
 Frequencies --    930.8341               954.0786               967.8781
 Red. masses --      1.2028                 1.2531                 1.4559
 Frc consts  --      0.6140                 0.6721                 0.8036
 IR Inten    --      0.4949                 0.0554                 0.0250

                     37                     38                     39
                      A                      A                      A
 Frequencies --    994.1509              1070.3096              1096.4003
 Red. masses --      1.4911                 1.9917                 1.1101
 Frc consts  --      0.8683                 1.3443                 0.7862
 IR Inten    --      6.2006                20.9684                 0.3391

                     40                     41                     42
                      A                      A                      A
 Frequencies --   1103.5167              1124.4016              1143.1902
 Red. masses --      2.5654                 2.5818                 2.1654
 Frc consts  --      1.8406                 1.9231                 1.6673
 IR Inten    --      3.1924                 1.4207                 1.7395

                     43                     44                     45
                      A                      A                      A
 Frequencies --   1170.8829              1189.0488              1199.8868
 Red. masses --      1.3558                 1.3991                 1.5933
 Frc consts  --      1.0951                 1.1655                 1.3515
 IR Inten    --      5.2945                 7.1989                 6.8359

                     46                     47                     48
                      A                      A                      A
 Frequencies --   1232.0641              1259.0781              1279.8323
 Red. masses --      2.0875                 1.5609                 1.5098
 Frc consts  --      1.8670                 1.4580                 1.4570
 IR Inten    --      6.5820                 9.1517                10.5626

                     49                     50                     51
                      A                      A                      A
 Frequencies --   1304.7090              1350.9249              1389.4589
 Red. masses --      4.3577                 1.2711                 1.3751
 Frc consts  --      4.3705                 1.3668                 1.5642
 IR Inten    --      1.4543                 1.6782                 6.5738

                     52                     53                     54
                      A                      A                      A
 Frequencies --   1401.4936              1422.3628              1453.0296
 Red. masses --      1.2040                 1.2297                 2.7483
 Frc consts  --      1.3933                 1.4658                 3.4187
 IR Inten    --      5.7077                 1.1442                17.5202

                     55                     56                     57
                      A                      A                      A
 Frequencies --   1476.8186              1486.0912              1491.5485
 Red. masses --      1.9783                 1.0540                 1.1275
 Frc consts  --      2.5421                 1.3714                 1.4779
 IR Inten    --      8.4278                 0.5838                 8.6791

                     58                     59                     60
                      A                      A                      A
 Frequencies --   1494.4949              1501.3857              1513.0083
 Red. masses --      1.0501                 1.0509                 1.0743
 Frc consts  --      1.3818                 1.3957                 1.4489
 IR Inten    --      0.6670                 4.6429                 3.7558

                     61                     62                     63
                      A                      A                      A
 Frequencies --   1602.6577              1613.4098              1621.1163
 Red. masses --      5.3862                 1.1098                 5.2979
 Frc consts  --      8.1510                 1.7021                 8.2032
 IR Inten    --     24.1063                13.7447                 3.1003

                     64                     65                     66
                      A                      A                      A
 Frequencies --   2682.8165              3034.7209              3037.9008
 Red. masses --      1.0384                 1.0370                 1.0381
 Frc consts  --      4.4035                 5.6269                 5.6447
 IR Inten    --      3.2516                28.0423                23.5008

                     67                     68                     69
                      A                      A                      A
 Frequencies --   3078.9826              3085.3294              3097.8829
 Red. masses --      1.0683                 1.0751                 1.1017
 Frc consts  --      5.9668                 6.0295                 6.2295
 IR Inten    --      7.2269                13.1430                14.3821

                     70                     71                     72
                      A                      A                      A
 Frequencies --   3100.9616              3125.4323              3129.3444
 Red. masses --      1.1013                 1.0994                 1.1028
 Frc consts  --      6.2397                 6.3273                 6.3630
 IR Inten    --     40.9174                 4.2262                12.8054

                     73                     74                     75
                      A                      A                      A
 Frequencies --   3134.0956              3170.4681              3186.3758
 Red. masses --      1.0975                 1.0850                 1.0913
 Frc consts  --      6.3513                 6.4260                 6.5279
 IR Inten    --     28.8956                 3.5401                12.9859

                     76                     77                     78
                      A                      A                      A
 Frequencies --   3202.8597              3500.5414              3603.0978
 Red. masses --      1.0925                 1.0442                 1.1000
 Frc consts  --      6.6031                 7.5392                 8.4141
 IR Inten    --     17.0060                 2.3401                14.1228

 - Thermochemistry -
 -------------------
 Temperature   298.150 Kelvin.  Pressure   1.00000 Atm.
 Atom     1 has atomic number  6 and mass  12.00000

 Molecular mass:   213.06459 amu.
 Principal axes and moments of inertia in atomic units:
                           1         2         3
     Eigenvalues --  1941.211854242.096355484.16234
           X            0.99987  -0.01435   0.00697
           Y            0.01438   0.99988  -0.00514
           Z           -0.00689   0.00524   0.99996
 This molecule is an asymmetric top.
 Rotational symmetry number  1.
 Warning -- assumption of classical behavior for rotation
           may cause significant error
 Rotational temperatures (Kelvin)      0.04462     0.02042     0.01579
 Rotational constants (GHZ):           0.92970     0.42544     0.32908
 Zero-point vibrational energy     603242.2 (Joules/Mol)
                                  144.17834 (Kcal/Mol)
 Warning -- explicit consideration of  23 degrees of freedom as
           vibrations may cause significant error
 Vibrational temperatures:     55.09    75.61    90.03   122.71   179.77
          (Kelvin)            246.60   252.15   267.03   301.55   318.08
                              347.64   363.74   392.60   452.69   532.82
                              587.23   633.93   644.42   722.26   741.22
                              807.42   842.06   877.33   912.47   981.56
                             1089.35  1107.69  1130.48  1191.76  1227.94
                             1281.36  1289.00  1293.56  1339.26  1372.71
                             1392.56  1430.36  1539.94  1577.48  1587.71
                             1617.76  1644.80  1684.64  1710.78  1726.37
                             1772.67  1811.53  1841.39  1877.19  1943.68
                             1999.12  2016.44  2046.46  2090.59  2124.81
                             2138.15  2146.01  2150.24  2160.16  2176.88
                             2305.87  2321.34  2332.42  3859.97  4366.29
                             4370.86  4429.97  4439.10  4457.16  4461.59
                             4496.80  4502.43  4509.26  4561.60  4584.48
                             4608.20  5036.50  5184.05

 Zero-point correction=                           0.229763 (Hartree/Particle)
 Thermal correction to Energy=                    0.244665
 Thermal correction to Enthalpy=                  0.245610
 Thermal correction to Gibbs Free Energy=         0.187363
 Sum of electronic and zero-point Energies=          -1241.025285
 Sum of electronic and thermal Energies=             -1241.010382
 Sum of electronic and thermal Enthalpies=           -1241.009438
 Sum of electronic and thermal Free Energies=        -1241.067685

                     E (Thermal)             CV                S
                      KCal/Mol        Cal/Mol-Kelvin    Cal/Mol-Kelvin
 Total                  153.530             55.426            122.590
 Electronic               0.000              0.000              0.000
 Translational            0.889              2.981             41.973
 Rotational               0.889              2.981             32.179
 Vibrational            151.752             49.464             48.438
 Vibration     1          0.594              1.982              5.346
 Vibration     2          0.596              1.977              4.719
 Vibration     3          0.597              1.972              4.374
 Vibration     4          0.601              1.959              3.765
 Vibration     5          0.610              1.928              3.022
 Vibration     6          0.626              1.878              2.420
 Vibration     7          0.627              1.873              2.378
 Vibration     8          0.632              1.860              2.271
 Vibration     9          0.642              1.826              2.047
 Vibration    10          0.648              1.809              1.950
 Vibration    11          0.658              1.777              1.791
 Vibration    12          0.664              1.758              1.711
 Vibration    13          0.676              1.723              1.578
 Vibration    14          0.702              1.646              1.338
 Vibration    15          0.742              1.533              1.078
 Vibration    16          0.773              1.453              0.933
 Vibration    17          0.801              1.382              0.825
 Vibration    18          0.807              1.366              0.802
 Vibration    19          0.857              1.246              0.653
 Vibration    20          0.870              1.216              0.621
 Vibration    21          0.917              1.115              0.521
 Vibration    22          0.942              1.063              0.476
 Vibration    23          0.969              1.011              0.433

 Optimization completed.
    -- Stationary point found.
 Normal termination of Gaussian 16 at Tue May 23 08:13:14 2023.
