 Gaussian 16, Revision A.03,
 Gaussian 16:  ES64L-G16RevA.03 25-Dec-2016

 -----------------------------
 # opt freq b3lyp/6-31g(2df,p)
 -----------------------------

 -------------------
 Title Card Required
 -------------------
 Symbolic Z-matrix:
 Charge =  0 Multiplicity = 1

 SCF Done:  E(RB3LYP) =  -809.668447964     A.U. after   13 cycles
 SCF Done:  E(RB3LYP) =  -809.675938886     A.U. after   11 cycles
 SCF Done:  E(RB3LYP) =  -809.678057205     A.U. after   11 cycles
 SCF Done:  E(RB3LYP) =  -809.680159927     A.U. after   12 cycles
 SCF Done:  E(RB3LYP) =  -809.680074885     A.U. after   12 cycles
 SCF Done:  E(RB3LYP) =  -809.681579124     A.U. after   11 cycles
 SCF Done:  E(RB3LYP) =  -809.681895734     A.U. after   10 cycles
 SCF Done:  E(RB3LYP) =  -809.682027897     A.U. after   11 cycles
 SCF Done:  E(RB3LYP) =  -809.682371930     A.U. after   10 cycles
 SCF Done:  E(RB3LYP) =  -809.683308916     A.U. after   11 cycles
 SCF Done:  E(RB3LYP) =  -809.686818373     A.U. after   10 cycles
 SCF Done:  E(RB3LYP) =  -809.686919080     A.U. after   10 cycles
 SCF Done:  E(RB3LYP) =  -809.686981976     A.U. after   10 cycles
 SCF Done:  E(RB3LYP) =  -809.687008578     A.U. after   10 cycles
 SCF Done:  E(RB3LYP) =  -809.687023432     A.U. after    8 cycles
 SCF Done:  E(RB3LYP) =  -809.687037365     A.U. after    9 cycles
 SCF Done:  E(RB3LYP) =  -809.687038308     A.U. after    7 cycles
 SCF Done:  E(RB3LYP) =  -809.687038534     A.U. after    7 cycles
 SCF Done:  E(RB3LYP) =  -809.687038556     A.U. after    6 cycles
 Optimization completed.
    -- Stationary point found.
 Normal termination of Gaussian 16 at Tue May 23 20:20:32 2023.

 ----------------------------------------------------------------------
 #N Geom=AllCheck Guess=TCheck SCRF=Check GenChk RB3LYP/6-31G(2df,p) Fr
 eq
 ----------------------------------------------------------------------

 Structure from the checkpoint file:  "CCqCCOCCqCrqCOrCCCOrOO.chk"
 -------------------
 Title Card Required
 -------------------
 Charge =  0 Multiplicity = 1

                         Standard orientation:
 ---------------------------------------------------------------------
 Center     Atomic      Atomic             Coordinates (Angstroms)
 Number     Number       Type             X           Y           Z
 ---------------------------------------------------------------------
      1          6           0        4.751272   -1.977114    0.357635
      2          6           0        4.416768   -0.624361   -0.264636
      3          6           0        3.089830   -0.023429    0.212483
      4          6           0        1.861235   -0.759264   -0.306548
      5          8           0        0.706101   -0.053649    0.110087
      6          6           0       -0.510998   -0.662431   -0.300533
      7          6           0       -1.722366    0.151478    0.192520
      8          6           0       -1.749296    0.154730    1.730223
      9          6           0       -1.626944    1.599197   -0.351103
     10          8           0       -0.605148    2.374907    0.239447
     11          6           0       -2.971367   -0.545056   -0.406822
     12          6           0       -4.341149   -0.048973    0.074643
     13          6           0       -5.491668   -0.795272   -0.605062
     14          8           0       -6.768697   -0.318180   -0.214377
     15          8           0        5.519601    0.209090    0.102678
     16          8           0        5.445018    1.416146   -0.691086
     17          1           0        4.003057   -2.723468    0.078048
     18          1           0        4.775532   -1.904958    1.449443
     19          1           0        5.728498   -2.321879    0.011296
     20          1           0        4.409110   -0.710879   -1.360469
     21          1           0        3.041523    1.011100   -0.141605
     22          1           0        3.068758   -0.002891    1.308242
     23          1           0        1.817777   -1.789609    0.080287
     24          1           0        1.887065   -0.826105   -1.407392
     25          1           0       -0.559538   -1.688976    0.099278
     26          1           0       -0.531536   -0.736912   -1.400784
     27          1           0       -0.807021    0.533910    2.127647
     28          1           0       -1.906722   -0.857808    2.119819
     29          1           0       -2.548919    0.794762    2.112940
     30          1           0       -2.562417    2.130623   -0.148501
     31          1           0       -1.514847    1.553467   -1.449436
     32          1           0        0.199366    1.842623    0.183277
     33          1           0       -2.900013   -1.621452   -0.195260
     34          1           0       -2.928861   -0.452644   -1.501525
     35          1           0       -4.468999    1.021197   -0.120105
     36          1           0       -4.429424   -0.183682    1.160567
     37          1           0       -5.395485   -1.878743   -0.422416
     38          1           0       -5.443945   -0.650241   -1.690297
     39          1           0       -6.857389   -0.459242    0.733594
     40          1           0        5.317542    2.078266    0.002576
 ---------------------------------------------------------------------

 SCF Done:  E(RB3LYP) =  -809.687038556     A.U. after    1 cycles

 The electronic state is 1-A.
 Alpha  occ. eigenvalues --  -19.19280 -19.19177 -19.15974 -19.13289 -19.11437
 Alpha  occ. eigenvalues --  -10.24331 -10.24288 -10.23523 -10.22628 -10.21672
 Alpha  occ. eigenvalues --  -10.19750 -10.18924 -10.18900 -10.18787 -10.18313
 Alpha  occ. eigenvalues --  -10.16943  -1.11550  -1.05060  -1.01405  -0.99896
 Alpha  occ. eigenvalues --   -0.91614  -0.82847  -0.79126  -0.76079  -0.72898
 Alpha  occ. eigenvalues --   -0.68543  -0.67445  -0.66176  -0.63572  -0.60333
 Alpha  occ. eigenvalues --   -0.58526  -0.55096  -0.53676  -0.50792  -0.50591
 Alpha  occ. eigenvalues --   -0.50405  -0.48070  -0.46957  -0.46598  -0.45936
 Alpha  occ. eigenvalues --   -0.44948  -0.44667  -0.43160  -0.41943  -0.41512
 Alpha  occ. eigenvalues --   -0.40801  -0.39942  -0.39312  -0.38821  -0.37314
 Alpha  occ. eigenvalues --   -0.37122  -0.36088  -0.36044  -0.35544  -0.34495
 Alpha  occ. eigenvalues --   -0.34075  -0.33640  -0.32605  -0.31533  -0.30427
 Alpha  occ. eigenvalues --   -0.29545  -0.27175  -0.26515  -0.25883  -0.25079
 Alpha virt. eigenvalues --    0.02840   0.06767   0.07538   0.07740   0.08675
 Alpha virt. eigenvalues --    0.09516   0.11157   0.11194   0.11564   0.12051
 Alpha virt. eigenvalues --    0.12252   0.13730   0.14306   0.14749   0.15125

 Mulliken charges:
               1
     1  C   -0.411324
     2  C    0.177078
     3  C   -0.230206
     4  C   -0.062254
     5  O   -0.267969
     6  C   -0.076684
     7  C    0.166748
     8  C   -0.406927
     9  C   -0.064416
    10  O   -0.434875
    11  C   -0.215200
    12  C   -0.226681
    13  C   -0.054126
    14  O   -0.418795
    15  O   -0.197705
    16  O   -0.329510
    17  H    0.125290
    18  H    0.129364
    19  H    0.135424
    20  H    0.084861
    21  H    0.112104
    22  H    0.108539
    23  H    0.094774
    24  H    0.095588
    25  H    0.088210
    26  H    0.088102
    27  H    0.131183
    28  H    0.098199
    29  H    0.116881
    30  H    0.101512
    31  H    0.073427
    32  H    0.286510
    33  H    0.091511
    34  H    0.096006
    35  H    0.116089
    36  H    0.091936
    37  H    0.083299
    38  H    0.110973
    39  H    0.279862
    40  H    0.313202
 Sum of Mulliken charges =  -0.00000

 Dipole moment (field-independent basis, Debye):
    X=              0.4115    Y=             -2.9941    Z=              0.8157  Tot=              3.1304
 Quadrupole moment (field-independent basis, Debye-Ang):
   XX=           -119.5504   YY=           -100.0056   ZZ=            -98.0968
   XY=              3.5307   XZ=             -3.4605   YZ=              0.2318

  Exact polarizability: 176.792   1.275 135.093  -0.396  -1.169 122.245
 Approx polarizability: 199.877   0.905 201.937  -0.188  -2.472 191.421

                      1                      2                      3
                      A                      A                      A
 Frequencies --     17.4647                24.1479                39.6771
 Red. masses --      4.7349                 4.1667                 4.8480
 Frc consts  --      0.0009                 0.0014                 0.0045
 IR Inten    --      0.0890                 1.0196                 0.9573

                      4                      5                      6
                      A                      A                      A
 Frequencies --     51.0552                62.9620                86.1630
 Red. masses --      1.8224                 4.1520                 2.5488
 Frc consts  --      0.0028                 0.0097                 0.0111
 IR Inten    --      2.1495                 0.9341                 0.6613

                      7                      8                      9
                      A                      A                      A
 Frequencies --    101.5385               109.8114               124.6135
 Red. masses --      4.0804                 2.2142                 3.3149
 Frc consts  --      0.0248                 0.0157                 0.0303
 IR Inten    --      1.8331                 1.9944                 1.6363

                     10                     11                     12
                      A                      A                      A
 Frequencies --    144.8758               153.2799               171.6040
 Red. masses --      4.0979                 2.8613                 3.8781
 Frc consts  --      0.0507                 0.0396                 0.0673
 IR Inten    --      2.8677                 0.8274                 2.2176

                     13                     14                     15
                      A                      A                      A
 Frequencies --    182.0723               197.0715               208.7755
 Red. masses --      2.2135                 2.8646                 1.4608
 Frc consts  --      0.0432                 0.0655                 0.0375
 IR Inten    --      4.7282                 0.6149                 5.7884

                     16                     17                     18
                      A                      A                      A
 Frequencies --    222.4003               251.3247               254.0556
 Red. masses --      1.2904                 1.1801                 2.0449
 Frc consts  --      0.0376                 0.0439                 0.0778
 IR Inten    --      1.3114               128.0695                12.1803

                     19                     20                     21
                      A                      A                      A
 Frequencies --    278.9084               292.6876               307.4249
 Red. masses --      3.4968                 2.6696                 1.2808
 Frc consts  --      0.1603                 0.1347                 0.0713
 IR Inten    --      5.1970                 6.9739               100.2926

                     22                     23                     24
                      A                      A                      A
 Frequencies --    321.4922               338.8308               379.3276
 Red. masses --      2.9515                 2.5453                 3.2125
 Frc consts  --      0.1797                 0.1722                 0.2723
 IR Inten    --      3.2265                 1.5252                 0.6903

                     25                     26                     27
                      A                      A                      A
 Frequencies --    397.0629               418.4879               473.5234
 Red. masses --      2.1334                 3.2853                 3.5748
 Frc consts  --      0.1982                 0.3390                 0.4723
 IR Inten    --      2.0076                 6.4108                 2.0177

                     28                     29                     30
                      A                      A                      A
 Frequencies --    490.6530               515.6503               539.7971
 Red. masses --      2.9738                 3.5342                 2.2481
 Frc consts  --      0.4218                 0.5537                 0.3859
 IR Inten    --      4.7435                 5.7508                27.3458

                     31                     32                     33
                      A                      A                      A
 Frequencies --    569.6464               628.9010               749.5144
 Red. masses --      1.3467                 3.4365                 1.1356
 Frc consts  --      0.2575                 0.8008                 0.3759
 IR Inten    --     67.4126                 6.8697                 3.8960

                     34                     35                     36
                      A                      A                      A
 Frequencies --    775.9050               801.8706               844.9274
 Red. masses --      3.1427                 1.2427                 1.3444
 Frc consts  --      1.1147                 0.4708                 0.5655
 IR Inten    --      1.3099                 1.0610                 2.8218

                     37                     38                     39
                      A                      A                      A
 Frequencies --    859.8371               900.4103               911.3840
 Red. masses --      1.9437                 2.1808                 2.4453
 Frc consts  --      0.8467                 1.0417                 1.1967
 IR Inten    --      4.3652                 2.7530                12.1741

                     40                     41                     42
                      A                      A                      A
 Frequencies --    950.0275               964.5023               968.9212
 Red. masses --      1.3553                 1.8633                 4.6599
 Frc consts  --      0.7207                 1.0213                 2.5775
 IR Inten    --      1.3517                 7.4485                 2.0107

                     43                     44                     45
                      A                      A                      A
 Frequencies --    972.4333               987.4333              1010.2353
 Red. masses --      1.3992                 2.3617                 3.3524
 Frc consts  --      0.7796                 1.3567                 2.0158
 IR Inten    --      0.2440                 9.5390                 6.6465

                     46                     47                     48
                      A                      A                      A
 Frequencies --   1036.7061              1057.3350              1064.6068
 Red. masses --      2.3360                 2.6833                 2.8527
 Frc consts  --      1.4792                 1.7674                 1.9050
 IR Inten    --     19.0217                39.1098                 2.8352

                     49                     50                     51
                      A                      A                      A
 Frequencies --   1069.3892              1082.4836              1102.2152
 Red. masses --      2.4184                 4.2453                 3.4067
 Frc consts  --      1.6295                 2.9309                 2.4385
 IR Inten    --     36.8890                85.0007                54.2801

                     52                     53                     54
                      A                      A                      A
 Frequencies --   1118.9611              1132.9721              1143.7334
 Red. masses --      3.3906                 3.6124                 1.4742
 Frc consts  --      2.5012                 2.7320                 1.1362
 IR Inten    --     31.3633               223.7649               118.2766

                     55                     56                     57
                      A                      A                      A
 Frequencies --   1168.3862              1175.9614              1183.5452
 Red. masses --      2.2493                 1.7280                 1.8857
 Frc consts  --      1.8091                 1.4079                 1.5563
 IR Inten    --      2.1493                 4.0151                 4.6913

                     58                     59                     60
                      A                      A                      A
 Frequencies --   1206.6632              1233.4152              1249.0759
 Red. masses --      2.5107                 1.5522                 1.3879
 Frc consts  --      2.1538                 1.3913                 1.2758
 IR Inten    --     10.1913                 2.0288                 7.1777

                     61                     62                     63
                      A                      A                      A
 Frequencies --   1261.6521              1290.3724              1295.5468
 Red. masses --      1.1832                 1.2210                 1.3187
 Frc consts  --      1.1097                 1.1978                 1.3041
 IR Inten    --      9.3955                 2.3983                 4.4591

                     64                     65                     66
                      A                      A                      A
 Frequencies --   1299.6400              1312.0418              1323.4965
 Red. masses --      1.4878                 1.1203                 1.1911
 Frc consts  --      1.4806                 1.1362                 1.2293
 IR Inten    --      3.3493                 1.0857                 5.3014

                     67                     68                     69
                      A                      A                      A
 Frequencies --   1351.8438              1354.0438              1378.2872
 Red. masses --      1.2974                 1.3108                 1.2510
 Frc consts  --      1.3969                 1.4160                 1.4002
 IR Inten    --     30.8452                 3.1194                 7.3260

                     70                     71                     72
                      A                      A                      A
 Frequencies --   1384.5322              1387.9700              1391.5482
 Red. masses --      1.3181                 1.1730                 1.2621
 Frc consts  --      1.4887                 1.3314                 1.4399
 IR Inten    --      0.7244                33.6649                 5.8597

                     73                     74                     75
                      A                      A                      A
 Frequencies --   1398.4812              1402.4918              1410.5523
 Red. masses --      1.3464                 1.3445                 1.3180
 Frc consts  --      1.5514                 1.5582                 1.5451
 IR Inten    --     39.1800                 1.4669                 3.6121

                     76                     77                     78
                      A                      A                      A
 Frequencies --   1414.9614              1423.2315              1451.8384
 Red. masses --      1.3386                 1.2734                 1.3995
 Frc consts  --      1.5791                 1.5197                 1.7380
 IR Inten    --     12.9525                68.0351                 4.0407

                     79                     80                     81
                      A                      A                      A
 Frequencies --   1468.9204              1479.3051              1483.7034
 Red. masses --      1.1998                 1.0841                 1.0504
 Frc consts  --      1.5253                 1.3977                 1.3624
 IR Inten    --     43.5186                 2.2062                 3.7402

                     82                     83                     84
                      A                      A                      A
 Frequencies --   1489.0273              1491.5779              1494.2113
 Red. masses --      1.0818                 1.0627                 1.0861
 Frc consts  --      1.4132                 1.3930                 1.4288
 IR Inten    --      0.3354                 4.9769                 0.3592

                     85                     86                     87
                      A                      A                      A
 Frequencies --   1497.5190              1504.8377              1506.5065
 Red. masses --      1.0665                 1.0649                 1.0672
 Frc consts  --      1.4091                 1.4208                 1.4271
 IR Inten    --      1.9838                11.3127                 7.8931

                     88                     89                     90
                      A                      A                      A
 Frequencies --   1513.5641              1516.9450              1534.2102
 Red. masses --      1.0878                 1.0930                 1.0929
 Frc consts  --      1.4682                 1.4818                 1.5156
 IR Inten    --      2.0043                 0.3354                 5.0649

                     91                     92                     93
                      A                      A                      A
 Frequencies --   2938.0304              2951.3042              2963.2301
 Red. masses --      1.0716                 1.0551                 1.0578
 Frc consts  --      5.4501                 5.4149                 5.4723
 IR Inten    --     45.8305                22.4146                53.2738

                     94                     95                     96
                      A                      A                      A
 Frequencies --   2963.6232              2987.5430              2994.4740
 Red. masses --      1.0706                 1.1058                 1.1016
 Frc consts  --      5.5400                 5.8149                 5.8196
 IR Inten    --     58.2175                50.7554                24.7113

                     97                     98                     99
                      A                      A                      A
 Frequencies --   2997.2063              3006.8305              3021.5461
 Red. masses --      1.0587                 1.0830                 1.0723
 Frc consts  --      5.6037                 5.7690                 5.7682
 IR Inten    --     39.4469                25.7937                15.0981

                    100                    101                    102
                      A                      A                      A
 Frequencies --   3030.4511              3035.7976              3042.6225
 Red. masses --      1.0889                 1.0445                 1.0574
 Frc consts  --      5.8918                 5.6718                 5.7674
 IR Inten    --     19.1691                31.7636                20.6217

                    103                    104                    105
                      A                      A                      A
 Frequencies --   3047.2756              3058.5202              3068.8081
 Red. masses --      1.0373                 1.0881                 1.0897
 Frc consts  --      5.6753                 5.9972                 6.0466
 IR Inten    --     13.3360                12.8329                52.2912

                    106                    107                    108
                      A                      A                      A
 Frequencies --   3086.0547              3095.2779              3104.2147
 Red. masses --      1.0999                 1.1032                 1.0968
 Frc consts  --      6.1717                 6.2275                 6.2272
 IR Inten    --     58.8066                22.2191                25.8549

                    109                    110                    111
                      A                      A                      A
 Frequencies --   3119.9997              3129.6574              3141.2517
 Red. masses --      1.1010                 1.1019                 1.0978
 Frc consts  --      6.3148                 6.3588                 6.3823
 IR Inten    --     20.9216                19.9309                16.7436

                    112                    113                    114
                      A                      A                      A
 Frequencies --   3751.1268              3762.4358              3814.6146
 Red. masses --      1.0651                 1.0686                 1.0661
 Frc consts  --      8.8304                 8.9127                 9.1400
 IR Inten    --    176.1326                36.5292                15.5984

 - Thermochemistry -
 -------------------
 Temperature   298.150 Kelvin.  Pressure   1.00000 Atm.
 Atom     1 has atomic number  6 and mass  12.00000

 Molecular mass:   236.16237 amu.
 Principal axes and moments of inertia in atomic units:
                           1         2         3
     Eigenvalues --  1329.90730********************
           X            0.99999  -0.00451   0.00036
           Y            0.00451   0.99998   0.00332
           Z           -0.00038  -0.00332   0.99999
 This molecule is an asymmetric top.
 Rotational symmetry number  1.
 Warning -- assumption of classical behavior for rotation
           may cause significant error
 Rotational temperatures (Kelvin)      0.06513     0.00675     0.00641
 Rotational constants (GHZ):           1.35704     0.14069     0.13367
 Zero-point vibrational energy     925328.8 (Joules/Mol)
                                  221.15889 (Kcal/Mol)
 Warning -- explicit consideration of  31 degrees of freedom as
           vibrations may cause significant error
 Vibrational temperatures:     25.13    34.74    57.09    73.46    90.59
          (Kelvin)            123.97   146.09   157.99   179.29   208.44
                              220.54   246.90   261.96   283.54   300.38
                              319.98   361.60   365.53   401.29   421.11
                              442.32   462.56   487.50   545.77   571.29
                              602.11   681.29   705.94   741.91   776.65
                              819.59   904.85  1078.38  1116.35  1153.71
                             1215.66  1237.11  1295.49  1311.28  1366.88
                             1387.70  1394.06  1399.11  1420.70  1453.50
                             1491.59  1521.27  1531.73  1538.61  1557.45
                             1585.84  1609.94  1630.09  1645.58  1681.05
                             1691.95  1702.86  1736.12  1774.61  1797.14
                             1815.24  1856.56  1864.00  1869.89  1887.74
                             1904.22  1945.00  1948.17  1983.05  1992.03
                             1996.98  2002.13  2012.10  2017.87  2029.47
                             2035.81  2047.71  2088.87  2113.45  2128.39
                             2134.72  2142.38  2146.05  2149.84  2154.60
                             2165.13  2167.53  2177.68  2182.55  2207.39
                             4227.17  4246.27  4263.43  4263.99  4298.41
                             4308.38  4312.31  4326.16  4347.33  4360.14
                             4367.84  4377.66  4384.35  4400.53  4415.33
                             4440.14  4453.41  4466.27  4488.98  4502.88
                             4519.56  5397.03  5413.31  5488.38

 Zero-point correction=                           0.352439 (Hartree/Particle)
 Thermal correction to Energy=                    0.373039
 Thermal correction to Enthalpy=                  0.373983
 Thermal correction to Gibbs Free Energy=         0.301102
 Sum of electronic and zero-point Energies=           -809.334599
 Sum of electronic and thermal Energies=              -809.313999
 Sum of electronic and thermal Enthalpies=            -809.313055
 Sum of electronic and thermal Free Energies=         -809.385937

                     E (Thermal)             CV                S
                      KCal/Mol        Cal/Mol-Kelvin    Cal/Mol-Kelvin
 Total                  234.086             73.482            153.392
 Electronic               0.000              0.000              0.000
 Translational            0.889              2.981             42.280
 Rotational               0.889              2.981             33.798
 Vibrational            232.308             67.520             77.314
 Vibration     1          0.593              1.986              6.903
 Vibration     2          0.593              1.985              6.260
 Vibration     3          0.594              1.981              5.275
 Vibration     4          0.595              1.977              4.776
 Vibration     5          0.597              1.972              4.362
 Vibration     6          0.601              1.959              3.745
 Vibration     7          0.604              1.948              3.425
 Vibration     8          0.606              1.941              3.272
 Vibration     9          0.610              1.928              3.028
 Vibration    10          0.616              1.908              2.738
 Vibration    11          0.619              1.899              2.631
 Vibration    12          0.626              1.877              2.418
 Vibration    13          0.630              1.864              2.307
 Vibration    14          0.636              1.844              2.160
 Vibration    15          0.642              1.827              2.054
 Vibration    16          0.648              1.807              1.939
 Vibration    17          0.663              1.761              1.721
 Vibration    18          0.665              1.756              1.702
 Vibration    19          0.679              1.713              1.540
 Vibration    20          0.688              1.687              1.458
 Vibration    21          0.697              1.660              1.376
 Vibration    22          0.707              1.632              1.303
 Vibration    23          0.719              1.598              1.218
 Vibration    24          0.749              1.514              1.042
 Vibration    25          0.764              1.476              0.974
 Vibration    26          0.781              1.430              0.897
 Vibration    27          0.830              1.309              0.728
 Vibration    28          0.846              1.271              0.682
 Vibration    29          0.871              1.215              0.620
 Vibration    30          0.895              1.162              0.566
 Vibration    31          0.926              1.097              0.505

                           ! Non-Optimized Parameters !
 Normal termination of Gaussian 16 at Tue May 23 23:19:19 2023.
