 Gaussian 16, Revision A.03,
 Gaussian 16:  ES64L-G16RevA.03 25-Dec-2016

 -----------------------------
 # opt freq b3lyp/6-31g(2df,p)
 -----------------------------

 -------------------
 Title Card Required
 -------------------
 Symbolic Z-matrix:
 Charge =  0 Multiplicity = 1

 SCF Done:  E(RB3LYP) =  -315.257432230     A.U. after   14 cycles
 SCF Done:  E(RB3LYP) =  -315.353444095     A.U. after   13 cycles
 SCF Done:  E(RB3LYP) =  -315.448128569     A.U. after   12 cycles
 SCF Done:  E(RB3LYP) =  -315.465832528     A.U. after   10 cycles
 SCF Done:  E(RB3LYP) =  -315.538865866     A.U. after   11 cycles
 SCF Done:  E(RB3LYP) =  -315.606189414     A.U. after   12 cycles
 SCF Done:  E(RB3LYP) =  -315.665891475     A.U. after   10 cycles
 SCF Done:  E(RB3LYP) =  -315.701558998     A.U. after   11 cycles
 SCF Done:  E(RB3LYP) =  -315.705885261     A.U. after   10 cycles
 SCF Done:  E(RB3LYP) =  -315.713168676     A.U. after   10 cycles
 SCF Done:  E(RB3LYP) =  -315.728025210     A.U. after    9 cycles
 SCF Done:  E(RB3LYP) =  -315.728132102     A.U. after    8 cycles
 SCF Done:  E(RB3LYP) =  -315.728267264     A.U. after    9 cycles
 SCF Done:  E(RB3LYP) =  -315.728366389     A.U. after    9 cycles
 SCF Done:  E(RB3LYP) =  -315.728404539     A.U. after    8 cycles
 SCF Done:  E(RB3LYP) =  -315.728411315     A.U. after    8 cycles
 SCF Done:  E(RB3LYP) =  -315.728413026     A.U. after    6 cycles
 SCF Done:  E(RB3LYP) =  -315.728413450     A.U. after    6 cycles
 SCF Done:  E(RB3LYP) =  -315.728413815     A.U. after    5 cycles
 Optimization completed.
    -- Stationary point found.
 Normal termination of Gaussian 16 at Mon May 29 06:55:16 2023.

 ----------------------------------------------------------------------
 #N Geom=AllCheck Guess=TCheck SCRF=Check GenChk RB3LYP/6-31G(2df,p) Fr
 eq
 ----------------------------------------------------------------------

 Structure from the checkpoint file:  "CCqCrCqCrCqCrC.chk"
 -------------------
 Title Card Required
 -------------------
 Charge =  0 Multiplicity = 1

                         Standard orientation:
 ---------------------------------------------------------------------
 Center     Atomic      Atomic             Coordinates (Angstroms)
 Number     Number       Type             X           Y           Z
 ---------------------------------------------------------------------
      1          6           0        2.507849   -0.572955    0.467757
      2          6           0        1.562554   -0.471264   -0.739216
      3          6           0        0.330725    0.469041   -0.620079
      4          6           0        0.743648    1.824686   -0.019327
      5          6           0       -0.951991   -0.155481    0.033593
      6          6           0       -2.075756    0.902741    0.070441
      7          6           0       -1.454861   -1.328515   -0.833611
      8          6           0       -0.723413   -0.669885    1.468123
      9          1           0        3.337880   -1.247902    0.233984
     10          1           0        2.015175   -0.959001    1.363020
     11          1           0        2.942973    0.397518    0.724269
     12          1           0        2.156037   -0.110773   -1.589546
     13          1           0        1.235509   -1.476888   -1.022846
     14          1           0        0.027383    0.675430   -1.656950
     15          1           0       -0.024150    2.587056   -0.168684
     16          1           0        0.945923    1.762151    1.054681
     17          1           0        1.658472    2.187843   -0.500382
     18          1           0       -1.862990    1.705696    0.781609
     19          1           0       -3.021701    0.440899    0.373361
     20          1           0       -2.229768    1.357074   -0.915139
     21          1           0       -0.737724   -2.153081   -0.876633
     22          1           0       -1.656158   -1.004468   -1.861009
     23          1           0       -2.387625   -1.732773   -0.425247
     24          1           0       -0.059986   -1.538812    1.488041
     25          1           0       -1.675951   -0.979800    1.912797
     26          1           0       -0.295827    0.099628    2.118589
 ---------------------------------------------------------------------

 SCF Done:  E(RB3LYP) =  -315.728413815     A.U. after    1 cycles

 The electronic state is 1-A.
 Alpha  occ. eigenvalues --  -10.18906 -10.17938 -10.17297 -10.16638 -10.16582
 Alpha  occ. eigenvalues --  -10.16567 -10.16512 -10.16510  -0.82352  -0.76372
 Alpha  occ. eigenvalues --   -0.71230  -0.67900  -0.67504  -0.63665  -0.57759
 Alpha  occ. eigenvalues --   -0.51039  -0.46616  -0.45377  -0.43650  -0.42231
 Alpha  occ. eigenvalues --   -0.41117  -0.39639  -0.38043  -0.37779  -0.37034
 Alpha  occ. eigenvalues --   -0.36309  -0.35592  -0.34293  -0.33144  -0.32864
 Alpha  occ. eigenvalues --   -0.30333  -0.29738  -0.28982
 Alpha virt. eigenvalues --    0.07008   0.11290   0.12079   0.12331   0.13627
 Alpha virt. eigenvalues --    0.13654   0.14532   0.14955   0.17004   0.17543
 Alpha virt. eigenvalues --    0.18163   0.18747   0.19142   0.20840   0.21193

 Mulliken charges:
               1
     1  C   -0.376515
     2  C   -0.204584
     3  C    0.048044
     4  C   -0.418626
     5  C    0.277195
     6  C   -0.409395
     7  C   -0.409589
     8  C   -0.407489
     9  H    0.107958
    10  H    0.117296
    11  H    0.114852
    12  H    0.092565
    13  H    0.093442
    14  H    0.065190
    15  H    0.112516
    16  H    0.117014
    17  H    0.108598
    18  H    0.111636
    19  H    0.104324
    20  H    0.105317
    21  H    0.111572
    22  H    0.105713
    23  H    0.105304
    24  H    0.113301
    25  H    0.104736
    26  H    0.109625
 Sum of Mulliken charges =  -0.00000

 Dipole moment (field-independent basis, Debye):
    X=             -0.0164    Y=              0.0110    Z=             -0.0876  Tot=              0.0898
 Quadrupole moment (field-independent basis, Debye-Ang):
   XX=            -55.1291   YY=            -55.0251   ZZ=            -54.8520
   XY=              0.1061   XZ=             -0.4112   YZ=             -0.1949

  Exact polarizability:  95.893   0.046  85.821  -0.050  -0.097  81.195
 Approx polarizability: 124.720   0.745 121.583  -0.650  -0.597 120.688

                      1                      2                      3
                      A                      A                      A
 Frequencies --     39.1586               110.4963               201.4985
 Red. masses --      2.3216                 1.6962                 1.3698
 Frc consts  --      0.0021                 0.0122                 0.0328
 IR Inten    --      0.0009                 0.0058                 0.0876

                      4                      5                      6
                      A                      A                      A
 Frequencies --    218.9865               243.5491               257.1211
 Red. masses --      1.1235                 1.3798                 1.6407
 Frc consts  --      0.0317                 0.0482                 0.0639
 IR Inten    --      0.0022                 0.0269                 0.1603

                      7                      8                      9
                      A                      A                      A
 Frequencies --    271.9729               282.8676               303.1919
 Red. masses --      1.3040                 1.6786                 1.2862
 Frc consts  --      0.0568                 0.0791                 0.0697
 IR Inten    --      0.0388                 0.0352                 0.0364

                     10                     11                     12
                      A                      A                      A
 Frequencies --    307.4772               345.9083               374.2281
 Red. masses --      1.7127                 2.2291                 1.9316
 Frc consts  --      0.0954                 0.1571                 0.1594
 IR Inten    --      0.0452                 0.0257                 0.0349

                     13                     14                     15
                      A                      A                      A
 Frequencies --    396.8793               443.5011               456.1988
 Red. masses --      2.0606                 2.1100                 2.5096
 Frc consts  --      0.1912                 0.2445                 0.3077
 IR Inten    --      0.0808                 0.1130                 0.0793

                     16                     17                     18
                      A                      A                      A
 Frequencies --    586.5415               669.7704               783.2374
 Red. masses --      2.4003                 2.4291                 1.2801
 Frc consts  --      0.4865                 0.6420                 0.4627
 IR Inten    --      0.8053                 0.6489                 2.3235

                     19                     20                     21
                      A                      A                      A
 Frequencies --    810.9668               883.9321               930.1182
 Red. masses --      2.6031                 1.9873                 1.7713
 Frc consts  --      1.0087                 0.9148                 0.9029
 IR Inten    --      1.0108                 0.7043                 0.4391

                     22                     23                     24
                      A                      A                      A
 Frequencies --    934.7802               956.7848               975.2619
 Red. masses --      1.7812                 1.2070                 1.8897
 Frc consts  --      0.9170                 0.6510                 1.0590
 IR Inten    --      0.0987                 0.0419                 1.2214

                     25                     26                     27
                      A                      A                      A
 Frequencies --    991.9390              1009.6958              1032.1095
 Red. masses --      1.3419                 1.6292                 1.3434
 Frc consts  --      0.7780                 0.9786                 0.8432
 IR Inten    --      1.5712                 1.3199                 1.4715

                     28                     29                     30
                      A                      A                      A
 Frequencies --   1045.9605              1110.1967              1138.9884
 Red. masses --      1.4122                 1.6232                 2.0783
 Frc consts  --      0.9103                 1.1788                 1.5885
 IR Inten    --      1.9728                 1.3719                 1.5635

                     31                     32                     33
                      A                      A                      A
 Frequencies --   1161.2908              1225.5025              1242.2589
 Red. masses --      1.8409                 2.2990                 2.5682
 Frc consts  --      1.4627                 2.0343                 2.3351
 IR Inten    --      6.3868                 7.5132                 3.1238

                     34                     35                     36
                      A                      A                      A
 Frequencies --   1262.4102              1316.5800              1341.4110
 Red. masses --      2.3212                 1.3011                 1.4117
 Frc consts  --      2.1796                 1.3287                 1.4967
 IR Inten    --      4.5366                 0.6520                 0.5396

                     37                     38                     39
                      A                      A                      A
 Frequencies --   1371.9338              1380.5688              1398.4229
 Red. masses --      1.3440                 1.2824                 1.2350
 Frc consts  --      1.4905                 1.4401                 1.4229
 IR Inten    --      1.0247                 3.0857                 3.1832

                     40                     41                     42
                      A                      A                      A
 Frequencies --   1399.0274              1410.6870              1416.0044
 Red. masses --      1.2456                 1.2663                 1.2296
 Frc consts  --      1.4364                 1.4847                 1.4525
 IR Inten    --      3.7927                 6.3648                 8.9763

                     43                     44                     45
                      A                      A                      A
 Frequencies --   1434.1634              1478.5264              1484.8716
 Red. masses --      1.2228                 1.0577                 1.0488
 Frc consts  --      1.4818                 1.3623                 1.3625
 IR Inten    --      5.7179                 0.2574                 0.6849

                     46                     47                     48
                      A                      A                      A
 Frequencies --   1485.0827              1486.2081              1495.3599
 Red. masses --      1.0497                 1.0469                 1.0504
 Frc consts  --      1.3640                 1.3624                 1.3839
 IR Inten    --      0.2402                 1.0748                 1.3206

                     49                     50                     51
                      A                      A                      A
 Frequencies --   1501.5369              1509.7066              1510.7835
 Red. masses --      1.0551                 1.0463                 1.0549
 Frc consts  --      1.4015                 1.4050                 1.4186
 IR Inten    --      5.8472                 7.3280                 3.1981

                     52                     53                     54
                      A                      A                      A
 Frequencies --   1514.9798              1515.9537              1523.8781
 Red. masses --      1.0489                 1.0600                 1.0589
 Frc consts  --      1.4184                 1.4353                 1.4488
 IR Inten    --      6.9390                 1.1682                 5.5077

                     55                     56                     57
                      A                      A                      A
 Frequencies --   2984.4547              3021.9036              3023.9040
 Red. masses --      1.0819                 1.0613                 1.0405
 Frc consts  --      5.6776                 5.7104                 5.6058
 IR Inten    --     19.3676                22.0843                28.2408

                     58                     59                     60
                      A                      A                      A
 Frequencies --   3026.8534              3033.1015              3037.2491
 Red. masses --      1.0385                 1.0378                 1.0384
 Frc consts  --      5.6060                 5.6253                 5.6440
 IR Inten    --     44.1095                21.8292                 7.6541

                     61                     62                     63
                      A                      A                      A
 Frequencies --   3044.5794              3066.2015              3085.7186
 Red. masses --      1.0385                 1.0930                 1.1014
 Frc consts  --      5.6716                 6.0542                 6.1789
 IR Inten    --     27.8355                17.3931                 0.2667

                     64                     65                     66
                      A                      A                      A
 Frequencies --   3088.2963              3093.8829              3094.5467
 Red. masses --      1.1005                 1.0998                 1.0997
 Frc consts  --      6.1839                 6.2027                 6.2046
 IR Inten    --     11.8059                44.6142                66.5314

                     67                     68                     69
                      A                      A                      A
 Frequencies --   3100.8072              3104.8443              3106.8168
 Red. masses --      1.1001                 1.0991                 1.0987
 Frc consts  --      6.2322                 6.2425                 6.2484
 IR Inten    --      9.6200                37.4893                52.0858

                     70                     71                     72
                      A                      A                      A
 Frequencies --   3110.3767              3119.7605              3127.0282
 Red. masses --      1.1005                 1.0988                 1.0990
 Frc consts  --      6.2727                 6.3008                 6.3316
 IR Inten    --     51.5727                26.1791                29.8207

 - Thermochemistry -
 -------------------
 Temperature   298.150 Kelvin.  Pressure   1.00000 Atm.
 Atom     1 has atomic number  6 and mass  12.00000

 Molecular mass:   114.14085 amu.
 Principal axes and moments of inertia in atomic units:
                           1         2         3
     Eigenvalues --   705.980581233.447001405.39439
           X            0.99997  -0.00129   0.00697
           Y            0.00124   0.99997   0.00781
           Z           -0.00698  -0.00780   0.99995
 This molecule is an asymmetric top.
 Rotational symmetry number  1.
 Warning -- assumption of classical behavior for rotation
           may cause significant error
 Rotational temperatures (Kelvin)      0.12269     0.07022     0.06163
 Rotational constants (GHZ):           2.55636     1.46317     1.28415
 Zero-point vibrational energy     641502.2 (Joules/Mol)
                                  153.32271 (Kcal/Mol)
 Warning -- explicit consideration of  16 degrees of freedom as
           vibrations may cause significant error
 Vibrational temperatures:     56.34   158.98   289.91   315.07   350.41
          (Kelvin)            369.94   391.31   406.98   436.23   442.39
                              497.68   538.43   571.02   638.10   656.37
                              843.90   963.65  1126.90  1166.80  1271.78
                             1338.23  1344.94  1376.60  1403.18  1427.18
                             1452.73  1484.98  1504.90  1597.33  1638.75
                             1670.84  1763.22  1787.33  1816.33  1894.26
                             1929.99  1973.91  1986.33  2012.02  2012.89
                             2029.66  2037.31  2063.44  2127.27  2136.40
                             2136.70  2138.32  2151.49  2160.38  2172.13
                             2173.68  2179.72  2181.12  2192.52  4293.96
                             4347.85  4350.72  4354.97  4363.96  4369.92
                             4380.47  4411.58  4439.66  4443.37  4451.41
                             4452.36  4461.37  4467.18  4470.02  4475.14
                             4488.64  4499.10

 Zero-point correction=                           0.244335 (Hartree/Particle)
 Thermal correction to Energy=                    0.255128
 Thermal correction to Enthalpy=                  0.256072
 Thermal correction to Gibbs Free Energy=         0.209384
 Sum of electronic and zero-point Energies=           -315.484079
 Sum of electronic and thermal Energies=              -315.473286
 Sum of electronic and thermal Enthalpies=            -315.472342
 Sum of electronic and thermal Free Energies=         -315.519030

                     E (Thermal)             CV                S
                      KCal/Mol        Cal/Mol-Kelvin    Cal/Mol-Kelvin
 Total                  160.095             41.198             98.263
 Electronic               0.000              0.000              0.000
 Translational            0.889              2.981             40.112
 Rotational               0.889              2.981             28.594
 Vibrational            158.318             35.236             29.557
 Vibration     1          0.594              1.981              5.301
 Vibration     2          0.606              1.941              3.260
 Vibration     3          0.638              1.838              2.119
 Vibration     4          0.647              1.812              1.967
 Vibration     5          0.659              1.773              1.777
 Vibration     6          0.667              1.751              1.681
 Vibration     7          0.675              1.725              1.584
 Vibration     8          0.682              1.705              1.516
 Vibration     9          0.695              1.668              1.399
 Vibration    10          0.697              1.659              1.376
 Vibration    11          0.724              1.584              1.185
 Vibration    12          0.745              1.525              1.062
 Vibration    13          0.763              1.477              0.974
 Vibration    14          0.803              1.375              0.816
 Vibration    15          0.814              1.347              0.777
 Vibration    16          0.944              1.060              0.473

                           ! Non-Optimized Parameters !
 Normal termination of Gaussian 16 at Mon May 29 07:34:30 2023.
