 Gaussian 16, Revision A.03,
 Gaussian 16:  ES64L-G16RevA.03 25-Dec-2016

 -----------------------------
 # opt freq b3lyp/6-31g(2df,p)
 -----------------------------

 -------------------
 Title Card Required
 -------------------
 Symbolic Z-matrix:
 Charge =  0 Multiplicity = 1

 SCF Done:  E(RB3LYP) =  -534.843239260     A.U. after   12 cycles
 SCF Done:  E(RB3LYP) =  -534.843552328     A.U. after   10 cycles
 SCF Done:  E(RB3LYP) =  -534.844603823     A.U. after   10 cycles
 SCF Done:  E(RB3LYP) =  -534.844889004     A.U. after    9 cycles
 SCF Done:  E(RB3LYP) =  -534.844901801     A.U. after    8 cycles
 SCF Done:  E(RB3LYP) =  -534.844903222     A.U. after    6 cycles
 Optimization completed.
    -- Stationary point found.
 Normal termination of Gaussian 16 at Sat May 27 23:20:04 2023.

 ----------------------------------------------------------------------
 #N Geom=AllCheck Guess=TCheck SCRF=Check GenChk RB3LYP/6-31G(2df,p) Fr
 eq
 ----------------------------------------------------------------------

 Structure from the checkpoint file:  "CCqCrqCrCCqFrqFrF.chk"
 -------------------
 Title Card Required
 -------------------
 Charge =  0 Multiplicity = 1

                         Standard orientation:
 ---------------------------------------------------------------------
 Center     Atomic      Atomic             Coordinates (Angstroms)
 Number     Number       Type             X           Y           Z
 ---------------------------------------------------------------------
      1          6           0       -2.436475   -0.000020    1.094131
      2          6           0       -1.300081    0.000000    0.051530
      3          6           0       -1.433973   -1.260017   -0.825025
      4          6           0       -1.433988    1.260039   -0.824991
      5          6           0        0.026181   -0.000005    0.854949
      6          6           0        1.343566   -0.000000    0.101401
      7          9           0        1.501906   -1.080959   -0.682451
      8          9           0        1.501913    1.080975   -0.682428
      9          9           0        2.368299   -0.000012    0.974220
     10          1           0       -3.411624   -0.000019    0.596686
     11          1           0       -2.389400    0.885782    1.737090
     12          1           0       -2.389389   -0.885838    1.737067
     13          1           0       -2.425828   -1.288094   -1.288222
     14          1           0       -1.318786   -2.172597   -0.229946
     15          1           0       -0.689103   -1.285982   -1.622473
     16          1           0       -2.425844    1.288120   -1.288183
     17          1           0       -0.689122    1.286032   -1.622442
     18          1           0       -1.318805    2.172605   -0.229889
     19          1           0        0.058737   -0.879541    1.507134
     20          1           0        0.058737    0.879521    1.507147
 ---------------------------------------------------------------------

 SCF Done:  E(RB3LYP) =  -534.844903222     A.U. after    1 cycles

 The electronic state is 1-A.
 Alpha  occ. eigenvalues --  -24.71418 -24.71417 -24.71051 -10.41272 -10.21003
 Alpha  occ. eigenvalues --  -10.20319 -10.17999 -10.17467 -10.17467  -1.29988
 Alpha  occ. eigenvalues --   -1.21154  -1.20913  -0.83718  -0.75454  -0.69037
 Alpha  occ. eigenvalues --   -0.68810  -0.65887  -0.58110  -0.58039  -0.56456
 Alpha  occ. eigenvalues --   -0.51519  -0.46340  -0.46162  -0.45395  -0.45315
 Alpha  occ. eigenvalues --   -0.43297  -0.42652  -0.40892  -0.39693  -0.39520
 Alpha  occ. eigenvalues --   -0.39138  -0.37464  -0.36815  -0.36553  -0.33391
 Alpha  occ. eigenvalues --   -0.32985  -0.32369
 Alpha virt. eigenvalues --    0.06650   0.11269   0.12040   0.13517   0.15009
 Alpha virt. eigenvalues --    0.15509   0.15818   0.16134   0.16270   0.18312
 Alpha virt. eigenvalues --    0.18993   0.20757   0.21253   0.21830   0.22041

 Mulliken charges:
               1
     1  C   -0.403887
     2  C    0.245199
     3  C   -0.405868
     4  C   -0.405868
     5  C   -0.348624
     6  C    0.274642
     7  F   -0.078304
     8  F   -0.078304
     9  F   -0.077811
    10  H    0.114906
    11  H    0.111342
    12  H    0.111342
    13  H    0.109410
    14  H    0.109532
    15  H    0.126537
    16  H    0.109411
    17  H    0.126536
    18  H    0.109532
    19  H    0.125139
    20  H    0.125139
 Sum of Mulliken charges =  -0.00000

 Dipole moment (field-independent basis, Debye):
    X=             -1.8889    Y=             -0.0000    Z=              0.7436  Tot=              2.0300
 Quadrupole moment (field-independent basis, Debye-Ang):
   XX=            -56.3265   YY=            -53.9814   ZZ=            -53.2112
   XY=             -0.0000   XZ=              0.0524   YZ=             -0.0000

  Exact polarizability:  72.325  -0.000  65.798   0.680   0.000  65.322
 Approx polarizability:  94.141  -0.000  95.052   2.084   0.000  94.013

                      1                      2                      3
                      A                      A                      A
 Frequencies --     29.8929               118.7389               181.8502
 Red. masses --      4.8159                 2.7644                 5.4930
 Frc consts  --      0.0025                 0.0230                 0.1070
 IR Inten    --      0.0425                 0.3981                 1.4722

                      4                      5                      6
                      A                      A                      A
 Frequencies --    231.5424               265.9514               270.2861
 Red. masses --      1.0928                 1.2572                 1.5940
 Frc consts  --      0.0345                 0.0524                 0.0686
 IR Inten    --      0.1443                 0.1617                 0.0123

                      7                      8                      9
                      A                      A                      A
 Frequencies --    288.5715               297.4742               319.8450
 Red. masses --      2.6288                 1.7992                 3.1040
 Frc consts  --      0.1290                 0.0938                 0.1871
 IR Inten    --      0.0314                 0.1871                 2.4102

                     10                     11                     12
                      A                      A                      A
 Frequencies --    379.4451               389.6475               418.0591
 Red. masses --      2.4297                 2.4425                 1.8234
 Frc consts  --      0.2061                 0.2185                 0.1878
 IR Inten    --      0.0605                 0.2818                 0.0236

                     13                     14                     15
                      A                      A                      A
 Frequencies --    477.4560               540.9968               546.4480
 Red. masses --      3.1783                 8.3026                 6.2944
 Frc consts  --      0.4269                 1.4317                 1.1074
 IR Inten    --      1.9089                 0.5832                 2.7189

                     16                     17                     18
                      A                      A                      A
 Frequencies --    675.9661               761.0986               842.6687
 Red. masses --      7.1960                 3.6710                 5.3758
 Frc consts  --      1.9373                 1.2529                 2.2491
 IR Inten    --     13.6039                 1.1058                 3.8689

                     19                     20                     21
                      A                      A                      A
 Frequencies --    895.4544               929.6181               941.9093
 Red. masses --      2.0945                 1.9881                 1.5833
 Frc consts  --      0.9895                 1.0123                 0.8276
 IR Inten    --      3.4041                 4.7488                 2.0951

                     22                     23                     24
                      A                      A                      A
 Frequencies --    952.6338               964.8581              1042.1251
 Red. masses --      1.8446                 1.2026                 1.6606
 Frc consts  --      0.9863                 0.6596                 1.0626
 IR Inten    --      3.5420                 0.0032                34.2882

                     25                     26                     27
                      A                      A                      A
 Frequencies --   1047.2211              1118.3168              1150.8085
 Red. masses --      1.4756                 1.6807                 3.9313
 Frc consts  --      0.9534                 1.2384                 3.0675
 IR Inten    --     10.5865                55.4452               182.2228

                     28                     29                     30
                      A                      A                      A
 Frequencies --   1244.2352              1258.6652              1265.3081
 Red. masses --      2.9750                 3.5463                 3.0768
 Frc consts  --      2.7136                 3.3101                 2.9023
 IR Inten    --     39.0330                94.7830                77.7359

                     31                     32                     33
                      A                      A                      A
 Frequencies --   1283.6658              1334.7554              1389.0734
 Red. masses --      4.0751                 1.5248                 1.7870
 Frc consts  --      3.9563                 1.6006                 2.0315
 IR Inten    --     94.4054                27.9458                63.4802

                     34                     35                     36
                      A                      A                      A
 Frequencies --   1402.0425              1407.0800              1439.7695
 Red. masses --      1.2214                 1.2301                 1.2458
 Frc consts  --      1.4146                 1.4349                 1.5216
 IR Inten    --      3.2323                 2.6782                 0.0436

                     37                     38                     39
                      A                      A                      A
 Frequencies --   1467.3424              1481.2413              1486.4344
 Red. masses --      1.1064                 1.0475                 1.0471
 Frc consts  --      1.4036                 1.3541                 1.3631
 IR Inten    --      5.7812                 0.1257                 1.5433

                     40                     41                     42
                      A                      A                      A
 Frequencies --   1487.9005              1509.1774              1509.2556
 Red. masses --      1.0447                 1.0625                 1.0581
 Frc consts  --      1.3627                 1.4257                 1.4201
 IR Inten    --      0.0736                 7.3097                 3.7083

                     43                     44                     45
                      A                      A                      A
 Frequencies --   1519.5787              3024.5702              3032.5608
 Red. masses --      1.0628                 1.0350                 1.0374
 Frc consts  --      1.4459                 5.5785                 5.6213
 IR Inten    --     11.5948                20.4084                32.0526

                     46                     47                     48
                      A                      A                      A
 Frequencies --   3037.3224              3048.5886              3090.2805
 Red. masses --      1.0404                 1.0579                 1.1028
 Frc consts  --      5.6548                 5.7926                 6.2049
 IR Inten    --     15.1476                 7.2826                 0.9733

                     49                     50                     51
                      A                      A                      A
 Frequencies --   3092.4980              3095.1738              3097.6504
 Red. masses --      1.1018                 1.1015                 1.1014
 Frc consts  --      6.2083                 6.2171                 6.2266
 IR Inten    --      1.2867                 7.2891                51.7432

                     52                     53                     54
                      A                      A                      A
 Frequencies --   3102.9107              3129.3845              3133.2944
 Red. masses --      1.1005                 1.0989                 1.0981
 Frc consts  --      6.2428                 6.3408                 6.3517
 IR Inten    --     64.2136                 1.8566                32.0572

 - Thermochemistry -
 -------------------
 Temperature   298.150 Kelvin.  Pressure   1.00000 Atm.
 Atom     1 has atomic number  6 and mass  12.00000

 Molecular mass:   140.08129 amu.
 Principal axes and moments of inertia in atomic units:
                           1         2         3
     Eigenvalues --   703.320701735.509161759.51440
           X            0.99999  -0.00000  -0.00508
           Y            0.00000   1.00000  -0.00000
           Z            0.00508   0.00000   0.99999
 This molecule is an asymmetric top.
 Rotational symmetry number  1.
 Warning -- assumption of classical behavior for rotation
           may cause significant error
 Rotational temperatures (Kelvin)      0.12315     0.04991     0.04923
 Rotational constants (GHZ):           2.56603     1.03989     1.02570
 Zero-point vibrational energy     433339.1 (Joules/Mol)
                                  103.57054 (Kcal/Mol)
 Warning -- explicit consideration of  15 degrees of freedom as
           vibrations may cause significant error
 Vibrational temperatures:     43.01   170.84   261.64   333.14   382.64
          (Kelvin)            388.88   415.19   428.00   460.19   545.94
                              560.62   601.49   686.95   778.37   786.22
                              972.56  1095.05  1212.41  1288.36  1337.51
                             1355.20  1370.63  1388.22  1499.39  1506.72
                             1609.01  1655.76  1790.18  1810.94  1820.50
                             1846.91  1920.42  1998.57  2017.23  2024.47
                             2071.51  2111.18  2131.18  2138.65  2140.76
                             2171.37  2171.48  2186.33  4351.68  4363.18
                             4370.03  4386.24  4446.22  4449.41  4453.26
                             4456.83  4464.40  4502.49  4508.11

 Zero-point correction=                           0.165050 (Hartree/Particle)
 Thermal correction to Energy=                    0.175057
 Thermal correction to Enthalpy=                  0.176001
 Thermal correction to Gibbs Free Energy=         0.129841
 Sum of electronic and zero-point Energies=           -534.679853
 Sum of electronic and thermal Energies=              -534.669846
 Sum of electronic and thermal Enthalpies=            -534.668902
 Sum of electronic and thermal Free Energies=         -534.715062

                     E (Thermal)             CV                S
                      KCal/Mol        Cal/Mol-Kelvin    Cal/Mol-Kelvin
 Total                  109.850             37.405             97.151
 Electronic               0.000              0.000              0.000
 Translational            0.889              2.981             40.723
 Rotational               0.889              2.981             29.153
 Vibrational            108.072             31.444             27.275
 Vibration     1          0.594              1.984              5.837
 Vibration     2          0.609              1.934              3.121
 Vibration     3          0.630              1.864              2.309
 Vibration     4          0.653              1.793              1.867
 Vibration     5          0.672              1.736              1.622
 Vibration     6          0.674              1.728              1.594
 Vibration     7          0.685              1.695              1.482
 Vibration     8          0.691              1.678              1.431
 Vibration     9          0.706              1.636              1.311
 Vibration    10          0.749              1.514              1.041
 Vibration    11          0.758              1.492              1.001
 Vibration    12          0.781              1.431              0.899
 Vibration    13          0.834              1.300              0.717
 Vibration    14          0.896              1.159              0.563
 Vibration    15          0.902              1.147              0.552

 Optimization completed.
    -- Stationary point found.
 Normal termination of Gaussian 16 at Sat May 27 23:49:49 2023.
