 Gaussian 16, Revision A.03,
 Gaussian 16:  ES64L-G16RevA.03 25-Dec-2016

 -----------------------------
 # opt freq b3lyp/6-31g(2df,p)
 -----------------------------

 -------------------
 Title Card Required
 -------------------
 Symbolic Z-matrix:
 Charge =  0 Multiplicity = 1

 SCF Done:  E(RB3LYP) =  -275.174004791     A.U. after   12 cycles
 SCF Done:  E(RB3LYP) =  -275.177702985     A.U. after    9 cycles
 SCF Done:  E(RB3LYP) =  -275.177992622     A.U. after    8 cycles
 SCF Done:  E(RB3LYP) =  -275.178036873     A.U. after    8 cycles
 SCF Done:  E(RB3LYP) =  -275.178051257     A.U. after    8 cycles
 SCF Done:  E(RB3LYP) =  -275.178053176     A.U. after    7 cycles
 SCF Done:  E(RB3LYP) =  -275.178053495     A.U. after    6 cycles
 SCF Done:  E(RB3LYP) =  -275.178053544     A.U. after    5 cycles
 Optimization completed.
    -- Stationary point found.
 Normal termination of Gaussian 16 at Sun May 28 23:19:37 2023.

 ----------------------------------------------------------------------
 #N Geom=AllCheck Guess=TCheck SCRF=Check GenChk RB3LYP/6-31G(2df,p) Fr
 eq
 ----------------------------------------------------------------------

 Structure from the checkpoint file:  "CCqCrC1CCC1.chk"
 -------------------
 Title Card Required
 -------------------
 Charge =  0 Multiplicity = 1

                         Standard orientation:
 ---------------------------------------------------------------------
 Center     Atomic      Atomic             Coordinates (Angstroms)
 Number     Number       Type             X           Y           Z
 ---------------------------------------------------------------------
      1          6           0       -2.110529   -1.021589   -0.172439
      2          6           0       -1.181499    0.177609   -0.417478
      3          6           0       -1.452559    1.285926    0.609737
      4          6           0        0.280902   -0.284103   -0.474966
      5          6           0        1.442744    0.722347   -0.716375
      6          6           0        2.328857   -0.144422    0.218134
      7          6           0        1.033910   -0.773078    0.799505
      8          1           0       -3.162923   -0.719193   -0.186164
      9          1           0       -1.910572   -1.478201    0.804105
     10          1           0       -1.973546   -1.795763   -0.935030
     11          1           0       -1.419396    0.586609   -1.411082
     12          1           0       -1.277045    0.938108    1.633783
     13          1           0       -2.496502    1.611514    0.552393
     14          1           0       -0.825218    2.166611    0.442798
     15          1           0        0.351242   -1.073014   -1.234866
     16          1           0        1.236952    1.700467   -0.271587
     17          1           0        1.775007    0.875433   -1.746648
     18          1           0        2.997062    0.373996    0.909941
     19          1           0        2.914670   -0.876429   -0.345530
     20          1           0        0.704849   -0.241476    1.697488
     21          1           0        1.034473   -1.844798    1.013691
 ---------------------------------------------------------------------

 SCF Done:  E(RB3LYP) =  -275.178053544     A.U. after    1 cycles

 The electronic state is 1-A.
 Alpha  occ. eigenvalues --  -10.18052 -10.17727 -10.17424 -10.17189 -10.17155
 Alpha  occ. eigenvalues --  -10.16721 -10.16715  -0.83915  -0.77587  -0.67719
 Alpha  occ. eigenvalues --   -0.65172  -0.64651  -0.57273  -0.52582  -0.47282
 Alpha  occ. eigenvalues --   -0.46356  -0.44043  -0.40763  -0.39161  -0.38360
 Alpha  occ. eigenvalues --   -0.37108  -0.34879  -0.34788  -0.33244  -0.32092
 Alpha  occ. eigenvalues --   -0.30130  -0.28872  -0.28268
 Alpha virt. eigenvalues --    0.08258   0.09964   0.10892   0.12033   0.14431
 Alpha virt. eigenvalues --    0.15299   0.16232   0.16690   0.17029   0.18266
 Alpha virt. eigenvalues --    0.18748   0.20156   0.20430   0.21786   0.22860

 Mulliken charges:
               1
     1  C   -0.385786
     2  C    0.009991
     3  C   -0.392748
     4  C    0.080463
     5  C   -0.246722
     6  C   -0.206547
     7  C   -0.227084
     8  H    0.107007
     9  H    0.114665
    10  H    0.107364
    11  H    0.068733
    12  H    0.113820
    13  H    0.109305
    14  H    0.112197
    15  H    0.064030
    16  H    0.098940
    17  H    0.090290
    18  H    0.092604
    19  H    0.099304
    20  H    0.098950
    21  H    0.091225
 Sum of Mulliken charges =  -0.00000

 Dipole moment (field-independent basis, Debye):
    X=             -0.0682    Y=             -0.0082    Z=             -0.1049  Tot=              0.1254
 Quadrupole moment (field-independent basis, Debye-Ang):
   XX=            -46.9886   YY=            -46.4295   ZZ=            -46.1300
   XY=             -0.3590   XZ=              0.0059   YZ=              0.3941

  Exact polarizability:  83.231   0.225  71.504  -0.036  -0.074  67.949
 Approx polarizability: 104.063  -0.275 101.996   0.047   0.045 101.840

                      1                      2                      3
                      A                      A                      A
 Frequencies --     62.8362               132.7249               201.0454
 Red. masses --      2.2278                 2.0255                 1.7314
 Frc consts  --      0.0052                 0.0210                 0.0412
 IR Inten    --      0.0034                 0.0007                 0.0179

                      4                      5                      6
                      A                      A                      A
 Frequencies --    233.0140               249.7337               289.1255
 Red. masses --      1.1871                 1.1812                 2.2506
 Frc consts  --      0.0380                 0.0434                 0.1108
 IR Inten    --      0.0092                 0.0358                 0.0444

                      7                      8                      9
                      A                      A                      A
 Frequencies --    350.1946               437.6857               529.1571
 Red. masses --      2.3077                 2.5274                 1.9955
 Frc consts  --      0.1667                 0.2853                 0.3292
 IR Inten    --      0.0416                 0.0437                 1.6745

                     10                     11                     12
                      A                      A                      A
 Frequencies --    597.0291               732.5532               786.3899
 Red. masses --      2.2291                 1.5412                 1.2038
 Frc consts  --      0.4681                 0.4873                 0.4386
 IR Inten    --      1.6104                 0.4088                 0.4587

                     13                     14                     15
                      A                      A                      A
 Frequencies --    859.1997               898.0301               923.9686
 Red. masses --      2.3308                 2.0884                 1.1850
 Frc consts  --      1.0138                 0.9923                 0.5961
 IR Inten    --      0.5326                 0.8038                 0.8651

                     16                     17                     18
                      A                      A                      A
 Frequencies --    934.6302               945.8322               963.7616
 Red. masses --      2.3733                 1.8366                 1.9589
 Frc consts  --      1.2215                 0.9681                 1.0720
 IR Inten    --      1.0971                 0.7515                 0.4668

                     19                     20                     21
                      A                      A                      A
 Frequencies --    966.7149               997.9607              1048.6230
 Red. masses --      1.6990                 1.2071                 1.6631
 Frc consts  --      0.9355                 0.7083                 1.0775
 IR Inten    --      0.3451                 0.5682                 0.8299

                     22                     23                     24
                      A                      A                      A
 Frequencies --   1072.2503              1156.0132              1165.6476
 Red. masses --      2.4177                 1.7791                 2.2573
 Frc consts  --      1.6377                 1.4008                 1.8070
 IR Inten    --      3.5961                 0.2211                 2.5209

                     25                     26                     27
                      A                      A                      A
 Frequencies --   1204.0604              1210.6251              1243.7834
 Red. masses --      1.5272                 1.7066                 1.3335
 Frc consts  --      1.3045                 1.4737                 1.2154
 IR Inten    --      0.3802                 0.6877                 0.7833

                     28                     29                     30
                      A                      A                      A
 Frequencies --   1255.8091              1264.5136              1277.4438
 Red. masses --      1.2212                 1.2696                 1.4532
 Frc consts  --      1.1347                 1.1961                 1.3972
 IR Inten    --      0.2391                 0.3797                 0.6591

                     31                     32                     33
                      A                      A                      A
 Frequencies --   1294.6152              1338.7695              1357.4442
 Red. masses --      1.3468                 1.3537                 1.6364
 Frc consts  --      1.3300                 1.4295                 1.7766
 IR Inten    --      0.7277                 4.1041                 1.9873

                     34                     35                     36
                      A                      A                      A
 Frequencies --   1387.8160              1400.7433              1422.7277
 Red. masses --      1.2995                 1.2954                 1.2516
 Frc consts  --      1.4747                 1.4975                 1.4927
 IR Inten    --      3.4893                 6.1742                 6.5955

                     37                     38                     39
                      A                      A                      A
 Frequencies --   1477.0906              1484.9156              1488.9394
 Red. masses --      1.0864                 1.0686                 1.0595
 Frc consts  --      1.3966                 1.3882                 1.3838
 IR Inten    --      0.0148                 0.7429                 2.0341

                     40                     41                     42
                      A                      A                      A
 Frequencies --   1495.6109              1506.7920              1508.4580
 Red. masses --      1.0547                 1.0475                 1.0980
 Frc consts  --      1.3899                 1.4012                 1.4720
 IR Inten    --      1.0008                 5.7767                 4.9722

                     43                     44                     45
                      A                      A                      A
 Frequencies --   1514.0464              2986.7041              3016.4314
 Red. masses --      1.0979                 1.0822                 1.0821
 Frc consts  --      1.4828                 5.6877                 5.8013
 IR Inten    --      1.8020                23.3084                26.1217

                     46                     47                     48
                      A                      A                      A
 Frequencies --   3023.7164              3032.6686              3050.5775
 Red. masses --      1.0360                 1.0372                 1.0569
 Frc consts  --      5.5809                 5.6202                 5.7948
 IR Inten    --     31.9003                 9.9725                58.2528

                     49                     50                     51
                      A                      A                      A
 Frequencies --   3051.9878              3058.8146              3088.6596
 Red. masses --      1.0566                 1.0618                 1.1010
 Frc consts  --      5.7985                 5.8535                 6.1887
 IR Inten    --     37.8984                15.4925                 9.8060

                     52                     53                     54
                      A                      A                      A
 Frequencies --   3092.2466              3095.0164              3096.9542
 Red. masses --      1.1047                 1.1025                 1.1011
 Frc consts  --      6.2238                 6.2224                 6.2223
 IR Inten    --     26.8780                28.4158                65.1065

                     55                     56                     57
                      A                      A                      A
 Frequencies --   3099.9626              3106.2795              3116.3992
 Red. masses --      1.1054                 1.1020                 1.1070
 Frc consts  --      6.2586                 6.2648                 6.3343
 IR Inten    --     32.7306                11.4291                81.0329

 - Thermochemistry -
 -------------------
 Temperature   298.150 Kelvin.  Pressure   1.00000 Atm.
 Atom     1 has atomic number  6 and mass  12.00000

 Molecular mass:    98.10955 amu.
 Principal axes and moments of inertia in atomic units:
                           1         2         3
     Eigenvalues --   398.373851042.802661153.13410
           X            0.99999   0.00324  -0.00393
           Y           -0.00312   0.99960   0.02814
           Z            0.00402  -0.02813   0.99960
 This molecule is an asymmetric top.
 Rotational symmetry number  1.
 Rotational temperatures (Kelvin)      0.21742     0.08306     0.07511
 Rotational constants (GHZ):           4.53027     1.73066     1.56507
 Zero-point vibrational energy     511910.5 (Joules/Mol)
                                  122.34953 (Kcal/Mol)
 Warning -- explicit consideration of  10 degrees of freedom as
           vibrations may cause significant error
 Vibrational temperatures:     90.41   190.96   289.26   335.26   359.31
          (Kelvin)            415.99   503.85   629.73   761.34   858.99
                             1053.98  1131.44  1236.20  1292.07  1329.38
                             1344.72  1360.84  1386.64  1390.89  1435.84
                             1508.73  1542.73  1663.25  1677.11  1732.37
                             1741.82  1789.53  1806.83  1819.35  1837.96
                             1862.66  1926.19  1953.06  1996.76  2015.36
                             2046.99  2125.20  2136.46  2142.25  2151.85
                             2167.94  2170.33  2178.38  4297.20  4339.97
                             4350.45  4363.33  4389.10  4391.13  4400.95
                             4443.89  4449.05  4453.04  4455.83  4460.15
                             4469.24  4483.80

 Zero-point correction=                           0.194976 (Hartree/Particle)
 Thermal correction to Energy=                    0.203115
 Thermal correction to Enthalpy=                  0.204059
 Thermal correction to Gibbs Free Energy=         0.162742
 Sum of electronic and zero-point Energies=           -274.983077
 Sum of electronic and thermal Energies=              -274.974938
 Sum of electronic and thermal Enthalpies=            -274.973994
 Sum of electronic and thermal Free Energies=         -275.015312

                     E (Thermal)             CV                S
                      KCal/Mol        Cal/Mol-Kelvin    Cal/Mol-Kelvin
 Total                  127.457             30.626             86.960
 Electronic               0.000              0.000              0.000
 Translational            0.889              2.981             39.661
 Rotational               0.889              2.981             27.662
 Vibrational            125.679             24.665             19.636
 Vibration     1          0.597              1.972              4.366
 Vibration     2          0.613              1.921              2.906
 Vibration     3          0.638              1.838              2.124
 Vibration     4          0.654              1.790              1.856
 Vibration     5          0.663              1.763              1.732
 Vibration     6          0.686              1.694              1.479
 Vibration     7          0.727              1.575              1.165
 Vibration     8          0.798              1.388              0.834
 Vibration     9          0.884              1.185              0.589
 Vibration    10          0.955              1.038              0.455

                           ! Non-Optimized Parameters !
 Normal termination of Gaussian 16 at Sun May 28 23:42:24 2023.
