 Gaussian 16, Revision A.03,
 Gaussian 16:  ES64L-G16RevA.03 25-Dec-2016

 -----------------------------
 # opt freq b3lyp/6-31g(2df,p)
 -----------------------------

 -------------------
 Title Card Required
 -------------------
 Symbolic Z-matrix:
 Charge =  0 Multiplicity = 1

 SCF Done:  E(RB3LYP) =  -355.053089849     A.U. after   12 cycles
 SCF Done:  E(RB3LYP) =  -355.054233157     A.U. after    9 cycles
 SCF Done:  E(RB3LYP) =  -355.054534670     A.U. after    8 cycles
 SCF Done:  E(RB3LYP) =  -355.054573967     A.U. after    8 cycles
 SCF Done:  E(RB3LYP) =  -355.054579793     A.U. after    8 cycles
 SCF Done:  E(RB3LYP) =  -355.054580978     A.U. after    6 cycles
 SCF Done:  E(RB3LYP) =  -355.054581226     A.U. after    6 cycles
 SCF Done:  E(RB3LYP) =  -355.054581270     A.U. after    5 cycles
 SCF Done:  E(RB3LYP) =  -355.054581283     A.U. after    5 cycles
 SCF Done:  E(RB3LYP) =  -355.054581288     A.U. after    5 cycles
 Optimization completed.
    -- Stationary point found.
 Normal termination of Gaussian 16 at Sun May 28 21:40:55 2023.

 ----------------------------------------------------------------------
 #N Geom=AllCheck Guess=TCheck SCRF=Check GenChk RB3LYP/6-31G(2df,p) Fr
 eq
 ----------------------------------------------------------------------

 Structure from the checkpoint file:  "CCqCrCCCqCrqCrC.chk"
 -------------------
 Title Card Required
 -------------------
 Charge =  0 Multiplicity = 1

                         Standard orientation:
 ---------------------------------------------------------------------
 Center     Atomic      Atomic             Coordinates (Angstroms)
 Number     Number       Type             X           Y           Z
 ---------------------------------------------------------------------
      1          6           0       -3.264607   -1.027022    0.056858
      2          6           0       -2.206897    0.002501   -0.364439
      3          6           0       -2.612527    1.407741    0.103050
      4          6           0       -0.814571   -0.416277    0.148934
      5          6           0        0.342834    0.436176   -0.388989
      6          6           0        1.779140   -0.004501   -0.003180
      7          6           0        1.963406   -0.000878    1.525891
      8          6           0        2.096714   -1.406336   -0.556631
      9          6           0        2.763609    1.005089   -0.623863
     10          1           0       -4.253580   -0.764423   -0.333575
     11          1           0       -3.344430   -1.081282    1.149480
     12          1           0       -3.014822   -2.029281   -0.307304
     13          1           0       -2.166806    0.011406   -1.463854
     14          1           0       -2.637954    1.460985    1.198559
     15          1           0       -3.611391    1.667908   -0.263046
     16          1           0       -1.921683    2.177633   -0.252034
     17          1           0       -0.654153   -1.465689   -0.126915
     18          1           0       -0.825759   -0.388090    1.246890
     19          1           0        0.212964    1.473939   -0.056773
     20          1           0        0.278213    0.460968   -1.486349
     21          1           0        1.326898   -0.744111    2.015630
     22          1           0        1.722499    0.980026    1.951338
     23          1           0        3.001068   -0.231850    1.791195
     24          1           0        1.464192   -2.178188   -0.107831
     25          1           0        3.138038   -1.676642   -0.349128
     26          1           0        1.954148   -1.444600   -1.642608
     27          1           0        2.582337    2.018060   -0.247346
     28          1           0        2.667212    1.032741   -1.715078
     29          1           0        3.800400    0.741524   -0.387038
 ---------------------------------------------------------------------

 SCF Done:  E(RB3LYP) =  -355.054581288     A.U. after    1 cycles

 The electronic state is 1-A.
 Alpha  occ. eigenvalues --  -10.18886 -10.18140 -10.17008 -10.16983 -10.16681
 Alpha  occ. eigenvalues --  -10.16679 -10.16576 -10.16573 -10.16543  -0.82157
 Alpha  occ. eigenvalues --   -0.79334  -0.71397  -0.67827  -0.67778  -0.67564
 Alpha  occ. eigenvalues --   -0.62260  -0.55215  -0.52341  -0.46403  -0.45021
 Alpha  occ. eigenvalues --   -0.44247  -0.43224  -0.41695  -0.41312  -0.39494
 Alpha  occ. eigenvalues --   -0.38151  -0.37556  -0.36847  -0.35767  -0.35179
 Alpha  occ. eigenvalues --   -0.34112  -0.33564  -0.32444  -0.31688  -0.30861
 Alpha  occ. eigenvalues --   -0.30129  -0.29374
 Alpha virt. eigenvalues --    0.07539   0.09348   0.11838   0.12126   0.13573
 Alpha virt. eigenvalues --    0.13977   0.14753   0.15270   0.15524   0.15775
 Alpha virt. eigenvalues --    0.16905   0.17556   0.18268   0.18523   0.19603

 Mulliken charges:
               1
     1  C   -0.389505
     2  C    0.048546
     3  C   -0.380257
     4  C   -0.189358
     5  C   -0.192398
     6  C    0.265002
     7  C   -0.398635
     8  C   -0.400059
     9  C   -0.401006
    10  H    0.106829
    11  H    0.109740
    12  H    0.107487
    13  H    0.068172
    14  H    0.108751
    15  H    0.107718
    16  H    0.113775
    17  H    0.089547
    18  H    0.090860
    19  H    0.089206
    20  H    0.083703
    21  H    0.111264
    22  H    0.105506
    23  H    0.105613
    24  H    0.111575
    25  H    0.106162
    26  H    0.105412
    27  H    0.105785
    28  H    0.105838
    29  H    0.104728
 Sum of Mulliken charges =  -0.00000

 Dipole moment (field-independent basis, Debye):
    X=             -0.0047    Y=             -0.0082    Z=             -0.0568  Tot=              0.0576
 Quadrupole moment (field-independent basis, Debye-Ang):
   XX=            -62.0620   YY=            -61.9356   ZZ=            -61.3140
   XY=             -0.2369   XZ=              0.3313   YZ=              0.1102

  Exact polarizability: 114.854   0.503  94.629  -0.286   0.186  89.981
 Approx polarizability: 139.383  -0.613 135.548   0.383   0.235 136.128

                      1                      2                      3
                      A                      A                      A
 Frequencies --     29.2982                75.6913               119.5541
 Red. masses --      2.4738                 2.5258                 1.9883
 Frc consts  --      0.0013                 0.0085                 0.0167
 IR Inten    --      0.0008                 0.0101                 0.0095

                      4                      5                      6
                      A                      A                      A
 Frequencies --    131.9572               219.6103               226.9970
 Red. masses --      2.3266                 1.0822                 1.0993
 Frc consts  --      0.0239                 0.0308                 0.0334
 IR Inten    --      0.0169                 0.0107                 0.0068

                      7                      8                      9
                      A                      A                      A
 Frequencies --    239.8430               248.9974               265.6225
 Red. masses --      2.2518                 1.1577                 1.1135
 Frc consts  --      0.0763                 0.0423                 0.0463
 IR Inten    --      0.0357                 0.0037                 0.0443

                     10                     11                     12
                      A                      A                      A
 Frequencies --    270.1251               293.3500               329.6051
 Red. masses --      1.0626                 2.1424                 2.0349
 Frc consts  --      0.0457                 0.1086                 0.1302
 IR Inten    --      0.0055                 0.0043                 0.0146

                     13                     14                     15
                      A                      A                      A
 Frequencies --    365.7102               396.4935               403.7244
 Red. masses --      2.2708                 2.1353                 2.0678
 Frc consts  --      0.1789                 0.1978                 0.1986
 IR Inten    --      0.0260                 0.0187                 0.0645

                     16                     17                     18
                      A                      A                      A
 Frequencies --    425.3364               475.2620               494.2156
 Red. masses --      2.0663                 2.3610                 2.4196
 Frc consts  --      0.2203                 0.3142                 0.3482
 IR Inten    --      0.1215                 0.4783                 0.3924

                     19                     20                     21
                      A                      A                      A
 Frequencies --    743.7949               766.1646               829.0623
 Red. masses --      2.9789                 1.3281                 2.5255
 Frc consts  --      0.9710                 0.4593                 1.0227
 IR Inten    --      0.2011                 1.3672                 0.3381

                     22                     23                     24
                      A                      A                      A
 Frequencies --    912.7146               924.2505               927.2146
 Red. masses --      2.1975                 1.6806                 1.2657
 Frc consts  --      1.0786                 0.8459                 0.6411
 IR Inten    --      0.7363                 0.8851                 1.9802

                     25                     26                     27
                      A                      A                      A
 Frequencies --    937.9386               940.4152               957.0227
 Red. masses --      1.6051                 1.5872                 1.2238
 Frc consts  --      0.8320                 0.8270                 0.6604
 IR Inten    --      0.1888                 1.2512                 0.0528

                     28                     29                     30
                      A                      A                      A
 Frequencies --    960.7285               968.3097              1031.9489
 Red. masses --      1.5383                 1.6353                 1.5554
 Frc consts  --      0.8365                 0.9034                 0.9759
 IR Inten    --      0.3353                 0.1172                 0.2141

                     31                     32                     33
                      A                      A                      A
 Frequencies --   1040.7724              1067.5429              1122.0039
 Red. masses --      1.4014                 2.2304                 1.4288
 Frc consts  --      0.8944                 1.4976                 1.0597
 IR Inten    --      0.3601                 0.0744                 0.5974

                     34                     35                     36
                      A                      A                      A
 Frequencies --   1138.2999              1192.4868              1221.3208
 Red. masses --      2.0504                 1.7740                 1.8918
 Frc consts  --      1.5653                 1.4863                 1.6626
 IR Inten    --      1.5468                 3.7693                 0.8155

                     37                     38                     39
                      A                      A                      A
 Frequencies --   1228.2846              1269.5013              1282.4434
 Red. masses --      2.1764                 2.6987                 1.7229
 Frc consts  --      1.9346                 2.5626                 1.6695
 IR Inten    --      5.9757                11.0858                 2.1127

                     40                     41                     42
                      A                      A                      A
 Frequencies --   1303.7548              1343.9668              1359.2774
 Red. masses --      1.3640                 1.2453                 1.3948
 Frc consts  --      1.3661                 1.3253                 1.5184
 IR Inten    --      0.1040                 1.8917                 4.5566

                     43                     44                     45
                      A                      A                      A
 Frequencies --   1372.2276              1393.7690              1398.8393
 Red. masses --      1.3208                 1.4497                 1.2371
 Frc consts  --      1.4653                 1.6592                 1.4262
 IR Inten    --      4.2948                 0.4827                 2.6756

                     46                     47                     48
                      A                      A                      A
 Frequencies --   1399.8508              1401.0537              1421.5780
 Red. masses --      1.2561                 1.2651                 1.2392
 Frc consts  --      1.4502                 1.4631                 1.4755
 IR Inten    --      4.1056                 8.8065                 3.0780

                     49                     50                     51
                      A                      A                      A
 Frequencies --   1431.6765              1473.7455              1480.6440
 Red. masses --      1.2349                 1.0778                 1.0486
 Frc consts  --      1.4914                 1.3792                 1.3545
 IR Inten    --      2.8694                 0.0729                 0.0941

                     52                     53                     54
                      A                      A                      A
 Frequencies --   1485.3770              1487.0269              1488.7725
 Red. masses --      1.0530                 1.0447                 1.0469
 Frc consts  --      1.3688                 1.3611                 1.3672
 IR Inten    --      0.3421                 0.6681                 0.4142

                     55                     56                     57
                      A                      A                      A
 Frequencies --   1491.4364              1498.8037              1504.6833
 Red. masses --      1.0554                 1.0787                 1.0537
 Frc consts  --      1.3831                 1.4277                 1.4056
 IR Inten    --      1.5165                 0.5503                 2.5647

                     58                     59                     60
                      A                      A                      A
 Frequencies --   1507.8057              1509.4742              1511.4350
 Red. masses --      1.0616                 1.0611                 1.0505
 Frc consts  --      1.4219                 1.4244                 1.4139
 IR Inten    --      2.6204                 3.2429                 7.7693

                     61                     62                     63
                      A                      A                      A
 Frequencies --   1518.8183              2990.7648              2999.9746
 Red. masses --      1.0609                 1.0810                 1.0609
 Frc consts  --      1.4419                 5.6968                 5.6253
 IR Inten    --     12.1514                 9.1006                15.4342

                     64                     65                     66
                      A                      A                      A
 Frequencies --   3015.3293              3019.7189              3020.9828
 Red. masses --      1.0555                 1.0359                 1.0378
 Frc consts  --      5.6544                 5.5656                 5.5806
 IR Inten    --     18.3461                24.4615                46.6525

                     67                     68                     69
                      A                      A                      A
 Frequencies --   3022.6532              3026.7798              3030.3458
 Red. masses --      1.0358                 1.0397                 1.0410
 Frc consts  --      5.5760                 5.6119                 5.6325
 IR Inten    --     28.4123                28.9859                 9.8289

                     70                     71                     72
                      A                      A                      A
 Frequencies --   3037.0624              3061.7922              3084.6385
 Red. masses --      1.0916                 1.1025                 1.1002
 Frc consts  --      5.9321                 6.0896                 6.1676
 IR Inten    --      1.6751                48.9193                 6.0312

                     73                     74                     75
                      A                      A                      A
 Frequencies --   3086.5151              3086.6991              3090.2970
 Red. masses --      1.1016                 1.1015                 1.1007
 Frc consts  --      6.1833                 6.1835                 6.1931
 IR Inten    --      0.2271                 0.6142                 9.3676

                     76                     77                     78
                      A                      A                      A
 Frequencies --   3091.3166              3093.9229              3095.8327
 Red. masses --      1.1002                 1.1003                 1.1013
 Frc consts  --      6.1945                 6.2058                 6.2189
 IR Inten    --    111.5738                83.2723                49.1119

                     79                     80                     81
                      A                      A                      A
 Frequencies --   3099.0009              3103.0031              3106.1815
 Red. masses --      1.1005                 1.0994                 1.0995
 Frc consts  --      6.2269                 6.2369                 6.2504
 IR Inten    --      3.4029                57.6250                42.2072

 - Thermochemistry -
 -------------------
 Temperature   298.150 Kelvin.  Pressure   1.00000 Atm.
 Atom     1 has atomic number  6 and mass  12.00000

 Molecular mass:   128.15650 amu.
 Principal axes and moments of inertia in atomic units:
                           1         2         3
     Eigenvalues --   644.632312497.818862667.82116
           X            1.00000   0.00026  -0.00204
           Y           -0.00026   1.00000  -0.00107
           Z            0.00204   0.00107   1.00000
 This molecule is an asymmetric top.
 Rotational symmetry number  1.
 Warning -- assumption of classical behavior for rotation
           may cause significant error
 Rotational temperatures (Kelvin)      0.13436     0.03468     0.03247
 Rotational constants (GHZ):           2.79964     0.72253     0.67649
 Zero-point vibrational energy     714292.9 (Joules/Mol)
                                  170.72009 (Kcal/Mol)
 Warning -- explicit consideration of  18 degrees of freedom as
           vibrations may cause significant error
 Vibrational temperatures:     42.15   108.90   172.01   189.86   315.97
          (Kelvin)            326.60   345.08   358.25   382.17   388.65
                              422.07   474.23   526.18   570.47   580.87
                              611.96   683.80   711.07  1070.16  1102.34
                             1192.84  1313.19  1329.79  1334.06  1349.48
                             1353.05  1376.94  1382.27  1393.18  1484.74
                             1497.44  1535.96  1614.31  1637.76  1715.72
                             1757.21  1767.23  1826.53  1845.15  1875.81
                             1933.67  1955.70  1974.33  2005.32  2012.62
                             2014.07  2015.80  2045.33  2059.86  2120.39
                             2130.32  2137.13  2139.50  2142.01  2145.84
                             2156.44  2164.90  2169.40  2171.80  2174.62
                             2185.24  4303.04  4316.29  4338.39  4344.70
                             4346.52  4348.92  4354.86  4359.99  4369.66
                             4405.24  4438.11  4440.81  4441.07  4446.25
                             4447.72  4451.46  4454.21  4458.77  4464.53
                             4469.10

 Zero-point correction=                           0.272060 (Hartree/Particle)
 Thermal correction to Energy=                    0.284398
 Thermal correction to Enthalpy=                  0.285342
 Thermal correction to Gibbs Free Energy=         0.234348
 Sum of electronic and zero-point Energies=           -354.782522
 Sum of electronic and thermal Energies=              -354.770184
 Sum of electronic and thermal Enthalpies=            -354.769239
 Sum of electronic and thermal Free Energies=         -354.820233

                     E (Thermal)             CV                S
                      KCal/Mol        Cal/Mol-Kelvin    Cal/Mol-Kelvin
 Total                  178.462             46.238            107.326
 Electronic               0.000              0.000              0.000
 Translational            0.889              2.981             40.457
 Rotational               0.889              2.981             29.842
 Vibrational            176.685             40.276             37.027
 Vibration     1          0.593              1.984              5.876
 Vibration     2          0.599              1.965              4.000
 Vibration     3          0.609              1.933              3.108
 Vibration     4          0.612              1.921              2.917
 Vibration     5          0.647              1.811              1.962
 Vibration     6          0.651              1.800              1.903
 Vibration     7          0.657              1.779              1.804
 Vibration     8          0.662              1.764              1.738
 Vibration     9          0.671              1.736              1.625
 Vibration    10          0.674              1.728              1.595
 Vibration    11          0.688              1.686              1.455
 Vibration    12          0.712              1.616              1.262
 Vibration    13          0.739              1.543              1.098
 Vibration    14          0.763              1.478              0.976
 Vibration    15          0.769              1.462              0.949
 Vibration    16          0.787              1.415              0.874
 Vibration    17          0.832              1.305              0.723
 Vibration    18          0.850              1.263              0.673

 Optimization completed.
    -- Stationary point found.
 Normal termination of Gaussian 16 at Sun May 28 22:26:49 2023.
