 Gaussian 16, Revision A.03,
 Gaussian 16:  ES64L-G16RevA.03 25-Dec-2016

 -----------------------------
 # opt freq b3lyp/6-31g(2df,p)
 -----------------------------

 -------------------
 Title Card Required
 -------------------
 Symbolic Z-matrix:
 Charge =  0 Multiplicity = 1

 SCF Done:  E(RB3LYP) =  -314.518159902     A.U. after   12 cycles
 SCF Done:  E(RB3LYP) =  -314.521416773     A.U. after   10 cycles
 SCF Done:  E(RB3LYP) =  -314.521995860     A.U. after   10 cycles
 SCF Done:  E(RB3LYP) =  -314.522153765     A.U. after    9 cycles
 SCF Done:  E(RB3LYP) =  -314.522184951     A.U. after    8 cycles
 SCF Done:  E(RB3LYP) =  -314.522191338     A.U. after    8 cycles
 SCF Done:  E(RB3LYP) =  -314.522192889     A.U. after    7 cycles
 SCF Done:  E(RB3LYP) =  -314.522193099     A.U. after    6 cycles
 Optimization completed.
    -- Stationary point found.
 Normal termination of Gaussian 16 at Sun May 28 03:07:02 2023.

 ----------------------------------------------------------------------
 #N Geom=AllCheck Guess=TCheck SCRF=Check GenChk RB3LYP/6-31G(2df,p) Fr
 eq
 ----------------------------------------------------------------------

 Structure from the checkpoint file:  "CCqCrC1CCCC1.chk"
 -------------------
 Title Card Required
 -------------------
 Charge =  0 Multiplicity = 1

                         Standard orientation:
 ---------------------------------------------------------------------
 Center     Atomic      Atomic             Coordinates (Angstroms)
 Number     Number       Type             X           Y           Z
 ---------------------------------------------------------------------
      1          6           0       -2.369818   -0.943024   -0.602017
      2          6           0       -1.495870    0.292395   -0.335058
      3          6           0       -1.887710    0.944655    0.999963
      4          6           0        0.004632   -0.046696   -0.466072
      5          6           0        0.977409    1.145986   -0.423579
      6          6           0        2.365742    0.484385   -0.342671
      7          6           0        2.144884   -0.837182    0.450615
      8          6           0        0.607610   -1.003443    0.585388
      9          1           0       -3.432751   -0.679321   -0.609960
     10          1           0       -2.226522   -1.705987    0.171434
     11          1           0       -2.131124   -1.400051   -1.568495
     12          1           0       -1.714386    1.022791   -1.127960
     13          1           0       -1.756044    0.256268    1.841669
     14          1           0       -2.943260    1.235860    0.983001
     15          1           0       -1.303335    1.845453    1.208803
     16          1           0        0.130547   -0.522918   -1.450963
     17          1           0        0.795882    1.746794    0.476060
     18          1           0        0.871222    1.813555   -1.284774
     19          1           0        3.113339    1.133371    0.121894
     20          1           0        2.727973    0.260717   -1.351981
     21          1           0        2.624201   -0.803907    1.433215
     22          1           0        2.588435   -1.684702   -0.080276
     23          1           0        0.287404   -0.700247    1.588453
     24          1           0        0.287137   -2.040136    0.450472
 ---------------------------------------------------------------------

 SCF Done:  E(RB3LYP) =  -314.522193099     A.U. after    1 cycles

 The electronic state is 1-A.
 Alpha  occ. eigenvalues --  -10.18049 -10.17424 -10.17106 -10.17075 -10.16862
 Alpha  occ. eigenvalues --  -10.16848 -10.16652 -10.16641  -0.83198  -0.77770
 Alpha  occ. eigenvalues --   -0.69923  -0.68832  -0.67570  -0.59237  -0.55701
 Alpha  occ. eigenvalues --   -0.52963  -0.47365  -0.46385  -0.43807  -0.41897
 Alpha  occ. eigenvalues --   -0.40871  -0.39684  -0.37900  -0.36611  -0.34497
 Alpha  occ. eigenvalues --   -0.33743  -0.32855  -0.32528  -0.30870  -0.30356
 Alpha  occ. eigenvalues --   -0.30017  -0.29666
 Alpha virt. eigenvalues --    0.07806   0.09789   0.10548   0.12418   0.14249
 Alpha virt. eigenvalues --    0.14761   0.15362   0.15828   0.16577   0.17137
 Alpha virt. eigenvalues --    0.18153   0.19504   0.19755   0.20750   0.21356

 Mulliken charges:
               1
     1  C   -0.393115
     2  C    0.019480
     3  C   -0.391800
     4  C    0.069005
     5  C   -0.222389
     6  C   -0.204573
     7  C   -0.202431
     8  C   -0.212348
     9  H    0.106472
    10  H    0.114237
    11  H    0.106674
    12  H    0.066765
    13  H    0.114560
    14  H    0.108755
    15  H    0.112497
    16  H    0.060803
    17  H    0.094075
    18  H    0.087085
    19  H    0.091832
    20  H    0.095623
    21  H    0.095666
    22  H    0.095977
    23  H    0.095471
    24  H    0.091678
 Sum of Mulliken charges =  -0.00000

 Dipole moment (field-independent basis, Debye):
    X=             -0.0113    Y=              0.0310    Z=             -0.0759  Tot=              0.0827
 Quadrupole moment (field-independent basis, Debye-Ang):
   XX=            -53.6428   YY=            -53.2289   ZZ=            -52.5382
   XY=             -0.2370   XZ=              0.1212   YZ=              0.1611

  Exact polarizability:  95.846   0.130  80.672   0.006   0.134  76.828
 Approx polarizability: 118.410  -0.353 115.958  -0.128   0.483 116.635

 ******    1 imaginary frequencies (negative Signs) ******

                      1                      2                      3
                      A                      A                      A
 Frequencies --    -22.9147                60.5351               142.0865
 Red. masses --      1.6001                 2.2326                 2.2596
 Frc consts  --      0.0005                 0.0048                 0.0269
 IR Inten    --      0.0011                 0.0029                 0.0064

                      4                      5                      6
                      A                      A                      A
 Frequencies --    204.9955               226.9853               246.9963
 Red. masses --      2.4767                 1.0974                 1.0821
 Frc consts  --      0.0613                 0.0333                 0.0389
 IR Inten    --      0.0312                 0.0067                 0.0495

                      7                      8                      9
                      A                      A                      A
 Frequencies --    291.7049               338.4054               439.0953
 Red. masses --      2.4268                 2.3951                 2.5412
 Frc consts  --      0.1217                 0.1616                 0.2887
 IR Inten    --      0.0252                 0.0235                 0.1448

                     10                     11                     12
                      A                      A                      A
 Frequencies --    493.5463               564.7892               624.0050
 Red. masses --      1.9812                 2.4216                 2.5393
 Frc consts  --      0.2843                 0.4551                 0.5826
 IR Inten    --      1.4923                 0.5296                 0.1698

                     13                     14                     15
                      A                      A                      A
 Frequencies --    758.0161               811.9074               838.9490
 Red. masses --      1.2933                 1.8679                 2.2604
 Frc consts  --      0.4378                 0.7255                 0.9374
 IR Inten    --      0.6030                 0.1695                 0.3259

                     16                     17                     18
                      A                      A                      A
 Frequencies --    883.6117               894.6944               925.6935
 Red. masses --      2.8018                 2.4909                 1.1824
 Frc consts  --      1.2889                 1.1748                 0.5970
 IR Inten    --      0.2484                 0.8574                 0.6040

                     19                     20                     21
                      A                      A                      A
 Frequencies --    950.7249               959.7227               968.7186
 Red. masses --      2.1706                 1.4256                 1.5587
 Frc consts  --      1.1559                 0.7736                 0.8618
 IR Inten    --      1.8744                 0.4788                 0.0759

                     22                     23                     24
                      A                      A                      A
 Frequencies --    984.7526              1005.9719              1048.2883
 Red. masses --      1.2812                 2.0758                 2.3018
 Frc consts  --      0.7320                 1.2377                 1.4903
 IR Inten    --      0.4487                 1.5869                 0.8389

                     25                     26                     27
                      A                      A                      A
 Frequencies --   1063.7844              1092.6393              1163.7942
 Red. masses --      1.6684                 1.8855                 2.0016
 Frc consts  --      1.1124                 1.3263                 1.5972
 IR Inten    --      0.3116                 1.3535                 1.0212

                     28                     29                     30
                      A                      A                      A
 Frequencies --   1195.6024              1207.6712              1213.4649
 Red. masses --      1.5500                 1.5698                 1.5907
 Frc consts  --      1.3054                 1.3490                 1.3800
 IR Inten    --      3.6081                 0.3796                 0.3701

                     31                     32                     33
                      A                      A                      A
 Frequencies --   1238.1367              1265.1580              1296.3201
 Red. masses --      1.5678                 1.2585                 1.2547
 Frc consts  --      1.4161                 1.1868                 1.2422
 IR Inten    --      0.1155                 1.3363                 0.4925

                     34                     35                     36
                      A                      A                      A
 Frequencies --   1310.5802              1325.4428              1338.2509
 Red. masses --      1.2365                 1.3021                 1.3543
 Frc consts  --      1.2514                 1.3478                 1.4290
 IR Inten    --      0.1606                 2.0566                 0.8422

                     37                     38                     39
                      A                      A                      A
 Frequencies --   1339.7785              1357.0394              1376.6832
 Red. masses --      1.2518                 1.4297                 1.4862
 Frc consts  --      1.3239                 1.5512                 1.6596
 IR Inten    --      1.6589                 1.3343                 2.6319

                     40                     41                     42
                      A                      A                      A
 Frequencies --   1397.1084              1402.1718              1423.5372
 Red. masses --      1.3145                 1.3232                 1.2511
 Frc consts  --      1.5117                 1.5327                 1.4937
 IR Inten    --      0.9472                 6.8860                 6.3479

                     43                     44                     45
                      A                      A                      A
 Frequencies --   1486.0828              1487.6754              1494.7114
 Red. masses --      1.0712                 1.0533                 1.0806
 Frc consts  --      1.3939                 1.3735                 1.4224
 IR Inten    --      0.0123                 0.4259                 0.1912

                     46                     47                     48
                      A                      A                      A
 Frequencies --   1495.5092              1497.5705              1506.7796
 Red. masses --      1.0683                 1.0753                 1.0453
 Frc consts  --      1.4078                 1.4208                 1.3983
 IR Inten    --      3.1092                 0.6119                 5.7376

                     49                     50                     51
                      A                      A                      A
 Frequencies --   1510.8352              1519.7310              2975.4583
 Red. masses --      1.0615                 1.0997                 1.0817
 Frc consts  --      1.4276                 1.4965                 5.6422
 IR Inten    --      4.9336                 0.1117                18.1905

                     52                     53                     54
                      A                      A                      A
 Frequencies --   2992.6227              3024.9659              3029.5103
 Red. masses --      1.0832                 1.0353                 1.0596
 Frc consts  --      5.7155                 5.5818                 5.7299
 IR Inten    --     30.7410                22.9412                25.6916

                     55                     56                     57
                      A                      A                      A
 Frequencies --   3033.5181              3038.6073              3042.4238
 Red. masses --      1.0424                 1.0644                 1.0580
 Frc consts  --      5.6519                 5.7903                 5.7702
 IR Inten    --      7.1023                17.1639                58.2299

                     58                     59                     60
                      A                      A                      A
 Frequencies --   3055.0210              3071.2481              3079.0225
 Red. masses --      1.0647                 1.0960                 1.1007
 Frc consts  --      5.8550                 6.0909                 6.1480
 IR Inten    --     38.7435                36.9842                14.1194

                     61                     62                     63
                      A                      A                      A
 Frequencies --   3086.6079              3092.3637              3093.9523
 Red. masses --      1.1015                 1.1015                 1.1013
 Frc consts  --      6.1831                 6.2058                 6.2111
 IR Inten    --      6.9563                 9.1760                34.8887

                     64                     65                     66
                      A                      A                      A
 Frequencies --   3097.4225              3102.8490              3107.2343
 Red. masses --      1.1002                 1.1048                 1.1003
 Frc consts  --      6.2193                 6.2668                 6.2590
 IR Inten    --     70.7875                86.4169                33.6531

 - Thermochemistry -
 -------------------
 Temperature   298.150 Kelvin.  Pressure   1.00000 Atm.
 Atom     1 has atomic number  6 and mass  12.00000

 Molecular mass:   112.12520 amu.
 Principal axes and moments of inertia in atomic units:
                           1         2         3
     Eigenvalues --   501.105311417.158831553.29323
           X            0.99999   0.00301  -0.00272
           Y           -0.00294   0.99960   0.02801
           Z            0.00280  -0.02800   0.99960
 This molecule is an asymmetric top.
 Rotational symmetry number  1.
 Warning -- assumption of classical behavior for rotation
           may cause significant error
 Rotational temperatures (Kelvin)      0.17285     0.06112     0.05576
 Rotational constants (GHZ):           3.60152     1.27349     1.16188
    1 imaginary frequencies ignored.
 Zero-point vibrational energy     589717.6 (Joules/Mol)
                                  140.94589 (Kcal/Mol)
 Warning -- explicit consideration of  10 degrees of freedom as
           vibrations may cause significant error
 Vibrational temperatures:     87.10   204.43   294.94   326.58   355.37
          (Kelvin)            419.70   486.89   631.76   710.10   812.61
                              897.80  1090.62  1168.15  1207.06  1271.32
                             1287.27  1331.87  1367.88  1380.83  1393.77
                             1416.84  1447.37  1508.25  1530.55  1572.06
                             1674.44  1720.21  1737.57  1745.91  1781.40
                             1820.28  1865.12  1885.63  1907.02  1925.44
                             1927.64  1952.48  1980.74  2010.13  2017.41
                             2048.15  2138.14  2140.43  2150.56  2151.70
                             2154.67  2167.92  2173.75  2186.55  4281.02
                             4305.72  4352.25  4358.79  4364.56  4371.88
                             4377.37  4395.49  4418.84  4430.03  4440.94
                             4449.22  4451.51  4456.50  4464.31  4470.62

 Zero-point correction=                           0.224612 (Hartree/Particle)
 Thermal correction to Energy=                    0.233022
 Thermal correction to Enthalpy=                  0.233967
 Thermal correction to Gibbs Free Energy=         0.191708
 Sum of electronic and zero-point Energies=           -314.297582
 Sum of electronic and thermal Energies=              -314.289171
 Sum of electronic and thermal Enthalpies=            -314.288226
 Sum of electronic and thermal Free Energies=         -314.330485

                     E (Thermal)             CV                S
                      KCal/Mol        Cal/Mol-Kelvin    Cal/Mol-Kelvin
 Total                  146.224             32.691             88.941
 Electronic               0.000              0.000              0.000
 Translational            0.889              2.981             40.059
 Rotational               0.889              2.981             28.491
 Vibrational            144.446             26.730             20.391
 Vibration     1          0.597              1.973              4.440
 Vibration     2          0.616              1.911              2.776
 Vibration     3          0.640              1.833              2.088
 Vibration     4          0.651              1.800              1.903
 Vibration     5          0.661              1.768              1.752
 Vibration     6          0.687              1.689              1.464
 Vibration     7          0.719              1.599              1.220
 Vibration     8          0.799              1.385              0.829
 Vibration     9          0.849              1.264              0.674
 Vibration    10          0.921              1.107              0.514

                           ! Non-Optimized Parameters !
 Normal termination of Gaussian 16 at Sun May 28 03:40:28 2023.
