 Gaussian 16, Revision A.03,
 Gaussian 16:  ES64L-G16RevA.03 25-Dec-2016

 -----------------------------
 # opt freq b3lyp/6-31g(2df,p)
 -----------------------------

 -------------------
 Title Card Required
 -------------------
 Symbolic Z-matrix:
 Charge =  0 Multiplicity = 1

 SCF Done:  E(RB3LYP) =  -657.607554909     A.U. after   12 cycles
 SCF Done:  E(RB3LYP) =  -657.617795827     A.U. after   11 cycles
 SCF Done:  E(RB3LYP) =  -657.622268364     A.U. after   11 cycles
 SCF Done:  E(RB3LYP) =  -657.624529999     A.U. after   11 cycles
 SCF Done:  E(RB3LYP) =  -657.627111027     A.U. after   11 cycles
 SCF Done:  E(RB3LYP) =  -657.629696392     A.U. after   11 cycles
 SCF Done:  E(RB3LYP) =  -657.631058149     A.U. after   11 cycles
 SCF Done:  E(RB3LYP) =  -657.631660016     A.U. after   10 cycles
 SCF Done:  E(RB3LYP) =  -657.631841898     A.U. after   10 cycles
 SCF Done:  E(RB3LYP) =  -657.631956419     A.U. after    9 cycles
 SCF Done:  E(RB3LYP) =  -657.631990319     A.U. after    9 cycles
 SCF Done:  E(RB3LYP) =  -657.632003732     A.U. after    9 cycles
 SCF Done:  E(RB3LYP) =  -657.632008430     A.U. after    7 cycles
 SCF Done:  E(RB3LYP) =  -657.632009322     A.U. after    7 cycles
 SCF Done:  E(RB3LYP) =  -657.632009518     A.U. after    6 cycles
 SCF Done:  E(RB3LYP) =  -657.632009609     A.U. after    6 cycles
 SCF Done:  E(RB3LYP) =  -657.632009639     A.U. after    6 cycles
 SCF Done:  E(RB3LYP) =  -657.632009653     A.U. after    5 cycles
 Optimization completed.
    -- Stationary point found.
 Normal termination of Gaussian 16 at Tue May 23 14:59:07 2023.

 ----------------------------------------------------------------------
 #N Geom=AllCheck Guess=TCheck SCRF=Check GenChk RB3LYP/6-31G(2df,p) Fr
 eq
 ----------------------------------------------------------------------

 Structure from the checkpoint file:  "CCqCrCNN1CC1CCqCrCqCrCO.chk"
 -------------------
 Title Card Required
 -------------------
 Charge =  0 Multiplicity = 1

                         Standard orientation:
 ---------------------------------------------------------------------
 Center     Atomic      Atomic             Coordinates (Angstroms)
 Number     Number       Type             X           Y           Z
 ---------------------------------------------------------------------
      1          6           0       -5.163605   -0.587720    1.545257
      2          6           0       -4.165438   -0.886384    0.418942
      3          6           0       -4.902742   -1.238993   -0.881238
      4          6           0       -3.203662    0.300143    0.241412
      5          7           0       -2.148879   -0.020759   -0.721550
      6          7           0       -1.109757    0.941648   -0.946907
      7          6           0       -1.145579    2.284789   -0.347014
      8          6           0       -0.206121    1.231202    0.151783
      9          6           0        1.282309    1.242391   -0.122988
     10          6           0        1.979006   -0.109345    0.148595
     11          6           0        1.340641   -1.225055   -0.698929
     12          6           0        3.515080   -0.010369   -0.054897
     13          6           0        4.163443    1.138564    0.734405
     14          6           0        4.227238   -1.329056    0.304452
     15          8           0        5.634258   -1.282685    0.095238
     16          1           0       -5.829486   -1.439880    1.714514
     17          1           0       -5.790634    0.277515    1.298879
     18          1           0       -4.651368   -0.370402    2.488537
     19          1           0       -3.555898   -1.750925    0.710900
     20          1           0       -5.470223   -0.378814   -1.257695
     21          1           0       -5.613408   -2.054789   -0.713971
     22          1           0       -4.217688   -1.567015   -1.669165
     23          1           0       -2.735704    0.512054    1.209671
     24          1           0       -3.785674    1.197448   -0.037992
     25          1           0       -2.563526   -0.152867   -1.636847
     26          1           0       -1.970058    2.558644    0.303734
     27          1           0       -0.795501    3.083922   -0.996055
     28          1           0       -0.482919    0.810356    1.120323
     29          1           0        1.732735    2.022475    0.500105
     30          1           0        1.439112    1.538064   -1.168443
     31          1           0        1.810494   -0.351145    1.210743
     32          1           0        1.546078   -1.066706   -1.764680
     33          1           0        0.254784   -1.244443   -0.578341
     34          1           0        1.718101   -2.214496   -0.428585
     35          1           0        3.691629    0.166961   -1.129278
     36          1           0        3.856161    1.110238    1.787388
     37          1           0        3.901720    2.120900    0.334458
     38          1           0        5.250614    1.037278    0.702798
     39          1           0        3.791664   -2.171825   -0.246008
     40          1           0        4.098761   -1.536027    1.374156
     41          1           0        5.783199   -1.182272   -0.850536
 ---------------------------------------------------------------------

 SCF Done:  E(RB3LYP) =  -657.632009653     A.U. after    1 cycles

 The electronic state is 1-A.
 Alpha  occ. eigenvalues --  -19.12855 -14.34614 -14.33834 -10.21567 -10.20618
 Alpha  occ. eigenvalues --  -10.20529 -10.20209 -10.19082 -10.18203 -10.17949
 Alpha  occ. eigenvalues --  -10.17686 -10.17591 -10.17327 -10.16165 -10.15851
 Alpha  occ. eigenvalues --   -1.00830  -0.98837  -0.86709  -0.81071  -0.79317
 Alpha  occ. eigenvalues --   -0.73907  -0.69708  -0.68753  -0.68018  -0.66060
 Alpha  occ. eigenvalues --   -0.61418  -0.60539  -0.57023  -0.56270  -0.55096
 Alpha  occ. eigenvalues --   -0.51715  -0.48972  -0.48671  -0.46331  -0.45325
 Alpha  occ. eigenvalues --   -0.44540  -0.42994  -0.42868  -0.42589  -0.40902
 Alpha  occ. eigenvalues --   -0.40293  -0.39433  -0.39085  -0.38591  -0.37629
 Alpha  occ. eigenvalues --   -0.36127  -0.35561  -0.35371  -0.34812  -0.34698
 Alpha  occ. eigenvalues --   -0.33634  -0.33004  -0.32608  -0.32228  -0.31088
 Alpha  occ. eigenvalues --   -0.30157  -0.30034  -0.25792  -0.23144  -0.22123
 Alpha virt. eigenvalues --    0.07652   0.08018   0.09168   0.09833   0.11092
 Alpha virt. eigenvalues --    0.11600   0.11930   0.12538   0.12993   0.13374
 Alpha virt. eigenvalues --    0.14235   0.14617   0.14976   0.15345   0.15989

 Mulliken charges:
               1
     1  C   -0.391934
     2  C    0.036153
     3  C   -0.395315
     4  C   -0.123745
     5  N   -0.276510
     6  N   -0.094530
     7  C   -0.279685
     8  C    0.042006
     9  C   -0.217987
    10  C    0.019762
    11  C   -0.413829
    12  C    0.007765
    13  C   -0.403989
    14  C   -0.074211
    15  O   -0.417803
    16  H    0.113503
    17  H    0.113085
    18  H    0.111352
    19  H    0.086131
    20  H    0.111999
    21  H    0.115424
    22  H    0.118248
    23  H    0.103927
    24  H    0.082195
    25  H    0.233319
    26  H    0.111914
    27  H    0.109143
    28  H    0.080321
    29  H    0.097034
    30  H    0.096501
    31  H    0.064025
    32  H    0.106725
    33  H    0.149029
    34  H    0.106649
    35  H    0.056071
    36  H    0.106529
    37  H    0.111015
    38  H    0.126065
    39  H    0.089685
    40  H    0.105008
    41  H    0.278957
 Sum of Mulliken charges =  -0.00000

 Dipole moment (field-independent basis, Debye):
    X=             -2.3409    Y=              0.7259    Z=             -0.3671  Tot=              2.4782
 Quadrupole moment (field-independent basis, Debye-Ang):
   XX=           -100.1089   YY=            -95.9808   ZZ=            -94.2588
   XY=              2.1647   XZ=             -7.3931   YZ=              1.3791

  Exact polarizability: 185.947   4.183 141.502  -0.178   1.255 127.518
 Approx polarizability: 215.635   2.459 206.289   0.473   0.033 202.218

                      1                      2                      3
                      A                      A                      A
 Frequencies --     26.2552                28.1194                36.1667
 Red. masses --      2.6185                 3.7146                 2.9836
 Frc consts  --      0.0011                 0.0017                 0.0023
 IR Inten    --      0.9373                 0.1608                 0.0174

                      4                      5                      6
                      A                      A                      A
 Frequencies --     45.4004                83.3695                86.4032
 Red. masses --      3.2153                 3.4568                 2.9010
 Frc consts  --      0.0039                 0.0142                 0.0128
 IR Inten    --      0.2571                 0.4888                 2.0294

                      7                      8                      9
                      A                      A                      A
 Frequencies --    116.8817               134.1726               152.9792
 Red. masses --      2.5003                 2.7366                 2.7780
 Frc consts  --      0.0201                 0.0290                 0.0383
 IR Inten    --      2.5788                 0.2785                 0.5590

                     10                     11                     12
                      A                      A                      A
 Frequencies --    183.2161               218.1921               222.5861
 Red. masses --      2.4885                 1.4994                 1.1000
 Frc consts  --      0.0492                 0.0421                 0.0321
 IR Inten    --      0.7068                 0.6253                 0.0502

                     13                     14                     15
                      A                      A                      A
 Frequencies --    243.8876               245.4357               253.5746
 Red. masses --      1.3117                 2.3156                 1.1451
 Frc consts  --      0.0460                 0.0822                 0.0434
 IR Inten    --      3.0657                 0.7921                 0.2981

                     16                     17                     18
                      A                      A                      A
 Frequencies --    282.3074               299.3842               317.4200
 Red. masses --      1.7435                 1.6020                 2.3226
 Frc consts  --      0.0819                 0.0846                 0.1379
 IR Inten    --     18.2702                48.0556                 6.9923

                     19                     20                     21
                      A                      A                      A
 Frequencies --    325.0509               341.8679               370.3043
 Red. masses --      2.5918                 2.4498                 1.9628
 Frc consts  --      0.1613                 0.1687                 0.1586
 IR Inten    --      7.6348                22.9663                11.2421

                     22                     23                     24
                      A                      A                      A
 Frequencies --    385.0065               408.6919               420.7749
 Red. masses --      2.4216                 2.6130                 2.5602
 Frc consts  --      0.2115                 0.2571                 0.2671
 IR Inten    --      0.7809                 2.0891                 0.2043

                     25                     26                     27
                      A                      A                      A
 Frequencies --    442.6689               468.3779               497.5446
 Red. masses --      2.2502                 2.4678                 2.2928
 Frc consts  --      0.2598                 0.3190                 0.3344
 IR Inten    --      0.4020                 4.4113                 1.9206

                     28                     29                     30
                      A                      A                      A
 Frequencies --    534.4378               562.8999               746.6827
 Red. masses --      2.8040                 2.6112                 3.6589
 Frc consts  --      0.4719                 0.4875                 1.2019
 IR Inten    --      2.1483                 3.3823                27.5339

                     31                     32                     33
                      A                      A                      A
 Frequencies --    790.7307               823.0174               833.4938
 Red. masses --      1.8794                 2.2939                 2.3178
 Frc consts  --      0.6924                 0.9155                 0.9487
 IR Inten    --     14.0267                 3.4248                 3.3324

                     34                     35                     36
                      A                      A                      A
 Frequencies --    846.6820               872.0563               886.5235
 Red. masses --      1.7915                 2.6064                 1.5661
 Frc consts  --      0.7567                 1.1678                 0.7252
 IR Inten    --      2.3285                 0.5972                 3.0998

                     37                     38                     39
                      A                      A                      A
 Frequencies --    907.1190               922.0976               929.1194
 Red. masses --      1.2707                 1.4404                 1.1999
 Frc consts  --      0.6161                 0.7216                 0.6103
 IR Inten    --      6.4510                 1.7451                 0.6038

                     40                     41                     42
                      A                      A                      A
 Frequencies --    936.4059               943.5035               967.1730
 Red. masses --      2.3010                 1.7508                 1.4415
 Frc consts  --      1.1887                 0.9183                 0.7944
 IR Inten    --     15.5732                 0.8436                 0.2774

                     43                     44                     45
                      A                      A                      A
 Frequencies --    975.5072               988.9259              1030.9329
 Red. masses --      1.8472                 1.3323                 2.1981
 Frc consts  --      1.0357                 0.7677                 1.3764
 IR Inten    --      2.1992                 3.9080                 4.0027

                     46                     47                     48
                      A                      A                      A
 Frequencies --   1048.2051              1056.0719              1071.0642
 Red. masses --      2.5781                 1.4761                 2.5408
 Frc consts  --      1.6690                 0.9699                 1.7173
 IR Inten    --     84.9768                26.6404                 8.9131

                     49                     50                     51
                      A                      A                      A
 Frequencies --   1073.4980              1085.4510              1108.9720
 Red. masses --      2.1552                 1.7596                 1.7476
 Frc consts  --      1.4633                 1.2215                 1.2663
 IR Inten    --     34.9107                 4.1950                 4.9488

                     52                     53                     54
                      A                      A                      A
 Frequencies --   1123.5809              1138.4350              1151.7381
 Red. masses --      1.5968                 2.1733                 2.1629
 Frc consts  --      1.1877                 1.6595                 1.6904
 IR Inten    --      3.0880                 2.2738                 1.0080

                     55                     56                     57
                      A                      A                      A
 Frequencies --   1159.5743              1176.5438              1187.4318
 Red. masses --      1.9185                 1.8754                 1.9000
 Frc consts  --      1.5199                 1.5296                 1.5784
 IR Inten    --      0.9363                 2.5202                 2.0579

                     58                     59                     60
                      A                      A                      A
 Frequencies --   1193.4014              1196.0059              1217.1544
 Red. masses --      1.9512                 1.9046                 1.5829
 Frc consts  --      1.6373                 1.6052                 1.3816
 IR Inten    --      2.8141                 9.1335                 0.9100

                     61                     62                     63
                      A                      A                      A
 Frequencies --   1253.7943              1259.6619              1294.7813
 Red. masses --      1.5879                 1.4064                 1.4710
 Frc consts  --      1.4707                 1.3148                 1.4530
 IR Inten    --     12.3420                 9.7658                15.1619

                     64                     65                     66
                      A                      A                      A
 Frequencies --   1296.8828              1322.9951              1329.2749
 Red. masses --      1.2856                 1.2853                 1.2761
 Frc consts  --      1.2740                 1.3255                 1.3285
 IR Inten    --      5.3245                 2.5610                 0.5002

                     67                     68                     69
                      A                      A                      A
 Frequencies --   1351.3108              1366.5492              1372.0618
 Red. masses --      1.2387                 1.4074                 1.3582
 Frc consts  --      1.3327                 1.5486                 1.5065
 IR Inten    --      4.0684                 0.4496                 2.1404

                     70                     71                     72
                      A                      A                      A
 Frequencies --   1373.9025              1386.3362              1394.0979
 Red. masses --      1.3919                 1.3841                 1.2885
 Frc consts  --      1.5480                 1.5674                 1.4755
 IR Inten    --      4.2789                 0.6550                 0.9216

                     73                     74                     75
                      A                      A                      A
 Frequencies --   1401.1539              1404.3141              1417.8912
 Red. masses --      1.2869                 1.2465                 1.2385
 Frc consts  --      1.4885                 1.4484                 1.4670
 IR Inten    --      5.6875                28.2928                30.4721

                     76                     77                     78
                      A                      A                      A
 Frequencies --   1423.2059              1424.6311              1436.5806
 Red. masses --      1.2345                 1.2239                 1.6274
 Frc consts  --      1.4732                 1.4636                 1.9788
 IR Inten    --      4.6330                 0.2843                 7.0126

                     79                     80                     81
                      A                      A                      A
 Frequencies --   1475.1002              1486.4283              1487.2157
 Red. masses --      1.0889                 1.0525                 1.0765
 Frc consts  --      1.3960                 1.3701                 1.4029
 IR Inten    --      1.8686                 1.3064                 1.4101

                     82                     83                     84
                      A                      A                      A
 Frequencies --   1493.1995              1497.7149              1500.0065
 Red. masses --      1.0602                 1.1596                 1.0718
 Frc consts  --      1.3927                 1.5325                 1.4209
 IR Inten    --      5.8668                 2.8076                 0.3926

                     85                     86                     87
                      A                      A                      A
 Frequencies --   1502.9768              1506.3252              1507.3256
 Red. masses --      1.1173                 1.0699                 1.0769
 Frc consts  --      1.4871                 1.4303                 1.4415
 IR Inten    --      3.2968                 0.8905                 0.8105

                     88                     89                     90
                      A                      A                      A
 Frequencies --   1513.8888              1516.2627              1517.2022
 Red. masses --      1.0462                 1.0780                 1.0482
 Frc consts  --      1.4127                 1.4602                 1.4216
 IR Inten    --      7.1857                10.5641                 4.5005

                     91                     92                     93
                      A                      A                      A
 Frequencies --   1523.7622              2931.7448              2959.2515
 Red. masses --      1.1181                 1.0702                 1.0792
 Frc consts  --      1.5296                 5.4195                 5.5681
 IR Inten    --      7.2943                48.2837                 5.8431

                     94                     95                     96
                      A                      A                      A
 Frequencies --   2974.7769              3016.8822              3022.6259
 Red. masses --      1.0833                 1.0564                 1.0398
 Frc consts  --      5.6484                 5.6648                 5.5973
 IR Inten    --     36.0189                34.3216                23.6642

                     97                     98                     99
                      A                      A                      A
 Frequencies --   3024.6719              3025.5947              3030.0911
 Red. masses --      1.0556                 1.0597                 1.0587
 Frc consts  --      5.6900                 5.7157                 5.7274
 IR Inten    --      9.0490                26.8206                28.3745

                    100                    101                    102
                      A                      A                      A
 Frequencies --   3030.1492              3033.3367              3051.8182
 Red. masses --      1.0433                 1.0440                 1.0889
 Frc consts  --      5.6438                 5.6596                 5.9752
 IR Inten    --     26.8970                 9.6737                19.6119

                    103                    104                    105
                      A                      A                      A
 Frequencies --   3063.0447              3071.7273              3088.5257
 Red. masses --      1.1049                 1.0972                 1.0998
 Frc consts  --      6.1076                 6.0995                 6.1811
 IR Inten    --     41.8806                24.5560                 6.2019

                    106                    107                    108
                      A                      A                      A
 Frequencies --   3091.0849              3094.5442              3099.4964
 Red. masses --      1.0886                 1.0996                 1.1013
 Frc consts  --      6.1282                 6.2040                 6.2335
 IR Inten    --     26.3289                52.3501                21.6469

                    109                    110                    111
                      A                      A                      A
 Frequencies --   3101.7040              3101.9990              3103.5200
 Red. masses --      1.1000                 1.0958                 1.0926
 Frc consts  --      6.2350                 6.2125                 6.2002
 IR Inten    --     40.6474                53.7795                27.9622

                    112                    113                    114
                      A                      A                      A
 Frequencies --   3107.8140              3122.7578              3127.5935
 Red. masses --      1.0529                 1.1008                 1.1010
 Frc consts  --      5.9916                 6.3245                 6.3454
 IR Inten    --     23.9381                 7.9837                19.5825

                    115                    116                    117
                      A                      A                      A
 Frequencies --   3196.9271              3531.9439              3812.0635
 Red. masses --      1.1157                 1.0745                 1.0661
 Frc consts  --      6.7186                 7.8975                 9.1277
 IR Inten    --     14.4177                 1.1261                16.8877

 - Thermochemistry -
 -------------------
 Temperature   298.150 Kelvin.  Pressure   1.00000 Atm.
 Atom     1 has atomic number  6 and mass  12.00000

 Molecular mass:   214.20451 amu.
 Principal axes and moments of inertia in atomic units:
                           1         2         3
     Eigenvalues --  1429.483659587.90655**********
           X            0.99996   0.00795  -0.00297
           Y           -0.00786   0.99961   0.02674
           Z            0.00318  -0.02672   0.99964
 This molecule is an asymmetric top.
 Rotational symmetry number  1.
 Warning -- assumption of classical behavior for rotation
           may cause significant error
 Rotational temperatures (Kelvin)      0.06059     0.00903     0.00849
 Rotational constants (GHZ):           1.26251     0.18823     0.17684
 Zero-point vibrational energy     980776.3 (Joules/Mol)
                                  234.41117 (Kcal/Mol)
 Warning -- explicit consideration of  29 degrees of freedom as
           vibrations may cause significant error
 Vibrational temperatures:     37.78    40.46    52.04    65.32   119.95
          (Kelvin)            124.31   168.17   193.04   220.10   263.61
                              313.93   320.25   350.90   353.13   364.84
                              406.18   430.75   456.70   467.68   491.87
                              532.79   553.94   588.02   605.40   636.90
                              673.89   715.86   768.94   809.89  1074.31
                             1137.69  1184.14  1199.21  1218.19  1254.69
                             1275.51  1305.14  1326.69  1336.80  1347.28
                             1357.49  1391.55  1403.54  1422.84  1483.28
                             1508.13  1519.45  1541.02  1544.52  1561.72
                             1595.56  1616.58  1637.95  1657.09  1668.37
                             1692.78  1708.45  1717.04  1720.79  1751.21
                             1803.93  1812.37  1862.90  1865.93  1903.49
                             1912.53  1944.23  1966.16  1974.09  1976.74
                             1994.63  2005.80  2015.95  2020.49  2040.03
                             2047.68  2049.73  2066.92  2122.34  2138.64
                             2139.77  2148.38  2154.88  2158.17  2162.45
                             2167.27  2168.71  2178.15  2181.56  2182.92
                             2192.35  4218.13  4257.70  4280.04  4340.62
                             4348.88  4351.83  4353.16  4359.63  4359.71
                             4364.29  4390.89  4407.04  4419.53  4443.70
                             4447.38  4452.36  4459.48  4462.66  4463.08
                             4465.27  4471.45  4492.95  4499.91  4599.67
                             5081.68  5484.71

 Zero-point correction=                           0.373558 (Hartree/Particle)
 Thermal correction to Energy=                    0.392383
 Thermal correction to Enthalpy=                  0.393328
 Thermal correction to Gibbs Free Energy=         0.325295
 Sum of electronic and zero-point Energies=           -657.258452
 Sum of electronic and thermal Energies=              -657.239626
 Sum of electronic and thermal Enthalpies=            -657.238682
 Sum of electronic and thermal Free Energies=         -657.306715

                     E (Thermal)             CV                S
                      KCal/Mol        Cal/Mol-Kelvin    Cal/Mol-Kelvin
 Total                  246.224             69.885            143.187
 Electronic               0.000              0.000              0.000
 Translational            0.889              2.981             41.989
 Rotational               0.889              2.981             33.303
 Vibrational            244.447             63.923             67.896
 Vibration     1          0.593              1.985              6.094
 Vibration     2          0.593              1.984              5.958
 Vibration     3          0.594              1.982              5.459
 Vibration     4          0.595              1.979              5.008
 Vibration     5          0.600              1.961              3.810
 Vibration     6          0.601              1.959              3.740
 Vibration     7          0.608              1.935              3.151
 Vibration     8          0.613              1.919              2.885
 Vibration     9          0.619              1.899              2.635
 Vibration    10          0.631              1.863              2.295
 Vibration    11          0.646              1.813              1.974
 Vibration    12          0.648              1.807              1.938
 Vibration    13          0.659              1.773              1.774
 Vibration    14          0.660              1.770              1.763
 Vibration    15          0.665              1.757              1.706
 Vibration    16          0.681              1.706              1.520
 Vibration    17          0.692              1.675              1.420
 Vibration    18          0.704              1.640              1.323
 Vibration    19          0.709              1.625              1.285
 Vibration    20          0.721              1.592              1.203
 Vibration    21          0.742              1.533              1.079
 Vibration    22          0.754              1.502              1.019
 Vibration    23          0.773              1.451              0.931
 Vibration    24          0.783              1.425              0.889
 Vibration    25          0.802              1.377              0.818
 Vibration    26          0.826              1.320              0.742
 Vibration    27          0.853              1.255              0.664
 Vibration    28          0.889              1.174              0.577
 Vibration    29          0.919              1.112              0.518

                           ! Non-Optimized Parameters !
 Normal termination of Gaussian 16 at Tue May 23 18:01:38 2023.
