 Gaussian 16, Revision A.03,
 Gaussian 16:  ES64L-G16RevA.03 25-Dec-2016

 -----------------------------
 # opt freq b3lyp/6-31g(2df,p)
 -----------------------------

 -------------------
 Title Card Required
 -------------------
 Symbolic Z-matrix:
 Charge =  0 Multiplicity = 1

 SCF Done:  E(RB3LYP) =  -520.959986011     A.U. after   14 cycles
 SCF Done:  E(RB3LYP) =  -520.981286323     A.U. after   13 cycles
 SCF Done:  E(RB3LYP) =  -520.982397704     A.U. after   13 cycles
 SCF Done:  E(RB3LYP) =  -520.980990606     A.U. after   13 cycles
 SCF Done:  E(RB3LYP) =  -520.982612839     A.U. after   11 cycles
 SCF Done:  E(RB3LYP) =  -520.982607621     A.U. after   12 cycles
 SCF Done:  E(RB3LYP) =  -520.982666948     A.U. after   11 cycles
 SCF Done:  E(RB3LYP) =  -520.982787299     A.U. after   12 cycles
 SCF Done:  E(RB3LYP) =  -520.960278104     A.U. after   14 cycles
 SCF Done:  E(RB3LYP) =  -520.954898391     A.U. after   13 cycles
 SCF Done:  E(RB3LYP) =  -520.994723770     A.U. after   14 cycles
 SCF Done:  E(RB3LYP) =  -520.994754961     A.U. after   15 cycles
 SCF Done:  E(RB3LYP) =  -520.994771508     A.U. after   14 cycles
 SCF Done:  E(RB3LYP) =  -520.994852052     A.U. after   14 cycles
 SCF Done:  E(RB3LYP) =  -520.994854178     A.U. after   12 cycles
 SCF Done:  E(RB3LYP) =  -520.994855168     A.U. after    8 cycles
 SCF Done:  E(RB3LYP) =  -520.994855929     A.U. after   10 cycles
 SCF Done:  E(RB3LYP) =  -520.994855924     A.U. after    9 cycles
 SCF Done:  E(RB3LYP) =  -520.994855958     A.U. after    9 cycles
 Optimization completed.
    -- Stationary point found.
 Normal termination of Gaussian 16 at Mon May 29 01:49:58 2023.

 ----------------------------------------------------------------------
 #N Geom=AllCheck Guess=TCheck SCRF=Check GenChk RB3LYP/6-31G(2df,p) Fr
 eq
 ----------------------------------------------------------------------

 Structure from the checkpoint file:  "CCqCrCCtCC1dNCCdCCdC1.chk"
 -------------------
 Title Card Required
 -------------------
 Charge =  0 Multiplicity = 1

                         Standard orientation:
 ---------------------------------------------------------------------
 Center     Atomic      Atomic             Coordinates (Angstroms)
 Number     Number       Type             X           Y           Z
 ---------------------------------------------------------------------
      1          6           0       -5.170557    0.256633    0.137898
      2          6           0       -3.706816   -0.189916    0.228439
      3          6           0       -3.449636   -1.448018   -0.607748
      4          6           0       -2.772692    0.972613   -0.193001
      5          6           0       -1.355254    0.685721   -0.017928
      6          6           0       -0.192261    0.401748    0.138046
      7          6           0        1.202633    0.119625    0.336941
      8          7           0        1.574590   -1.114966    0.380180
      9          6           0        2.978574   -1.360515    0.707893
     10          6           0        3.851425   -0.968538   -0.452280
     11          6           0        4.009406    0.324811   -0.785805
     12          6           0        3.294275    1.405439   -0.145345
     13          6           0        2.061487    1.312298    0.409592
     14          1           0       -5.843921   -0.542329    0.463677
     15          1           0       -5.439043    0.515332   -0.893587
     16          1           0       -5.364221    1.134622    0.763609
     17          1           0       -3.479265   -0.422074    1.276778
     18          1           0       -3.676579   -1.266071   -1.665536
     19          1           0       -4.081990   -2.275532   -0.270569
     20          1           0       -2.405587   -1.764602   -0.536308
     21          1           0       -3.032012    1.872421    0.380485
     22          1           0       -2.964888    1.222140   -1.246758
     23          1           0        3.090496   -2.421815    0.940918
     24          1           0        3.271672   -0.778225    1.596652
     25          1           0        4.357795   -1.746017   -1.016569
     26          1           0        4.708073    0.595816   -1.573368
     27          1           0        3.751728    2.391628   -0.189857
     28          1           0        1.582102    2.218074    0.768961
 ---------------------------------------------------------------------

 SCF Done:  E(RB3LYP) =  -520.994855958     A.U. after    1 cycles

 The electronic state is 1-A.
 Alpha  occ. eigenvalues --  -14.31556 -10.23753 -10.20509 -10.20358 -10.20337
 Alpha  occ. eigenvalues --  -10.19652 -10.19619 -10.19191 -10.19148 -10.17961
 Alpha  occ. eigenvalues --  -10.17420 -10.17018 -10.16638  -0.92219  -0.81754
 Alpha  occ. eigenvalues --   -0.81171  -0.78460  -0.74750  -0.69980  -0.68044
 Alpha  occ. eigenvalues --   -0.67511  -0.64816  -0.57082  -0.55682  -0.53433
 Alpha  occ. eigenvalues --   -0.51153  -0.48114  -0.46135  -0.45856  -0.44613
 Alpha  occ. eigenvalues --   -0.43576  -0.43202  -0.40703  -0.40278  -0.38453
 Alpha  occ. eigenvalues --   -0.38251  -0.37469  -0.35786  -0.34330  -0.33389
 Alpha  occ. eigenvalues --   -0.33146  -0.32629  -0.30606  -0.26118  -0.25455
 Alpha  occ. eigenvalues --   -0.23869  -0.22726
 Alpha virt. eigenvalues --   -0.05208  -0.00721   0.04584   0.07204   0.08956
 Alpha virt. eigenvalues --    0.09895   0.12027   0.13166   0.14333   0.14588
 Alpha virt. eigenvalues --    0.14992   0.15160   0.15737   0.16896   0.18023

 Mulliken charges:
               1
     1  C   -0.390429
     2  C    0.050069
     3  C   -0.385221
     4  C   -0.363766
     5  C    0.200802
     6  C   -0.021050
     7  C    0.101206
     8  N   -0.270415
     9  C   -0.220265
    10  C   -0.073175
    11  C   -0.055653
    12  C   -0.077510
    13  C   -0.149849
    14  H    0.113366
    15  H    0.112650
    16  H    0.109736
    17  H    0.086766
    18  H    0.107769
    19  H    0.109870
    20  H    0.141864
    21  H    0.124231
    22  H    0.127077
    23  H    0.104043
    24  H    0.108731
    25  H    0.104651
    26  H    0.097502
    27  H    0.102413
    28  H    0.104587
 Sum of Mulliken charges =  -0.00000

 Dipole moment (field-independent basis, Debye):
    X=              0.3688    Y=              1.5313    Z=             -0.1799  Tot=              1.5853
 Quadrupole moment (field-independent basis, Debye-Ang):
   XX=            -64.3432   YY=            -75.6925   ZZ=            -77.7219
   XY=             -0.2638   XZ=             -1.7151   YZ=              0.0307

  Exact polarizability: 202.798 -13.133 128.543  -8.669  -1.258  90.539
 Approx polarizability: 267.386 -30.327 218.681 -13.410  -5.108 143.977

                      1                      2                      3
                      A                      A                      A
 Frequencies --      8.7386                41.8056                47.3016
 Red. masses --      3.1898                 3.7364                 3.6676
 Frc consts  --      0.0001                 0.0038                 0.0048
 IR Inten    --      0.4392                 0.7249                 1.0331

                      4                      5                      6
                      A                      A                      A
 Frequencies --     97.4779               126.7886               214.0238
 Red. masses --      3.3113                 4.6032                 2.3956
 Frc consts  --      0.0185                 0.0436                 0.0647
 IR Inten    --      0.8124                 1.0195                 1.3932

                      7                      8                      9
                      A                      A                      A
 Frequencies --    227.6181               250.3801               274.4209
 Red. masses --      1.1180                 1.3207                 2.1864
 Frc consts  --      0.0341                 0.0488                 0.0970
 IR Inten    --      0.2234                 0.3037                 0.9041

                     10                     11                     12
                      A                      A                      A
 Frequencies --    281.0116               316.6433               335.4766
 Red. masses --      3.5038                 2.7325                 3.3763
 Frc consts  --      0.1630                 0.1614                 0.2239
 IR Inten    --      1.2690                 1.1643                 1.5057

                     13                     14                     15
                      A                      A                      A
 Frequencies --    368.5942               402.1297               407.8927
 Red. masses --      3.0418                 4.7340                 3.2618
 Frc consts  --      0.2435                 0.4510                 0.3197
 IR Inten    --      0.2893                 0.7416                 0.8352

                     16                     17                     18
                      A                      A                      A
 Frequencies --    419.7921               479.3913               512.8599
 Red. masses --      2.2851                 3.0967                 3.8335
 Frc consts  --      0.2373                 0.4193                 0.5941
 IR Inten    --      0.6898                 2.6752                 1.0300

                     19                     20                     21
                      A                      A                      A
 Frequencies --    547.4317               603.6201               692.5877
 Red. masses --      5.7809                 3.8913                 2.4519
 Frc consts  --      1.0207                 0.8354                 0.6930
 IR Inten    --      2.3664                 3.5123                 8.6414

                     22                     23                     24
                      A                      A                      A
 Frequencies --    727.1365               780.5147               814.6580
 Red. masses --      3.2094                 2.1677                 2.7707
 Frc consts  --      0.9998                 0.7781                 1.0834
 IR Inten    --      4.9882                35.8529                 2.8075

                     25                     26                     27
                      A                      A                      A
 Frequencies --    833.9755               876.4176               907.1207
 Red. masses --      1.6248                 1.4673                 4.9082
 Frc consts  --      0.6658                 0.6640                 2.3796
 IR Inten    --     18.9118                 2.3254                 9.6039

                     28                     29                     30
                      A                      A                      A
 Frequencies --    929.0912               937.9124               958.0615
 Red. masses --      1.6543                 1.5309                 2.6764
 Frc consts  --      0.8414                 0.7935                 1.4474
 IR Inten    --      1.8150                 0.5733                 2.1403

                     31                     32                     33
                      A                      A                      A
 Frequencies --    967.7396               978.8313               981.1791
 Red. masses --      1.6614                 2.0984                 2.0353
 Frc consts  --      0.9167                 1.1845                 1.1545
 IR Inten    --      0.3733                 3.5248                 8.7314

                     34                     35                     36
                      A                      A                      A
 Frequencies --   1000.4412              1013.5781              1063.6723
 Red. masses --      1.7702                 1.2868                 2.7086
 Frc consts  --      1.0439                 0.7789                 1.8055
 IR Inten    --      7.2261                 0.9631                13.1868

                     37                     38                     39
                      A                      A                      A
 Frequencies --   1084.7190              1125.5419              1138.4899
 Red. masses --      2.6540                 1.6639                 2.0266
 Frc consts  --      1.8398                 1.2419                 1.5476
 IR Inten    --     12.7209                 4.1446                 0.9287

                     40                     41                     42
                      A                      A                      A
 Frequencies --   1191.1513              1208.9048              1228.6373
 Red. masses --      1.7590                 1.2901                 1.2258
 Frc consts  --      1.4705                 1.1109                 1.0902
 IR Inten    --     15.7031                14.2729                16.9267

                     43                     44                     45
                      A                      A                      A
 Frequencies --   1252.5715              1255.1367              1276.3527
 Red. masses --      1.3493                 1.3185                 1.5362
 Frc consts  --      1.2473                 1.2238                 1.4745
 IR Inten    --     20.9327                 3.8676                 6.5177

                     46                     47                     48
                      A                      A                      A
 Frequencies --   1309.8026              1351.5161              1366.0936
 Red. masses --      1.4261                 1.2978                 1.3377
 Frc consts  --      1.4415                 1.3967                 1.4708
 IR Inten    --     41.0114                 8.9206                 3.4802

                     49                     50                     51
                      A                      A                      A
 Frequencies --   1368.2961              1401.5916              1401.7132
 Red. masses --      1.4835                 1.4008                 1.2908
 Frc consts  --      1.6364                 1.6213                 1.4943
 IR Inten    --      2.8198                 9.8725                 5.5484

                     52                     53                     54
                      A                      A                      A
 Frequencies --   1422.0814              1461.4934              1462.8294
 Red. masses --      1.2338                 1.5662                 1.1893
 Frc consts  --      1.4700                 1.9710                 1.4994
 IR Inten    --      5.7170                 8.7685                11.3521

                     55                     56                     57
                      A                      A                      A
 Frequencies --   1488.8488              1490.9548              1492.9603
 Red. masses --      1.0444                 1.0981                 1.0530
 Frc consts  --      1.3640                 1.4382                 1.3829
 IR Inten    --      0.3063                 7.5938                 2.6771

                     58                     59                     60
                      A                      A                      A
 Frequencies --   1503.5230              1511.0048              1578.8913
 Red. masses --      1.0493                 1.0503                 9.5673
 Frc consts  --      1.3976                 1.4129                14.0522
 IR Inten    --      3.4540                 7.9888                21.6121

                     61                     62                     63
                      A                      A                      A
 Frequencies --   1645.8358              1676.7740              2341.5659
 Red. masses --      7.7269                 5.3730                11.9377
 Frc consts  --     12.3319                 8.9006                38.5641
 IR Inten    --     56.3761                11.1475                62.9723

                     64                     65                     66
                      A                      A                      A
 Frequencies --   2967.7109              3001.4283              3020.1263
 Red. masses --      1.0694                 1.0618                 1.0752
 Frc consts  --      5.5492                 5.6355                 5.7784
 IR Inten    --     42.1430                16.8607                 5.4278

                     67                     68                     69
                      A                      A                      A
 Frequencies --   3022.8675              3029.3990              3040.3916
 Red. masses --      1.0368                 1.0447                 1.0970
 Frc consts  --      5.5817                 5.6487                 5.9747
 IR Inten    --     26.8972                31.9138                20.1268

                     70                     71                     72
                      A                      A                      A
 Frequencies --   3087.5977              3090.5801              3093.8753
 Red. masses --      1.0999                 1.0918                 1.0996
 Frc consts  --      6.1777                 6.1443                 6.2014
 IR Inten    --     14.6153                34.7545                46.0460

                     73                     74                     75
                      A                      A                      A
 Frequencies --   3101.6064              3117.2576              3142.7281
 Red. masses --      1.1007                 1.1008                 1.0839
 Frc consts  --      6.2386                 6.3022                 6.3072
 IR Inten    --     39.1595                21.7598                 4.7042

                     76                     77                     78
                      A                      A                      A
 Frequencies --   3157.3060              3175.3507              3181.7404
 Red. masses --      1.0855                 1.0923                 1.0965
 Frc consts  --      6.3753                 6.4888                 6.5399
 IR Inten    --      9.5987                18.7473                21.7171

 - Thermochemistry -
 -------------------
 Temperature   298.150 Kelvin.  Pressure   1.00000 Atm.
 Atom     1 has atomic number  6 and mass  12.00000

 Molecular mass:   173.12045 amu.
 Principal axes and moments of inertia in atomic units:
                           1         2         3
     Eigenvalues --   796.181596192.866436680.26980
           X            1.00000   0.00157   0.00096
           Y           -0.00158   0.99997   0.00767
           Z           -0.00095  -0.00767   0.99997
 This molecule is an asymmetric top.
 Rotational symmetry number  1.
 Warning -- assumption of classical behavior for rotation
           may cause significant error
 Rotational temperatures (Kelvin)      0.10879     0.01399     0.01297
 Rotational constants (GHZ):           2.26675     0.29142     0.27016
 Zero-point vibrational energy     626206.6 (Joules/Mol)
                                  149.66696 (Kcal/Mol)
 Warning -- explicit consideration of  20 degrees of freedom as
           vibrations may cause significant error
 Vibrational temperatures:     12.57    60.15    68.06   140.25   182.42
          (Kelvin)            307.93   327.49   360.24   394.83   404.31
                              455.58   482.68   530.32   578.57   586.87
                              603.99   689.74   737.89   787.63   868.47
                              996.48  1046.19  1122.99  1172.11  1199.90
                             1260.97  1305.14  1336.76  1349.45  1378.44
                             1392.36  1408.32  1411.70  1439.41  1458.31
                             1530.39  1560.67  1619.40  1638.03  1713.80
                             1739.34  1767.74  1802.17  1805.86  1836.39
                             1884.51  1944.53  1965.50  1968.67  2016.58
                             2016.75  2046.06  2102.76  2104.69  2142.12
                             2145.15  2148.04  2163.23  2174.00  2271.67
                             2367.99  2412.50  3368.99  4269.87  4318.39
                             4345.29  4349.23  4358.63  4374.45  4442.36
                             4446.66  4451.40  4462.52  4485.04  4521.68
                             4542.66  4568.62  4577.81

 Zero-point correction=                           0.238509 (Hartree/Particle)
 Thermal correction to Energy=                    0.251826
 Thermal correction to Enthalpy=                  0.252770
 Thermal correction to Gibbs Free Energy=         0.196407
 Sum of electronic and zero-point Energies=           -520.756346
 Sum of electronic and thermal Energies=              -520.743030
 Sum of electronic and thermal Enthalpies=            -520.742086
 Sum of electronic and thermal Free Energies=         -520.798449

                     E (Thermal)             CV                S
                      KCal/Mol        Cal/Mol-Kelvin    Cal/Mol-Kelvin
 Total                  158.023             49.975            118.626
 Electronic               0.000              0.000              0.000
 Translational            0.889              2.981             41.354
 Rotational               0.889              2.981             31.866
 Vibrational            156.245             44.014             45.406
 Vibration     1          0.593              1.987              8.279
 Vibration     2          0.594              1.980              5.172
 Vibration     3          0.595              1.979              4.927
 Vibration     4          0.603              1.951              3.504
 Vibration     5          0.611              1.926              2.994
 Vibration     6          0.644              1.820              2.009
 Vibration     7          0.651              1.799              1.898
 Vibration     8          0.663              1.762              1.728
 Vibration     9          0.677              1.721              1.568
 Vibration    10          0.681              1.709              1.528
 Vibration    11          0.704              1.642              1.327
 Vibration    12          0.717              1.605              1.234
 Vibration    13          0.741              1.537              1.086
 Vibration    14          0.768              1.466              0.955
 Vibration    15          0.772              1.453              0.934
 Vibration    16          0.782              1.427              0.893
 Vibration    17          0.836              1.296              0.712
 Vibration    18          0.868              1.222              0.627
 Vibration    19          0.903              1.145              0.550
 Vibration    20          0.962              1.024              0.443

 Optimization completed.
    -- Stationary point found.
 Normal termination of Gaussian 16 at Mon May 29 03:00:37 2023.
