 Gaussian 16, Revision A.03,
 Gaussian 16:  ES64L-G16RevA.03 25-Dec-2016

 -----------------------------
 # opt freq b3lyp/6-31g(2df,p)
 -----------------------------

 -------------------
 Title Card Required
 -------------------
 Symbolic Z-matrix:
 Charge =  0 Multiplicity = 1

 SCF Done:  E(RB3LYP) =  -601.107844997     A.U. after   13 cycles
 SCF Done:  E(RB3LYP) =  -601.117109090     A.U. after   11 cycles
 SCF Done:  E(RB3LYP) =  -601.118834304     A.U. after   11 cycles
 SCF Done:  E(RB3LYP) =  -601.119144559     A.U. after   11 cycles
 SCF Done:  E(RB3LYP) =  -601.119386518     A.U. after   10 cycles
 SCF Done:  E(RB3LYP) =  -601.119754348     A.U. after   11 cycles
 SCF Done:  E(RB3LYP) =  -601.117260390     A.U. after   14 cycles
 SCF Done:  E(RB3LYP) =  -601.121165319     A.U. after   12 cycles
 SCF Done:  E(RB3LYP) =  -601.121695611     A.U. after   12 cycles
 SCF Done:  E(RB3LYP) =  -601.121747898     A.U. after    9 cycles
 SCF Done:  E(RB3LYP) =  -601.121761689     A.U. after    9 cycles
 SCF Done:  E(RB3LYP) =  -601.121762569     A.U. after    9 cycles
 SCF Done:  E(RB3LYP) =  -601.121762695     A.U. after    8 cycles
 SCF Done:  E(RB3LYP) =  -601.121762734     A.U. after    6 cycles
 SCF Done:  E(RB3LYP) =  -601.121762778     A.U. after    6 cycles
 SCF Done:  E(RB3LYP) =  -601.121762826     A.U. after    7 cycles
 SCF Done:  E(RB3LYP) =  -601.121762866     A.U. after    7 cycles
 SCF Done:  E(RB3LYP) =  -601.121762893     A.U. after    7 cycles
 SCF Done:  E(RB3LYP) =  -601.121762897     A.U. after    6 cycles
 Optimization completed.
    -- Stationary point found.
 Normal termination of Gaussian 16 at Sat May 27 22:48:32 2023.

 ----------------------------------------------------------------------
 #N Geom=AllCheck Guess=TCheck SCRF=Check GenChk RB3LYP/6-31G(2df,p) Fr
 eq
 ----------------------------------------------------------------------

 Structure from the checkpoint file:  "CCqCrCNdCC1CCCCCCO1.chk"
 -------------------
 Title Card Required
 -------------------
 Charge =  0 Multiplicity = 1

                         Standard orientation:
 ---------------------------------------------------------------------
 Center     Atomic      Atomic             Coordinates (Angstroms)
 Number     Number       Type             X           Y           Z
 ---------------------------------------------------------------------
      1          6           0       -5.388993   -0.252403   -0.435404
      2          6           0       -3.946266    0.267187   -0.448691
      3          6           0       -3.718266    1.304471    0.656803
      4          6           0       -2.956608   -0.906970   -0.338498
      5          7           0       -1.586303   -0.481411   -0.564000
      6          6           0       -0.719125   -0.749533    0.314218
      7          6           0        0.726900   -0.326293    0.172127
      8          6           0        0.903208    1.113385    0.684257
      9          6           0        2.307438    1.730867    0.543720
     10          6           0        3.000225    1.501694   -0.818038
     11          6           0        3.992486    0.326474   -0.864509
     12          6           0        3.464443   -1.103284   -0.647133
     13          6           0        2.868423   -1.410854    0.738905
     14          8           0        1.456057   -1.314663    0.881544
     15          1           0       -6.103517    0.569744   -0.544916
     16          1           0       -5.616158   -0.762673    0.508471
     17          1           0       -5.567770   -0.962937   -1.249559
     18          1           0       -3.757331    0.749807   -1.416391
     19          1           0       -3.890970    0.864866    1.647247
     20          1           0       -4.402293    2.152399    0.547072
     21          1           0       -2.695483    1.690455    0.635162
     22          1           0       -3.202925   -1.640204   -1.118048
     23          1           0       -3.082080   -1.409908    0.637804
     24          1           0       -0.944802   -1.297084    1.243479
     25          1           0        0.968962   -0.350660   -0.896946
     26          1           0        0.583186    1.160725    1.732541
     27          1           0        0.192897    1.720320    0.109006
     28          1           0        2.960616    1.375698    1.348260
     29          1           0        2.199150    2.808124    0.713616
     30          1           0        3.566792    2.403321   -1.077815
     31          1           0        2.246790    1.393198   -1.609229
     32          1           0        4.773068    0.513408   -0.113147
     33          1           0        4.503942    0.350239   -1.834895
     34          1           0        4.317401   -1.780019   -0.778797
     35          1           0        2.748166   -1.386434   -1.427401
     36          1           0        3.371282   -0.790310    1.496522
     37          1           0        3.083557   -2.453338    0.997079
 ---------------------------------------------------------------------

 SCF Done:  E(RB3LYP) =  -601.121762897     A.U. after    1 cycles

 The electronic state is 1-A.
 Alpha  occ. eigenvalues --  -19.13223 -14.31385 -10.22762 -10.22463 -10.21345
 Alpha  occ. eigenvalues --  -10.19765 -10.18239 -10.18167 -10.18152 -10.17960
 Alpha  occ. eigenvalues --  -10.17940 -10.17796 -10.16899 -10.16530  -1.02341
 Alpha  occ. eigenvalues --   -0.91276  -0.80522  -0.79790  -0.78121  -0.72034
 Alpha  occ. eigenvalues --   -0.70555  -0.67719  -0.67181  -0.60466  -0.59980
 Alpha  occ. eigenvalues --   -0.56826  -0.55342  -0.53940  -0.50028  -0.48172
 Alpha  occ. eigenvalues --   -0.46175  -0.44902  -0.44343  -0.43850  -0.43356
 Alpha  occ. eigenvalues --   -0.42890  -0.42188  -0.41857  -0.39953  -0.38037
 Alpha  occ. eigenvalues --   -0.37683  -0.36985  -0.36654  -0.35021  -0.34367
 Alpha  occ. eigenvalues --   -0.33542  -0.32777  -0.32725  -0.32242  -0.31894
 Alpha  occ. eigenvalues --   -0.31407  -0.28906  -0.27855  -0.24919  -0.23614
 Alpha virt. eigenvalues --    0.00546   0.07839   0.09240   0.09666   0.10818
 Alpha virt. eigenvalues --    0.11843   0.12215   0.12949   0.13687   0.14308
 Alpha virt. eigenvalues --    0.15017   0.15361   0.15773   0.16332   0.16768

 Mulliken charges:
               1
     1  C   -0.389615
     2  C    0.049607
     3  C   -0.386746
     4  C   -0.140003
     5  N   -0.167934
     6  C    0.016680
     7  C    0.069726
     8  C   -0.207038
     9  C   -0.213131
    10  C   -0.188304
    11  C   -0.183433
    12  C   -0.222290
    13  C   -0.045587
    14  O   -0.287625
    15  H    0.110890
    16  H    0.111558
    17  H    0.109679
    18  H    0.083140
    19  H    0.106454
    20  H    0.108395
    21  H    0.121830
    22  H    0.101242
    23  H    0.077365
    24  H    0.087879
    25  H    0.084310
    26  H    0.095228
    27  H    0.115795
    28  H    0.100657
    29  H    0.094312
    30  H    0.093799
    31  H    0.100538
    32  H    0.095224
    33  H    0.094290
    34  H    0.098402
    35  H    0.112820
    36  H    0.089136
    37  H    0.102749
 Sum of Mulliken charges =  -0.00000

 Dipole moment (field-independent basis, Debye):
    X=              1.0020    Y=              0.3921    Z=              0.1459  Tot=              1.0858
 Quadrupole moment (field-independent basis, Debye-Ang):
   XX=            -81.5321   YY=            -88.4200   ZZ=            -89.7949
   XY=              0.3724   XZ=             -1.2534   YZ=              0.7906

  Exact polarizability: 180.323  -0.165 128.647   3.461  -0.838 118.830
 Approx polarizability: 210.664  -1.191 183.532  12.031  -5.835 192.007

                      1                      2                      3
                      A                      A                      A
 Frequencies --     12.0190                45.4979                54.0475
 Red. masses --      2.7810                 3.1662                 3.4389
 Frc consts  --      0.0002                 0.0039                 0.0059
 IR Inten    --      0.2516                 0.4734                 0.5430

                      4                      5                      6
                      A                      A                      A
 Frequencies --     70.0273                90.3288               102.4829
 Red. masses --      3.7563                 2.8052                 3.1782
 Frc consts  --      0.0109                 0.0135                 0.0197
 IR Inten    --      0.1794                 0.5901                 8.9115

                      7                      8                      9
                      A                      A                      A
 Frequencies --    194.9902               209.0367               218.8986
 Red. masses --      2.2232                 1.9109                 1.6139
 Frc consts  --      0.0498                 0.0492                 0.0456
 IR Inten    --      0.1364                 1.2943                 0.2986

                     10                     11                     12
                      A                      A                      A
 Frequencies --    229.2064               238.8294               262.4793
 Red. masses --      1.7484                 1.2796                 2.2277
 Frc consts  --      0.0541                 0.0430                 0.0904
 IR Inten    --      1.2514                 3.3051                 4.3917

                     13                     14                     15
                      A                      A                      A
 Frequencies --    284.4918               289.4869               319.5190
 Red. masses --      2.6756                 2.9190                 2.5143
 Frc consts  --      0.1276                 0.1441                 0.1512
 IR Inten    --      0.0846                 1.3539                 1.7791

                     16                     17                     18
                      A                      A                      A
 Frequencies --    358.3234               369.4393               415.9811
 Red. masses --      2.2393                 2.2675                 2.1952
 Frc consts  --      0.1694                 0.1823                 0.2238
 IR Inten    --      0.6217                 0.0302                 0.9903

                     19                     20                     21
                      A                      A                      A
 Frequencies --    435.3282               454.2353               488.6349
 Red. masses --      2.8067                 2.1513                 1.7022
 Frc consts  --      0.3134                 0.2615                 0.2395
 IR Inten    --      0.7681                 0.9879                 0.4418

                     22                     23                     24
                      A                      A                      A
 Frequencies --    495.0708               548.2946               634.7272
 Red. masses --      2.3873                 4.2724                 2.9972
 Frc consts  --      0.3447                 0.7568                 0.7114
 IR Inten    --      4.4294                 0.4854                12.9015

                     25                     26                     27
                      A                      A                      A
 Frequencies --    719.3008               779.0413               807.4133
 Red. masses --      1.9863                 1.9127                 2.1468
 Frc consts  --      0.6055                 0.6839                 0.8246
 IR Inten    --      0.6471                 0.4117                 2.1493

                     28                     29                     30
                      A                      A                      A
 Frequencies --    822.8299               845.0905               888.0641
 Red. masses --      2.3795                 1.9463                 1.8437
 Frc consts  --      0.9492                 0.8190                 0.8567
 IR Inten    --      5.7523                 1.2926                 2.2517

                     31                     32                     33
                      A                      A                      A
 Frequencies --    911.1568               920.4467               927.9655
 Red. masses --      1.7403                 1.5216                 1.2048
 Frc consts  --      0.8513                 0.7595                 0.6113
 IR Inten    --      3.7530                 4.0066                 1.8031

                     34                     35                     36
                      A                      A                      A
 Frequencies --    947.1603               962.1344               973.9242
 Red. masses --      1.9498                 1.6300                 1.9981
 Frc consts  --      1.0306                 0.8890                 1.1167
 IR Inten    --      4.7965                 6.4714                 3.1606

                     37                     38                     39
                      A                      A                      A
 Frequencies --    986.9850               999.8947              1019.1351
 Red. masses --      2.1333                 1.9078                 1.8218
 Frc consts  --      1.2244                 1.1238                 1.1148
 IR Inten    --      8.7579                 6.6025                 1.8475

                     40                     41                     42
                      A                      A                      A
 Frequencies --   1046.4835              1055.0501              1098.0106
 Red. masses --      2.3131                 3.2974                 2.4945
 Frc consts  --      1.4925                 2.1626                 1.7719
 IR Inten    --      2.8819                 8.0817                 2.6976

                     43                     44                     45
                      A                      A                      A
 Frequencies --   1110.6151              1118.2074              1132.7032
 Red. masses --      2.5694                 2.1725                 2.3501
 Frc consts  --      1.8673                 1.6005                 1.7765
 IR Inten    --     15.6580                30.0781                 1.5916

                     46                     47                     48
                      A                      A                      A
 Frequencies --   1147.9970              1152.7523              1179.2795
 Red. masses --      2.2476                 2.8140                 1.5246
 Frc consts  --      1.7452                 2.2031                 1.2492
 IR Inten    --      5.1017               121.3469                28.4546

                     49                     50                     51
                      A                      A                      A
 Frequencies --   1188.6693              1193.4204              1228.4082
 Red. masses --      1.8158                 1.7359                 1.2144
 Frc consts  --      1.5116                 1.4567                 1.0797
 IR Inten    --      2.5112                 3.2349                19.5752

                     52                     53                     54
                      A                      A                      A
 Frequencies --   1250.6674              1266.8521              1276.9164
 Red. masses --      1.3296                 1.2005                 1.2440
 Frc consts  --      1.2253                 1.1352                 1.1950
 IR Inten    --      2.5172                 2.2114                12.6182

                     55                     56                     57
                      A                      A                      A
 Frequencies --   1293.7795              1310.0147              1318.7873
 Red. masses --      1.1869                 1.1794                 1.2430
 Frc consts  --      1.1705                 1.1925                 1.2737
 IR Inten    --      0.6904                12.9360                 3.8268

                     58                     59                     60
                      A                      A                      A
 Frequencies --   1323.8677              1352.7905              1367.2489
 Red. masses --      1.2069                 1.2383                 1.3034
 Frc consts  --      1.2462                 1.3352                 1.4356
 IR Inten    --     16.4320                 8.0370                 5.9515

                     61                     62                     63
                      A                      A                      A
 Frequencies --   1370.2612              1378.1080              1382.1922
 Red. masses --      1.3508                 1.4131                 1.3727
 Frc consts  --      1.4943                 1.5812                 1.5451
 IR Inten    --      3.8660                 1.3802                 1.3079

                     64                     65                     66
                      A                      A                      A
 Frequencies --   1384.2634              1390.1040              1399.2356
 Red. masses --      1.3857                 1.4106                 1.2860
 Frc consts  --      1.5644                 1.6061                 1.4834
 IR Inten    --      3.9602                 3.5299                 2.5262

                     67                     68                     69
                      A                      A                      A
 Frequencies --   1402.1115              1402.8139              1421.0947
 Red. masses --      1.3959                 1.3490                 1.2453
 Frc consts  --      1.6168                 1.5641                 1.4817
 IR Inten    --     20.4069                11.5245                 8.4024

                     70                     71                     72
                      A                      A                      A
 Frequencies --   1427.8611              1474.0880              1481.2643
 Red. masses --      1.2825                 1.0870                 1.0844
 Frc consts  --      1.5405                 1.3917                 1.4019
 IR Inten    --      4.1065                 1.3410                 4.6008

                     73                     74                     75
                      A                      A                      A
 Frequencies --   1482.0173              1485.1038              1488.8269
 Red. masses --      1.0848                 1.0886                 1.0440
 Frc consts  --      1.4038                 1.4146                 1.3635
 IR Inten    --      6.8647                 7.4359                 1.3181

                     76                     77                     78
                      A                      A                      A
 Frequencies --   1494.8122              1497.1221              1497.3493
 Red. masses --      1.0631                 1.0851                 1.0886
 Frc consts  --      1.3995                 1.4330                 1.4380
 IR Inten    --      2.1386                 3.4450                 5.8414

                     79                     80                     81
                      A                      A                      A
 Frequencies --   1503.7932              1511.1829              1523.2297
 Red. masses --      1.0497                 1.0553                 1.0829
 Frc consts  --      1.3986                 1.4199                 1.4804
 IR Inten    --      4.8401                 8.2091                 3.6910

                     82                     83                     84
                      A                      A                      A
 Frequencies --   1764.2246              2936.5774              2981.8213
 Red. masses --      9.3427                 1.0678                 1.0707
 Frc consts  --     17.1328                 5.4255                 5.6090
 IR Inten    --     81.3625                48.2168                46.5070

                     85                     86                     87
                      A                      A                      A
 Frequencies --   2989.9763              3003.3430              3018.1460
 Red. masses --      1.0850                 1.0651                 1.0654
 Frc consts  --      5.7150                 5.6605                 5.7182
 IR Inten    --     37.0835                24.2528                 8.0364

                     88                     89                     90
                      A                      A                      A
 Frequencies --   3019.5175              3019.8402              3022.0897
 Red. masses --      1.0758                 1.0608                 1.0372
 Frc consts  --      5.7788                 5.6999                 5.5811
 IR Inten    --      8.8757                14.3934                21.3360

                     91                     92                     93
                      A                      A                      A
 Frequencies --   3026.4819              3027.8936              3032.5440
 Red. masses --      1.0655                 1.0445                 1.0712
 Frc consts  --      5.7504                 5.6418                 5.8042
 IR Inten    --      5.6672                28.8318                49.3442

                     94                     95                     96
                      A                      A                      A
 Frequencies --   3033.0141              3036.1725              3047.1483
 Red. masses --      1.0893                 1.0775                 1.0936
 Frc consts  --      5.9042                 5.8521                 5.9826
 IR Inten    --     23.1565                 8.7606                53.0480

                     97                     98                     99
                      A                      A                      A
 Frequencies --   3055.9891              3059.0777              3060.6966
 Red. masses --      1.0959                 1.0934                 1.0978
 Frc consts  --      6.0298                 6.0284                 6.0591
 IR Inten    --     32.9217                70.6452                23.1770

                    100                    101                    102
                      A                      A                      A
 Frequencies --   3069.3162              3078.4363              3086.1053
 Red. masses --      1.0991                 1.1003                 1.0994
 Frc consts  --      6.1008                 6.1436                 6.1693
 IR Inten    --     42.1046                76.1046                 8.2868

                    103                    104                    105
                      A                      A                      A
 Frequencies --   3092.1829              3099.0287              3112.3691
 Red. masses --      1.0995                 1.1011                 1.1000
 Frc consts  --      6.1940                 6.2305                 6.2783
 IR Inten    --     58.8269                37.7086                31.8539

 - Thermochemistry -
 -------------------
 Temperature   298.150 Kelvin.  Pressure   1.00000 Atm.
 Atom     1 has atomic number  6 and mass  12.00000

 Molecular mass:   197.17796 amu.
 Principal axes and moments of inertia in atomic units:
                           1         2         3
     Eigenvalues --  1204.545576794.046347302.60830
           X            0.99999   0.00110  -0.00407
           Y           -0.00102   0.99978   0.02084
           Z            0.00409  -0.02084   0.99977
 This molecule is an asymmetric top.
 Rotational symmetry number  1.
 Warning -- assumption of classical behavior for rotation
           may cause significant error
 Rotational temperatures (Kelvin)      0.07191     0.01275     0.01186
 Rotational constants (GHZ):           1.49828     0.26564     0.24714
 Zero-point vibrational energy     884119.7 (Joules/Mol)
                                  211.30967 (Kcal/Mol)
 Warning -- explicit consideration of  23 degrees of freedom as
           vibrations may cause significant error
 Vibrational temperatures:     17.29    65.46    77.76   100.75   129.96
          (Kelvin)            147.45   280.55   300.76   314.95   329.78
                              343.62   377.65   409.32   416.51   459.72
                              515.55   531.54   598.50   626.34   653.54
                              703.04   712.30   788.87   913.23  1034.91
                             1120.87  1161.69  1183.87  1215.90  1277.73
                             1310.95  1324.32  1335.14  1362.75  1384.30
                             1401.26  1420.05  1438.63  1466.31  1505.66
                             1517.98  1579.79  1597.93  1608.85  1629.71
                             1651.71  1658.55  1696.72  1710.23  1717.07
                             1767.41  1799.43  1822.72  1837.20  1861.46
                             1884.82  1897.44  1904.75  1946.36  1967.17
                             1971.50  1982.79  1988.67  1991.65  2000.05
                             2013.19  2017.33  2018.34  2044.64  2054.37
                             2120.88  2131.21  2132.29  2136.73  2142.09
                             2150.70  2154.02  2154.35  2163.62  2174.26
                             2191.59  2538.33  4225.08  4290.18  4301.91
                             4321.14  4342.44  4344.41  4344.88  4348.11
                             4354.43  4356.46  4363.15  4363.83  4368.38
                             4384.17  4396.89  4401.33  4403.66  4416.06
                             4429.18  4440.22  4448.96  4458.81  4478.00

 Zero-point correction=                           0.336743 (Hartree/Particle)
 Thermal correction to Energy=                    0.352507
 Thermal correction to Enthalpy=                  0.353451
 Thermal correction to Gibbs Free Energy=         0.292141
 Sum of electronic and zero-point Energies=           -600.785019
 Sum of electronic and thermal Energies=              -600.769256
 Sum of electronic and thermal Enthalpies=            -600.768312
 Sum of electronic and thermal Free Energies=         -600.829621

                     E (Thermal)             CV                S
                      KCal/Mol        Cal/Mol-Kelvin    Cal/Mol-Kelvin
 Total                  221.201             59.451            129.036
 Electronic               0.000              0.000              0.000
 Translational            0.889              2.981             41.742
 Rotational               0.889              2.981             32.458
 Vibrational            219.424             53.490             54.837
 Vibration     1          0.593              1.987              7.646
 Vibration     2          0.595              1.979              5.004
 Vibration     3          0.596              1.976              4.664
 Vibration     4          0.598              1.968              4.153
 Vibration     5          0.602              1.956              3.653
 Vibration     6          0.605              1.947              3.407
 Vibration     7          0.636              1.847              2.180
 Vibration     8          0.642              1.827              2.052
 Vibration     9          0.647              1.812              1.968
 Vibration    10          0.652              1.796              1.885
 Vibration    11          0.657              1.781              1.812
 Vibration    12          0.670              1.742              1.645
 Vibration    13          0.683              1.702              1.507
 Vibration    14          0.686              1.693              1.477
 Vibration    15          0.705              1.636              1.313
 Vibration    16          0.733              1.558              1.129
 Vibration    17          0.742              1.535              1.082
 Vibration    18          0.779              1.436              0.906
 Vibration    19          0.796              1.393              0.841
 Vibration    20          0.813              1.352              0.783
 Vibration    21          0.845              1.275              0.687
 Vibration    22          0.851              1.261              0.671
 Vibration    23          0.904              1.143              0.548

 Optimization completed.
    -- Stationary point found.
 Normal termination of Gaussian 16 at Sun May 28 01:03:20 2023.
