 Gaussian 16, Revision A.03,
 Gaussian 16:  ES64L-G16RevA.03 25-Dec-2016

 -----------------------------
 # opt freq b3lyp/6-31g(2df,p)
 -----------------------------

 -------------------
 Title Card Required
 -------------------
 Symbolic Z-matrix:
 Charge =  0 Multiplicity = 1

 SCF Done:  E(RB3LYP) =  -353.834951837     A.U. after   12 cycles
 SCF Done:  E(RB3LYP) =  -353.837672518     A.U. after   10 cycles
 SCF Done:  E(RB3LYP) =  -353.837997907     A.U. after    8 cycles
 SCF Done:  E(RB3LYP) =  -353.838099853     A.U. after    9 cycles
 SCF Done:  E(RB3LYP) =  -353.838107584     A.U. after    8 cycles
 SCF Done:  E(RB3LYP) =  -353.838109805     A.U. after    6 cycles
 SCF Done:  E(RB3LYP) =  -353.838110667     A.U. after    6 cycles
 SCF Done:  E(RB3LYP) =  -353.838112218     A.U. after    8 cycles
 SCF Done:  E(RB3LYP) =  -353.838112180     A.U. after    6 cycles
 SCF Done:  E(RB3LYP) =  -353.838114479     A.U. after    6 cycles
 SCF Done:  E(RB3LYP) =  -353.838252063     A.U. after    8 cycles
 SCF Done:  E(RB3LYP) =  -353.838206601     A.U. after    8 cycles
 SCF Done:  E(RB3LYP) =  -353.838300015     A.U. after    9 cycles
 SCF Done:  E(RB3LYP) =  -353.838298036     A.U. after    9 cycles
 SCF Done:  E(RB3LYP) =  -353.838312376     A.U. after    9 cycles
 SCF Done:  E(RB3LYP) =  -353.838313755     A.U. after    8 cycles
 SCF Done:  E(RB3LYP) =  -353.838313862     A.U. after    7 cycles
 SCF Done:  E(RB3LYP) =  -353.838313875     A.U. after    5 cycles
 SCF Done:  E(RB3LYP) =  -353.838313901     A.U. after    5 cycles
 Optimization completed.
    -- Stationary point found.
 Normal termination of Gaussian 16 at Mon May 29 00:08:01 2023.

 ----------------------------------------------------------------------
 #N Geom=AllCheck Guess=TCheck SCRF=Check GenChk RB3LYP/6-31G(2df,p) Fr
 eq
 ----------------------------------------------------------------------

 Structure from the checkpoint file:  "CCqCrqCrC1CCCC1.chk"
 -------------------
 Title Card Required
 -------------------
 Charge =  0 Multiplicity = 1

                         Standard orientation:
 ---------------------------------------------------------------------
 Center     Atomic      Atomic             Coordinates (Angstroms)
 Number     Number       Type             X           Y           Z
 ---------------------------------------------------------------------
      1          6           0       -1.457857   -0.138871    1.529227
      2          6           0       -1.306992    0.004074    0.002405
      3          6           0       -2.005909   -1.187219   -0.682983
      4          6           0       -2.010136    1.301986   -0.442820
      5          6           0        0.179457    0.046307   -0.452182
      6          6           0        1.041080    1.211049    0.086516
      7          6           0        2.479282    0.749894   -0.184067
      8          6           0        2.453414   -0.737856    0.211360
      9          6           0        1.026795   -1.230894   -0.154243
     10          1           0       -2.518325   -0.191657    1.799116
     11          1           0       -1.028819    0.713624    2.064495
     12          1           0       -0.981556   -1.048241    1.908580
     13          1           0       -3.071296   -1.211839   -0.428366
     14          1           0       -1.570514   -2.143631   -0.377393
     15          1           0       -1.926189   -1.116602   -1.773830
     16          1           0       -3.078430    1.266713   -0.201954
     17          1           0       -1.918224    1.450822   -1.524739
     18          1           0       -1.588908    2.181668    0.053481
     19          1           0        0.150775    0.164353   -1.544920
     20          1           0        0.895263    1.335387    1.166832
     21          1           0        0.803483    2.168390   -0.385486
     22          1           0        3.230620    1.326120    0.364166
     23          1           0        2.705826    0.854807   -1.252744
     24          1           0        2.616380   -0.831034    1.291036
     25          1           0        3.239511   -1.320727   -0.276840
     26          1           0        0.601930   -1.817444    0.665037
     27          1           0        1.043670   -1.891518   -1.025750
 ---------------------------------------------------------------------

 SCF Done:  E(RB3LYP) =  -353.838313901     A.U. after    1 cycles

 The electronic state is 1-A.
 Alpha  occ. eigenvalues --  -10.18819 -10.17477 -10.17114 -10.17093 -10.16905
 Alpha  occ. eigenvalues --  -10.16877 -10.16547 -10.16486 -10.16477  -0.83619
 Alpha  occ. eigenvalues --   -0.79265  -0.70167  -0.69007  -0.67758  -0.67341
 Alpha  occ. eigenvalues --   -0.57735  -0.55998  -0.51657  -0.47263  -0.46847
 Alpha  occ. eigenvalues --   -0.43467  -0.42691  -0.41398  -0.40740  -0.38866
 Alpha  occ. eigenvalues --   -0.37912  -0.36343  -0.35757  -0.34060  -0.33091
 Alpha  occ. eigenvalues --   -0.32480  -0.32416  -0.31352  -0.29795  -0.29721
 Alpha  occ. eigenvalues --   -0.29578
 Alpha virt. eigenvalues --    0.07303   0.09604   0.10466   0.12396   0.13489
 Alpha virt. eigenvalues --    0.14242   0.14626   0.15577   0.16250   0.17064
 Alpha virt. eigenvalues --    0.17702   0.18547   0.18866   0.19843   0.20592

 Mulliken charges:
               1
     1  C   -0.410972
     2  C    0.238192
     3  C   -0.404647
     4  C   -0.405567
     5  C    0.074269
     6  C   -0.232063
     7  C   -0.201170
     8  C   -0.202577
     9  C   -0.232482
    10  H    0.107765
    11  H    0.111062
    12  H    0.110432
    13  H    0.104155
    14  H    0.111216
    15  H    0.104772
    16  H    0.104081
    17  H    0.104595
    18  H    0.111059
    19  H    0.061081
    20  H    0.093974
    21  H    0.091581
    22  H    0.088421
    23  H    0.092983
    24  H    0.095755
    25  H    0.091358
    26  H    0.096704
    27  H    0.096021
 Sum of Mulliken charges =   0.00000

 Dipole moment (field-independent basis, Debye):
    X=              0.0464    Y=              0.0097    Z=             -0.0291  Tot=              0.0556
 Quadrupole moment (field-independent basis, Debye-Ang):
   XX=            -60.3089   YY=            -60.2680   ZZ=            -59.2542
   XY=             -0.0024   XZ=             -0.2336   YZ=              0.0314

  Exact polarizability: 106.726  -0.046  91.622   0.241   0.150  86.502
 Approx polarizability: 135.014  -0.028 131.563  -0.521   0.069 132.928

                      1                      2                      3
                      A                      A                      A
 Frequencies --     29.7387                87.1080               196.1033
 Red. masses --      2.1308                 2.1530                 2.0933
 Frc consts  --      0.0011                 0.0096                 0.0474
 IR Inten    --      0.0033                 0.0004                 0.0110

                      4                      5                      6
                      A                      A                      A
 Frequencies --    216.9007               226.2584               255.9425
 Red. masses --      1.2497                 1.6990                 1.0675
 Frc consts  --      0.0346                 0.0512                 0.0412
 IR Inten    --      0.0010                 0.0158                 0.0044

                      7                      8                      9
                      A                      A                      A
 Frequencies --    268.5302               299.0122               326.6241
 Red. masses --      1.1623                 1.9718                 2.5824
 Frc consts  --      0.0494                 0.1039                 0.1623
 IR Inten    --      0.0378                 0.0332                 0.0033

                     10                     11                     12
                      A                      A                      A
 Frequencies --    345.7222               379.6057               445.7723
 Red. masses --      2.2860                 2.1236                 2.6692
 Frc consts  --      0.1610                 0.1803                 0.3125
 IR Inten    --      0.0186                 0.0258                 0.0057

                     13                     14                     15
                      A                      A                      A
 Frequencies --    504.1894               537.6341               598.5785
 Red. masses --      2.1363                 2.0951                 2.3113
 Frc consts  --      0.3200                 0.3568                 0.4879
 IR Inten    --      0.7562                 0.7995                 0.2636

                     16                     17                     18
                      A                      A                      A
 Frequencies --    738.1411               801.2512               840.2690
 Red. masses --      2.1598                 1.6230                 2.2740
 Frc consts  --      0.6933                 0.6139                 0.9460
 IR Inten    --      0.1529                 0.3222                 0.7630

                     19                     20                     21
                      A                      A                      A
 Frequencies --    867.0725               907.2155               929.5312
 Red. masses --      2.1216                 2.6466                 1.8642
 Frc consts  --      0.9398                 1.2834                 0.9490
 IR Inten    --      0.8241                 0.7761                 0.2478

                     22                     23                     24
                      A                      A                      A
 Frequencies --    933.0807               937.3563               956.6597
 Red. masses --      1.7267                 1.7153                 1.2226
 Frc consts  --      0.8858                 0.8880                 0.6593
 IR Inten    --      0.3846                 0.9363                 0.0716

                     25                     26                     27
                      A                      A                      A
 Frequencies --    963.3768               980.6784              1019.6301
 Red. masses --      1.5881                 1.9574                 1.4732
 Frc consts  --      0.8684                 1.1091                 0.9024
 IR Inten    --      1.2529                 1.3655                 0.0325

                     28                     29                     30
                      A                      A                      A
 Frequencies --   1031.3245              1036.6993              1054.4291
 Red. masses --      1.5277                 1.3829                 1.8013
 Frc consts  --      0.9574                 0.8757                 1.1800
 IR Inten    --      0.0488                 0.0409                 0.9882

                     31                     32                     33
                      A                      A                      A
 Frequencies --   1101.3655              1156.9665              1192.4009
 Red. masses --      2.6288                 1.4000                 1.5132
 Frc consts  --      1.8788                 1.1041                 1.2676
 IR Inten    --      0.3350                 0.2889                 2.0335

                     34                     35                     36
                      A                      A                      A
 Frequencies --   1228.8124              1239.8924              1242.6163
 Red. masses --      1.7770                 1.9071                 2.0718
 Frc consts  --      1.5809                 1.7274                 1.8848
 IR Inten    --      1.7983                 2.1869                 5.7058

                     37                     38                     39
                      A                      A                      A
 Frequencies --   1267.3751              1276.7138              1302.8935
 Red. masses --      1.4882                 2.1058                 1.2858
 Frc consts  --      1.4084                 2.0223                 1.2860
 IR Inten    --      4.2752                 5.4719                 0.2325

                     40                     41                     42
                      A                      A                      A
 Frequencies --   1327.3479              1333.7690              1347.4753
 Red. masses --      1.2491                 1.3494                 1.3366
 Frc consts  --      1.2967                 1.4144                 1.4299
 IR Inten    --      0.5542                 0.2674                 0.7178

                     43                     44                     45
                      A                      A                      A
 Frequencies --   1353.6969              1379.4841              1398.5345
 Red. masses --      1.3215                 1.4767                 1.2303
 Frc consts  --      1.4268                 1.6556                 1.4177
 IR Inten    --      0.7161                 0.5364                 5.1081

                     46                     47                     48
                      A                      A                      A
 Frequencies --   1400.0730              1432.0555              1479.1500
 Red. masses --      1.2411                 1.2280                 1.0545
 Frc consts  --      1.4334                 1.4838                 1.3593
 IR Inten    --      7.3873                 5.9915                 0.2994

                     49                     50                     51
                      A                      A                      A
 Frequencies --   1485.0586              1486.6744              1489.8557
 Red. masses --      1.0516                 1.0471                 1.0794
 Frc consts  --      1.3665                 1.3635                 1.4117
 IR Inten    --      0.1138                 0.0244                 0.1954

                     52                     53                     54
                      A                      A                      A
 Frequencies --   1492.0673              1495.8859              1507.0061
 Red. masses --      1.0787                 1.0823                 1.0675
 Frc consts  --      1.4149                 1.4269                 1.4284
 IR Inten    --      2.5602                 0.6020                 3.2076

                     55                     56                     57
                      A                      A                      A
 Frequencies --   1508.2714              1517.7910              1518.8891
 Red. masses --      1.0603                 1.0864                 1.0696
 Frc consts  --      1.4211                 1.4745                 1.4538
 IR Inten    --      3.6149                 4.0113                 5.5045

                     58                     59                     60
                      A                      A                      A
 Frequencies --   2988.1993              3021.6572              3024.4659
 Red. masses --      1.0829                 1.0353                 1.0656
 Frc consts  --      5.6970                 5.5692                 5.7429
 IR Inten    --     18.2785                21.5743                22.3271

                     61                     62                     63
                      A                      A                      A
 Frequencies --   3025.3230              3031.0199              3035.8157
 Red. masses --      1.0387                 1.0549                 1.0449
 Frc consts  --      5.6014                 5.7100                 5.6736
 IR Inten    --     34.1695                13.2769                32.2715

                     64                     65                     66
                      A                      A                      A
 Frequencies --   3036.8431              3054.5893              3077.2259
 Red. masses --      1.0624                 1.0634                 1.0944
 Frc consts  --      5.7728                 5.8460                 6.1060
 IR Inten    --     27.6203                35.4388                18.2873

                     67                     68                     69
                      A                      A                      A
 Frequencies --   3082.5058              3085.2663              3087.6569
 Red. masses --      1.0973                 1.1016                 1.1018
 Frc consts  --      6.1430                 6.1781                 6.1886
 IR Inten    --     24.2904                 1.8314                17.8642

                     70                     71                     72
                      A                      A                      A
 Frequencies --   3089.8769              3094.6049              3099.1982
 Red. masses --      1.1010                 1.1000                 1.1020
 Frc consts  --      6.1932                 6.2068                 6.2365
 IR Inten    --     25.6728                73.2002                50.8699

                     73                     74                     75
                      A                      A                      A
 Frequencies --   3100.1738              3102.4747              3106.6527
 Red. masses --      1.1025                 1.0997                 1.1001
 Frc consts  --      6.2428                 6.2364                 6.2558
 IR Inten    --     38.7192                56.7850                41.2111

 - Thermochemistry -
 -------------------
 Temperature   298.150 Kelvin.  Pressure   1.00000 Atm.
 Atom     1 has atomic number  6 and mass  12.00000

 Molecular mass:   126.14085 amu.
 Principal axes and moments of inertia in atomic units:
                           1         2         3
     Eigenvalues --   672.789371638.593431841.40569
           X            1.00000  -0.00034   0.00106
           Y            0.00034   1.00000  -0.00018
           Z           -0.00106   0.00018   1.00000
 This molecule is an asymmetric top.
 Rotational symmetry number  1.
 Warning -- assumption of classical behavior for rotation
           may cause significant error
 Rotational temperatures (Kelvin)      0.12874     0.05286     0.04704
 Rotational constants (GHZ):           2.68248     1.10140     0.98009
 Zero-point vibrational energy     662851.4 (Joules/Mol)
                                  158.42530 (Kcal/Mol)
 Warning -- explicit consideration of  15 degrees of freedom as
           vibrations may cause significant error
 Vibrational temperatures:     42.79   125.33   282.15   312.07   325.54
          (Kelvin)            368.24   386.35   430.21   469.94   497.42
                              546.17   641.37   725.42   773.54   861.22
                             1062.02  1152.82  1208.96  1247.52  1305.28
                             1337.39  1342.49  1348.65  1376.42  1386.08
                             1410.98  1467.02  1483.85  1491.58  1517.09
                             1584.62  1664.62  1715.60  1767.99  1783.93
                             1787.85  1823.47  1836.91  1874.57  1909.76
                             1919.00  1938.72  1947.67  1984.77  2012.18
                             2014.39  2060.41  2128.17  2136.67  2138.99
                             2143.57  2146.75  2152.25  2168.25  2170.07
                             2183.76  2185.34  4299.35  4347.49  4351.53
                             4352.76  4360.96  4367.86  4369.34  4394.87
                             4427.44  4435.04  4439.01  4442.45  4445.64
                             4452.45  4459.05  4460.46  4463.77  4469.78

 Zero-point correction=                           0.252467 (Hartree/Particle)
 Thermal correction to Energy=                    0.262864
 Thermal correction to Enthalpy=                  0.263808
 Thermal correction to Gibbs Free Energy=         0.217042
 Sum of electronic and zero-point Energies=           -353.585847
 Sum of electronic and thermal Energies=              -353.575450
 Sum of electronic and thermal Enthalpies=            -353.574506
 Sum of electronic and thermal Free Energies=         -353.621271

                     E (Thermal)             CV                S
                      KCal/Mol        Cal/Mol-Kelvin    Cal/Mol-Kelvin
 Total                  164.949             40.497             98.426
 Electronic               0.000              0.000              0.000
 Translational            0.889              2.981             40.410
 Rotational               0.889              2.981             29.097
 Vibrational            163.172             34.536             28.918
 Vibration     1          0.594              1.984              5.847
 Vibration     2          0.601              1.958              3.724
 Vibration     3          0.636              1.845              2.169
 Vibration     4          0.646              1.815              1.985
 Vibration     5          0.650              1.801              1.908
 Vibration     6          0.666              1.753              1.689
 Vibration     7          0.673              1.731              1.606
 Vibration     8          0.692              1.676              1.422
 Vibration     9          0.710              1.622              1.277
 Vibration    10          0.724              1.584              1.186
 Vibration    11          0.750              1.514              1.041
 Vibration    12          0.805              1.370              0.809
 Vibration    13          0.859              1.241              0.648
 Vibration    14          0.893              1.167              0.570
 Vibration    15          0.957              1.035              0.452

 Optimization completed.
    -- Stationary point found.
 Normal termination of Gaussian 16 at Mon May 29 00:59:10 2023.
