 Gaussian 16, Revision A.03,
 Gaussian 16:  ES64L-G16RevA.03 25-Dec-2016

 -----------------------------
 # opt freq b3lyp/6-31g(2df,p)
 -----------------------------

 -------------------
 Title Card Required
 -------------------
 Symbolic Z-matrix:
 Charge =  0 Multiplicity = 1

 SCF Done:  E(RB3LYP) =  -237.103251850     A.U. after   11 cycles
 SCF Done:  E(RB3LYP) =  -237.103738417     A.U. after    8 cycles
 SCF Done:  E(RB3LYP) =  -237.103781116     A.U. after    8 cycles
 SCF Done:  E(RB3LYP) =  -237.103783915     A.U. after    6 cycles
 SCF Done:  E(RB3LYP) =  -237.103784644     A.U. after    6 cycles
 Optimization completed.
    -- Stationary point found.
 Normal termination of Gaussian 16 at Sun May 28 01:31:25 2023.

 ----------------------------------------------------------------------
 #N Geom=AllCheck Guess=TCheck SCRF=Check GenChk RB3LYP/6-31G(2df,p) Fr
 eq
 ----------------------------------------------------------------------

 Structure from the checkpoint file:  "CCqCrCqCrC.chk"
 -------------------
 Title Card Required
 -------------------
 Charge =  0 Multiplicity = 1

                         Standard orientation:
 ---------------------------------------------------------------------
 Center     Atomic      Atomic             Coordinates (Angstroms)
 Number     Number       Type             X           Y           Z
 ---------------------------------------------------------------------
      1          6           0       -1.515422    1.253718   -0.053821
      2          6           0       -0.707022    0.000000    0.317890
      3          6           0       -1.515421   -1.253718   -0.053821
      4          6           0        0.707022    0.000000   -0.317890
      5          6           0        1.515422    1.253718    0.053821
      6          6           0        1.515421   -1.253718    0.053821
      7          1           0       -2.522773    1.203118    0.372411
      8          1           0       -1.623465    1.341171   -1.142157
      9          1           0       -1.052244    2.173800    0.310760
     10          1           0       -0.571194    0.000000    1.410563
     11          1           0       -1.623467   -1.341171   -1.142156
     12          1           0       -2.522772   -1.203119    0.372413
     13          1           0       -1.052243   -2.173800    0.310758
     14          1           0        0.571194    0.000000   -1.410563
     15          1           0        1.623466    1.341171    1.142157
     16          1           0        1.052244    2.173800   -0.310759
     17          1           0        2.522772    1.203118   -0.372412
     18          1           0        1.623466   -1.341171    1.142157
     19          1           0        2.522772   -1.203119   -0.372412
     20          1           0        1.052243   -2.173800   -0.310759
 ---------------------------------------------------------------------

 SCF Done:  E(RB3LYP) =  -237.103784644     A.U. after    1 cycles

 The electronic state is 1-A.
 Alpha  occ. eigenvalues --  -10.18098 -10.18079 -10.16639 -10.16639 -10.16638
 Alpha  occ. eigenvalues --  -10.16638  -0.81231  -0.74201  -0.68637  -0.66276
 Alpha  occ. eigenvalues --   -0.60297  -0.54296  -0.45136  -0.44941  -0.42471
 Alpha  occ. eigenvalues --   -0.41615  -0.38659  -0.38262  -0.37218  -0.35730
 Alpha  occ. eigenvalues --   -0.35021  -0.33491  -0.31341  -0.30706  -0.30186
 Alpha virt. eigenvalues --    0.08220   0.11537   0.12831   0.13181   0.14099
 Alpha virt. eigenvalues --    0.16091   0.16287   0.17765   0.17852   0.18628
 Alpha virt. eigenvalues --    0.18860   0.20336   0.20478   0.22910   0.23439

 Mulliken charges:
               1
     1  C   -0.395369
     2  C    0.066448
     3  C   -0.395369
     4  C    0.066448
     5  C   -0.395369
     6  C   -0.395369
     7  H    0.107162
     8  H    0.108977
     9  H    0.113241
    10  H    0.065529
    11  H    0.108977
    12  H    0.107162
    13  H    0.113241
    14  H    0.065529
    15  H    0.108977
    16  H    0.113241
    17  H    0.107162
    18  H    0.108977
    19  H    0.107162
    20  H    0.113241
 Sum of Mulliken charges =  -0.00000

 Dipole moment (field-independent basis, Debye):
    X=             -0.0000    Y=              0.0000    Z=              0.0000  Tot=              0.0000
 Quadrupole moment (field-independent basis, Debye-Ang):
   XX=            -41.8274   YY=            -42.0829   ZZ=            -41.0048
   XY=              0.0000   XZ=             -0.2799   YZ=             -0.0000

  Exact polarizability:  72.884   0.000  68.745  -0.141  -0.000  58.959
 Approx polarizability:  92.799   0.000  90.325  -0.406  -0.000  91.254

                      1                      2                      3
                      A                      A                      A
 Frequencies --     59.7520               199.4491               200.6184
 Red. masses --      2.2937                 1.3981                 1.0276
 Frc consts  --      0.0048                 0.0328                 0.0244
 IR Inten    --      0.0005                 0.0236                 0.0000

                      4                      5                      6
                      A                      A                      A
 Frequencies --    217.7298               238.9196               308.0076
 Red. masses --      1.0567                 1.1910                 1.6419
 Frc consts  --      0.0295                 0.0401                 0.0918
 IR Inten    --      0.0409                 0.0000                 0.0007

                      7                      8                      9
                      A                      A                      A
 Frequencies --    347.7352               386.8495               407.7787
 Red. masses --      2.0212                 1.9323                 1.9935
 Frc consts  --      0.1440                 0.1704                 0.1953
 IR Inten    --      0.1383                 0.0000                 0.0642

                     10                     11                     12
                      A                      A                      A
 Frequencies --    425.6952               496.2490               755.4424
 Red. masses --      2.7918                 2.2430                 2.1253
 Frc consts  --      0.2981                 0.3254                 0.7146
 IR Inten    --      0.0000                 0.0000                 0.0000

                     13                     14                     15
                      A                      A                      A
 Frequencies --    875.9985               924.0256               929.0008
 Red. masses --      2.5548                 1.1614                 1.1759
 Frc consts  --      1.1551                 0.5842                 0.5979
 IR Inten    --      1.4831                 0.0000                 1.4046

                     16                     17                     18
                      A                      A                      A
 Frequencies --    949.7830               960.0249               972.8737
 Red. masses --      1.9588                 1.5079                 1.3773
 Frc consts  --      1.0411                 0.8188                 0.7681
 IR Inten    --      0.0000                 0.0000                 0.2454

                     19                     20                     21
                      A                      A                      A
 Frequencies --   1002.3479              1079.0078              1173.5405
 Red. masses --      1.1801                 2.5466                 2.0427
 Frc consts  --      0.6986                 1.7469                 1.6575
 IR Inten    --      4.5373                 2.4721                 0.0000

                     22                     23                     24
                      A                      A                      A
 Frequencies --   1178.0458              1194.7618              1214.2359
 Red. masses --      1.8835                 1.6874                 2.0570
 Frc consts  --      1.5401                 1.4192                 1.7868
 IR Inten    --      8.0001                 0.0000                 0.0000

                     25                     26                     27
                      A                      A                      A
 Frequencies --   1310.4288              1341.1057              1354.9636
 Red. masses --      1.3815                 1.2762                 1.4244
 Frc consts  --      1.3978                 1.3524                 1.5408
 IR Inten    --      8.0528                 5.6243                 0.0000

                     28                     29                     30
                      A                      A                      A
 Frequencies --   1378.2381              1396.6092              1402.6251
 Red. masses --      1.4312                 1.2781                 1.2261
 Frc consts  --      1.6017                 1.4688                 1.4212
 IR Inten    --      0.0000                 0.0000                 4.6101

                     31                     32                     33
                      A                      A                      A
 Frequencies --   1417.0158              1425.1195              1484.0754
 Red. masses --      1.2353                 1.2096                 1.0510
 Frc consts  --      1.4615                 1.4474                 1.3639
 IR Inten    --      8.5626                 0.0000                 0.7233

                     34                     35                     36
                      A                      A                      A
 Frequencies --   1485.7649              1491.9082              1502.4388
 Red. masses --      1.0425                 1.0502                 1.0408
 Frc consts  --      1.3558                 1.3773                 1.3843
 IR Inten    --      0.0000                 0.0000                12.7804

                     37                     38                     39
                      A                      A                      A
 Frequencies --   1505.4971              1506.0690              1509.7571
 Red. masses --      1.0729                 1.0411                 1.0466
 Frc consts  --      1.4328                 1.3914                 1.4055
 IR Inten    --      0.0000                 3.5998                12.1520

                     40                     41                     42
                      A                      A                      A
 Frequencies --   1525.5809              2976.8003              2991.2763
 Red. masses --      1.0499                 1.0792                 1.0842
 Frc consts  --      1.4397                 5.6346                 5.7158
 IR Inten    --      0.0000                 0.0000                35.6595

                     43                     44                     45
                      A                      A                      A
 Frequencies --   3023.6306              3024.4611              3028.3762
 Red. masses --      1.0378                 1.0394                 1.0384
 Frc consts  --      5.5902                 5.6020                 5.6110
 IR Inten    --      0.0000                39.7688                64.9217

                     46                     47                     48
                      A                      A                      A
 Frequencies --   3030.5273              3085.1577              3085.2497
 Red. masses --      1.0403                 1.0995                 1.0996
 Frc consts  --      5.6293                 6.1660                 6.1669
 IR Inten    --      0.0000                 0.9288                 0.0000

                     49                     50                     51
                      A                      A                      A
 Frequencies --   3091.4725              3092.9444              3105.5881
 Red. masses --      1.0987                 1.0985                 1.1005
 Frc consts  --      6.1867                 6.1915                 6.2533
 IR Inten    --      0.0000               134.8568                 0.0000

                     52                     53                     54
                      A                      A                      A
 Frequencies --   3108.9253              3118.8900              3119.6065
 Red. masses --      1.1000                 1.0974                 1.0975
 Frc consts  --      6.2644                 6.2893                 6.2928
 IR Inten    --     72.9886                60.2342                 0.0000

 - Thermochemistry -
 -------------------
 Temperature   298.150 Kelvin.  Pressure   1.00000 Atm.
 Atom     1 has atomic number  6 and mass  12.00000

 Molecular mass:    86.10955 amu.
 Principal axes and moments of inertia in atomic units:
                           1         2         3
     Eigenvalues --   429.81890 629.98706 968.53949
           X            0.99999   0.00000   0.00486
           Y           -0.00000   1.00000  -0.00000
           Z           -0.00486   0.00000   0.99999
 This molecule is an asymmetric top.
 Rotational symmetry number  1.
 Rotational temperatures (Kelvin)      0.20151     0.13749     0.08943
 Rotational constants (GHZ):           4.19884     2.86473     1.86336
 Zero-point vibrational energy     492969.0 (Joules/Mol)
                                  117.82241 (Kcal/Mol)
 Warning -- explicit consideration of  11 degrees of freedom as
           vibrations may cause significant error
 Vibrational temperatures:     85.97   286.96   288.65   313.26   343.75
          (Kelvin)            443.15   500.31   556.59   586.70   612.48
                              713.99  1086.91  1260.37  1329.47  1336.62
                             1366.53  1381.26  1399.75  1442.16  1552.45
                             1688.46  1694.95  1719.00  1747.01  1885.41
                             1929.55  1949.49  1982.98  2009.41  2018.06
                             2038.77  2050.43  2135.25  2137.68  2146.52
                             2161.67  2166.07  2166.90  2172.20  2194.97
                             4282.95  4303.78  4350.33  4351.52  4357.16
                             4360.25  4438.85  4438.99  4447.94  4450.06
                             4468.25  4473.05  4487.39  4488.42

 Zero-point correction=                           0.187762 (Hartree/Particle)
 Thermal correction to Energy=                    0.196093
 Thermal correction to Enthalpy=                  0.197037
 Thermal correction to Gibbs Free Energy=         0.155957
 Sum of electronic and zero-point Energies=           -236.916023
 Sum of electronic and thermal Energies=              -236.907692
 Sum of electronic and thermal Enthalpies=            -236.906748
 Sum of electronic and thermal Free Energies=         -236.947827

                     E (Thermal)             CV                S
                      KCal/Mol        Cal/Mol-Kelvin    Cal/Mol-Kelvin
 Total                  123.050             30.566             86.459
 Electronic               0.000              0.000              0.000
 Translational            0.889              2.981             39.272
 Rotational               0.889              2.981             27.064
 Vibrational            121.272             24.605             20.123
 Vibration     1          0.597              1.973              4.465
 Vibration     2          0.638              1.841              2.138
 Vibration     3          0.638              1.839              2.127
 Vibration     4          0.646              1.814              1.978
 Vibration     5          0.657              1.781              1.811
 Vibration     6          0.698              1.658              1.373
 Vibration     7          0.725              1.580              1.176
 Vibration     8          0.755              1.498              1.012
 Vibration     9          0.772              1.453              0.934
 Vibration    10          0.788              1.414              0.873
 Vibration    11          0.852              1.258              0.668

 Optimization completed.
    -- Stationary point found.
 Normal termination of Gaussian 16 at Sun May 28 01:49:06 2023.
