 Gaussian 16, Revision A.03,
 Gaussian 16:  ES64L-G16RevA.03 25-Dec-2016

 -----------------------------
 # opt freq b3lyp/6-31g(2df,p)
 -----------------------------

 -------------------
 Title Card Required
 -------------------
 Symbolic Z-matrix:
 Charge =  0 Multiplicity = 1

 SCF Done:  E(RB3LYP) =  -685.513217200     A.U. after   14 cycles
 SCF Done:  E(RB3LYP) =  -685.525410776     A.U. after   14 cycles
 SCF Done:  E(RB3LYP) =  -685.529761074     A.U. after   13 cycles
 SCF Done:  E(RB3LYP) =  -685.536529549     A.U. after   13 cycles
 SCF Done:  E(RB3LYP) =  -685.511308564     A.U. after   13 cycles
 SCF Done:  E(RB3LYP) =  -685.548143918     A.U. after   14 cycles
 SCF Done:  E(RB3LYP) =  -685.551075349     A.U. after   12 cycles
 SCF Done:  E(RB3LYP) =  -685.556613494     A.U. after   13 cycles
 SCF Done:  E(RB3LYP) =  -685.558859990     A.U. after   13 cycles
 SCF Done:  E(RB3LYP) =  -685.558363025     A.U. after   13 cycles
 SCF Done:  E(RB3LYP) =  -685.565086511     A.U. after   11 cycles
 SCF Done:  E(RB3LYP) =  -685.565123886     A.U. after   11 cycles
 SCF Done:  E(RB3LYP) =  -685.565134081     A.U. after   11 cycles
 SCF Done:  E(RB3LYP) =  -685.565135586     A.U. after    9 cycles
 SCF Done:  E(RB3LYP) =  -685.565136220     A.U. after   10 cycles
 SCF Done:  E(RB3LYP) =  -685.565137199     A.U. after    9 cycles
 SCF Done:  E(RB3LYP) =  -685.565137657     A.U. after    9 cycles
 SCF Done:  E(RB3LYP) =  -685.565137688     A.U. after    6 cycles
 SCF Done:  E(RB3LYP) =  -685.565137718     A.U. after    6 cycles
 Optimization completed.
    -- Stationary point found.
 Normal termination of Gaussian 16 at Mon May 29 21:27:52 2023.

 ----------------------------------------------------------------------
 #N Geom=AllCheck Guess=TCheck SCRF=Check GenChk RB3LYP/6-31G(2df,p) Fr
 eq
 ----------------------------------------------------------------------

 Structure from the checkpoint file:  "CCqCOrOCqNrdCqOrNCCdO.chk"
 -------------------
 Title Card Required
 -------------------
 Charge =  0 Multiplicity = 1

                         Standard orientation:
 ---------------------------------------------------------------------
 Center     Atomic      Atomic             Coordinates (Angstroms)
 Number     Number       Type             X           Y           Z
 ---------------------------------------------------------------------
      1          6           0        3.892798   -0.683647   -0.725902
      2          6           0        2.649447   -0.258870    0.037951
      3          6           0        2.549479    1.265294    0.192037
      4          8           0        3.610931    1.797011    0.970540
      5          8           0        1.505875   -0.761850   -0.675629
      6          6           0        0.329741   -0.920784    0.066842
      7          7           0        0.215167   -1.937775    1.039462
      8          6           0       -0.715865   -0.141768   -0.268643
      9          8           0       -0.623543    0.796795   -1.245931
     10          7           0       -1.952265   -0.171871    0.360108
     11          6           0       -3.163947   -0.057273   -0.438842
     12          6           0       -4.265337    0.632361    0.348518
     13          8           0       -5.439112    0.409852    0.211134
     14          1           0        4.778575   -0.244103   -0.261107
     15          1           0        3.833766   -0.333077   -1.761642
     16          1           0        3.993380   -1.771972   -0.738097
     17          1           0        2.666545   -0.708770    1.043717
     18          1           0        1.567127    1.530538    0.606013
     19          1           0        2.633719    1.733790   -0.795373
     20          1           0        3.453245    1.560694    1.889961
     21          1           0        0.489458   -2.847441    0.677755
     22          1           0        0.754218   -1.765626    1.883131
     23          1           0        0.231963    0.638845   -1.670448
     24          1           0       -1.965840   -0.928914    1.032470
     25          1           0       -3.543699   -1.012758   -0.827001
     26          1           0       -2.941531    0.582170   -1.300790
     27          1           0       -3.882337    1.387799    1.071738
 ---------------------------------------------------------------------

 SCF Done:  E(RB3LYP) =  -685.565137718     A.U. after    1 cycles

 The electronic state is 1-A.
 Alpha  occ. eigenvalues --  -19.17117 -19.15834 -19.14557 -19.13983 -14.34377
 Alpha  occ. eigenvalues --  -14.33427 -10.26920 -10.26371 -10.24003 -10.23075
 Alpha  occ. eigenvalues --  -10.22890 -10.22276 -10.17801  -1.07570  -1.04708
 Alpha  occ. eigenvalues --   -1.04101  -1.02401  -0.92976  -0.88864  -0.77971
 Alpha  occ. eigenvalues --   -0.74847  -0.68684  -0.68090  -0.61731  -0.59533
 Alpha  occ. eigenvalues --   -0.57802  -0.53868  -0.51920  -0.50675  -0.50047
 Alpha  occ. eigenvalues --   -0.48931  -0.48426  -0.46553  -0.44814  -0.43431
 Alpha  occ. eigenvalues --   -0.42390  -0.41989  -0.41488  -0.39604  -0.39175
 Alpha  occ. eigenvalues --   -0.38772  -0.37535  -0.36246  -0.34609  -0.33755
 Alpha  occ. eigenvalues --   -0.30946  -0.28730  -0.27301  -0.26503  -0.24968
 Alpha  occ. eigenvalues --   -0.18726
 Alpha virt. eigenvalues --   -0.02259   0.05404   0.05675   0.06570   0.08496
 Alpha virt. eigenvalues --    0.11460   0.12070   0.13214   0.13766   0.14155
 Alpha virt. eigenvalues --    0.14278   0.15023   0.16028   0.17485   0.18054

 Mulliken charges:
               1
     1  C   -0.396060
     2  C    0.095137
     3  C   -0.088048
     4  O   -0.410847
     5  O   -0.285385
     6  C    0.063646
     7  N   -0.587772
     8  C    0.419547
     9  O   -0.427450
    10  N   -0.372315
    11  C   -0.243322
    12  C    0.152773
    13  O   -0.238101
    14  H    0.133602
    15  H    0.121495
    16  H    0.115811
    17  H    0.048523
    18  H    0.106889
    19  H    0.109162
    20  H    0.285347
    21  H    0.238647
    22  H    0.235957
    23  H    0.303850
    24  H    0.248488
    25  H    0.121861
    26  H    0.164498
    27  H    0.084068
 Sum of Mulliken charges =   0.00000

 Dipole moment (field-independent basis, Debye):
    X=              3.1656    Y=             -1.7907    Z=              1.3271  Tot=              3.8716
 Quadrupole moment (field-independent basis, Debye-Ang):
   XX=           -101.3107   YY=            -76.4465   ZZ=            -70.0592
   XY=             -3.1238   XZ=              3.7943   YZ=             -2.1127

  Exact polarizability: 149.440  -7.017  92.555   1.457  -3.694  87.972
 Approx polarizability: 185.992 -10.367 137.544   5.057  -9.328 136.987

                      1                      2                      3
                      A                      A                      A
 Frequencies --     27.9646                32.5829                52.2336
 Red. masses --      6.6541                 3.1736                 7.2549
 Frc consts  --      0.0031                 0.0020                 0.0117
 IR Inten    --      0.9023                 0.5972                 3.6558

                      4                      5                      6
                      A                      A                      A
 Frequencies --     68.5021                86.5728                94.7215
 Red. masses --      3.8519                 2.6089                 3.2888
 Frc consts  --      0.0106                 0.0115                 0.0174
 IR Inten    --      1.1868                 2.8170                 0.9225

                      7                      8                      9
                      A                      A                      A
 Frequencies --    135.8487               182.9070               197.2246
 Red. masses --      2.9525                 3.1874                 2.8664
 Frc consts  --      0.0321                 0.0628                 0.0657
 IR Inten    --      5.1933                 4.5148                 3.3163

                     10                     11                     12
                      A                      A                      A
 Frequencies --    225.0668               251.3016               261.6492
 Red. masses --      1.2407                 2.9126                 2.7428
 Frc consts  --      0.0370                 0.1084                 0.1106
 IR Inten    --      0.4363                 3.1608                21.5178

                     13                     14                     15
                      A                      A                      A
 Frequencies --    273.0450               278.9038               315.2081
 Red. masses --      4.8010                 1.2308                 2.3159
 Frc consts  --      0.2109                 0.0564                 0.1356
 IR Inten    --      5.8152                76.1161                12.7533

                     16                     17                     18
                      A                      A                      A
 Frequencies --    371.0843               389.0078               405.9829
 Red. masses --      1.8214                 3.5888                 2.9290
 Frc consts  --      0.1478                 0.3200                 0.2844
 IR Inten    --      3.8794                 8.2965                28.3722

                     19                     20                     21
                      A                      A                      A
 Frequencies --    434.2435               498.3985               519.6107
 Red. masses --      2.2632                 3.2387                 4.2809
 Frc consts  --      0.2514                 0.4740                 0.6810
 IR Inten    --      6.2945                24.5235                 7.0214

                     22                     23                     24
                      A                      A                      A
 Frequencies --    561.2728               599.5259               607.4380
 Red. masses --      1.1868                 4.0153                 3.1401
 Frc consts  --      0.2203                 0.8503                 0.6827
 IR Inten    --     73.0275                 4.9839                48.2133

                     25                     26                     27
                      A                      A                      A
 Frequencies --    666.5337               726.9828               777.7744
 Red. masses --      3.6511                 1.5887                 2.1668
 Frc consts  --      0.9557                 0.4947                 0.7723
 IR Inten    --      0.3182                68.7632                27.2797

                     28                     29                     30
                      A                      A                      A
 Frequencies --    799.6565               838.0226               863.2364
 Red. masses --      1.9000                 1.8147                 2.6484
 Frc consts  --      0.7158                 0.7509                 1.1628
 IR Inten    --    124.5888                71.7758                 6.5317

                     31                     32                     33
                      A                      A                      A
 Frequencies --    910.0790               932.6599              1028.0812
 Red. masses --      1.3045                 2.4465                 3.2526
 Frc consts  --      0.6366                 1.2538                 2.0255
 IR Inten    --      4.1519                 4.1546               108.6178

                     34                     35                     36
                      A                      A                      A
 Frequencies --   1060.0539              1064.8810              1086.4099
 Red. masses --      3.7160                 2.9653                 3.1796
 Frc consts  --      2.4603                 1.9812                 2.2111
 IR Inten    --     25.3632               110.6541               150.4059

                     37                     38                     39
                      A                      A                      A
 Frequencies --   1093.8564              1112.3978              1150.6171
 Red. masses --      2.2034                 1.6242                 2.7900
 Frc consts  --      1.5533                 1.1841                 2.1763
 IR Inten    --     28.7804                 3.9812               115.8327

                     40                     41                     42
                      A                      A                      A
 Frequencies --   1159.5356              1199.8918              1232.6364
 Red. masses --      2.0857                 1.3557                 2.4537
 Frc consts  --      1.6522                 1.1500                 2.1965
 IR Inten    --      2.0699                 3.9020                21.7490

                     43                     44                     45
                      A                      A                      A
 Frequencies --   1235.4651              1243.7168              1299.7420
 Red. masses --      1.4403                 1.6812                 1.5542
 Frc consts  --      1.2952                 1.5322                 1.5469
 IR Inten    --    114.3801                25.8257               175.0319

                     46                     47                     48
                      A                      A                      A
 Frequencies --   1329.7885              1337.6821              1375.0863
 Red. masses --      1.3753                 1.1867                 1.3220
 Frc consts  --      1.4329                 1.2511                 1.4728
 IR Inten    --      9.1698                12.8693                 6.4190

                     49                     50                     51
                      A                      A                      A
 Frequencies --   1394.9876              1400.8271              1403.4970
 Red. masses --      1.3794                 1.2504                 1.2231
 Frc consts  --      1.5816                 1.4457                 1.4195
 IR Inten    --     14.0070                53.6510                 5.4073

                     52                     53                     54
                      A                      A                      A
 Frequencies --   1414.5935              1438.2379              1464.6551
 Red. masses --      1.3237                 1.7697                 1.2200
 Frc consts  --      1.5606                 2.1568                 1.5420
 IR Inten    --     17.5848                29.9910                 2.1419

                     55                     56                     57
                      A                      A                      A
 Frequencies --   1486.7619              1487.7263              1493.3738
 Red. masses --      1.6743                 1.0775                 1.0702
 Frc consts  --      2.1806                 1.4052                 1.4063
 IR Inten    --     87.8277                16.2229                 6.2602

                     58                     59                     60
                      A                      A                      A
 Frequencies --   1504.0368              1652.8199              1792.9813
 Red. masses --      1.0787                 1.1740                 4.8071
 Frc consts  --      1.4376                 1.8896                 9.1050
 IR Inten    --      1.1207                 9.2301               147.9307

                     61                     62                     63
                      A                      A                      A
 Frequencies --   1840.5495              2883.0680              2971.1602
 Red. masses --     10.3521                 1.0839                 1.0821
 Frc consts  --     20.6622                 5.3083                 5.6282
 IR Inten    --    207.3285                90.0555                38.7392

                     64                     65                     66
                      A                      A                      A
 Frequencies --   3009.4946              3012.5232              3043.7445
 Red. masses --      1.0652                 1.0604                 1.0359
 Frc consts  --      5.6843                 5.6702                 5.6546
 IR Inten    --     53.1365                33.4751                14.0227

                     67                     68                     69
                      A                      A                      A
 Frequencies --   3071.0556              3082.1281              3114.9679
 Red. masses --      1.1034                 1.0943                 1.1007
 Frc consts  --      6.1313                 6.1248                 6.2927
 IR Inten    --     30.0014                 8.9536                24.0669

                     70                     71                     72
                      A                      A                      A
 Frequencies --   3134.5725              3472.0901              3531.7625
 Red. masses --      1.1017                 1.0461                 1.0944
 Frc consts  --      6.3779                 7.4303                 8.0432
 IR Inten    --     12.6218                 2.8675                 1.9801

                     73                     74                     75
                      A                      A                      A
 Frequencies --   3569.9166              3749.9147              3819.2764
 Red. masses --      1.0740                 1.0641                 1.0663
 Frc consts  --      8.0644                 8.8159                 9.1642
 IR Inten    --     24.2271                69.6434                18.9631

 - Thermochemistry -
 -------------------
 Temperature   298.150 Kelvin.  Pressure   1.00000 Atm.
 Atom     1 has atomic number  6 and mass  12.00000

 Molecular mass:   190.09536 amu.
 Principal axes and moments of inertia in atomic units:
                           1         2         3
     Eigenvalues --  1044.411626030.018996380.14338
           X            1.00000  -0.00246  -0.00048
           Y            0.00245   0.99979  -0.02015
           Z            0.00053   0.02015   0.99980
 This molecule is an asymmetric top.
 Rotational symmetry number  1.
 Warning -- assumption of classical behavior for rotation
           may cause significant error
 Rotational temperatures (Kelvin)      0.08293     0.01436     0.01358
 Rotational constants (GHZ):           1.72800     0.29929     0.28287
 Zero-point vibrational energy     583991.8 (Joules/Mol)
                                  139.57739 (Kcal/Mol)
 Warning -- explicit consideration of  24 degrees of freedom as
           vibrations may cause significant error
 Vibrational temperatures:     40.23    46.88    75.15    98.56   124.56
          (Kelvin)            136.28   195.46   263.16   283.76   323.82
                              361.57   376.45   392.85   401.28   453.51
                              533.91   559.70   584.12   624.78   717.08
                              747.60   807.55   862.58   873.97   958.99
                             1045.97  1119.04  1150.53  1205.73  1242.00
                             1309.40  1341.89  1479.18  1525.18  1532.13
                             1563.10  1573.82  1600.49  1655.48  1668.31
                             1726.38  1773.49  1777.56  1789.43  1870.04
                             1913.27  1924.63  1978.44  2007.08  2015.48
                             2019.32  2035.28  2069.30  2107.31  2139.12
                             2140.51  2148.63  2163.97  2378.04  2579.70
                             2648.14  4148.09  4274.84  4329.99  4334.35
                             4379.27  4418.56  4434.49  4481.74  4509.95
                             4995.56  5081.42  5136.31  5395.29  5495.09

 Zero-point correction=                           0.222431 (Hartree/Particle)
 Thermal correction to Energy=                    0.237921
 Thermal correction to Enthalpy=                  0.238865
 Thermal correction to Gibbs Free Energy=         0.178173
 Sum of electronic and zero-point Energies=           -685.342707
 Sum of electronic and thermal Energies=              -685.327217
 Sum of electronic and thermal Enthalpies=            -685.326273
 Sum of electronic and thermal Free Energies=         -685.386965

                     E (Thermal)             CV                S
                      KCal/Mol        Cal/Mol-Kelvin    Cal/Mol-Kelvin
 Total                  149.297             54.966            127.737
 Electronic               0.000              0.000              0.000
 Translational            0.889              2.981             41.633
 Rotational               0.889              2.981             32.063
 Vibrational            147.520             49.004             54.041
 Vibration     1          0.593              1.984              5.969
 Vibration     2          0.594              1.983              5.666
 Vibration     3          0.596              1.977              4.731
 Vibration     4          0.598              1.969              4.196
 Vibration     5          0.601              1.959              3.736
 Vibration     6          0.603              1.953              3.560
 Vibration     7          0.614              1.918              2.862
 Vibration     8          0.630              1.863              2.299
 Vibration     9          0.637              1.844              2.159
 Vibration    10          0.650              1.803              1.918
 Vibration    11          0.663              1.761              1.721
 Vibration    12          0.669              1.743              1.651
 Vibration    13          0.676              1.723              1.577
 Vibration    14          0.679              1.713              1.540
 Vibration    15          0.703              1.645              1.335
 Vibration    16          0.743              1.532              1.075
 Vibration    17          0.757              1.494              1.004
 Vibration    18          0.771              1.457              0.941
 Vibration    19          0.795              1.396              0.845
 Vibration    20          0.854              1.254              0.662
 Vibration    21          0.875              1.207              0.611
 Vibration    22          0.917              1.115              0.521
 Vibration    23          0.958              1.033              0.450
 Vibration    24          0.966              1.016              0.437

 Optimization completed.
    -- Stationary point found.
 Normal termination of Gaussian 16 at Mon May 29 22:35:23 2023.
