 Gaussian 16, Revision A.03,
 Gaussian 16:  ES64L-G16RevA.03 25-Dec-2016

 -----------------------------
 # opt freq b3lyp/6-31g(2df,p)
 -----------------------------

 -------------------
 Title Card Required
 -------------------
 Symbolic Z-matrix:
 Charge =  0 Multiplicity = 1

 SCF Done:  E(RB3LYP) =  -355.052512416     A.U. after   11 cycles
 SCF Done:  E(RB3LYP) =  -355.055210231     A.U. after   10 cycles
 SCF Done:  E(RB3LYP) =  -355.055692259     A.U. after    8 cycles
 SCF Done:  E(RB3LYP) =  -355.055763117     A.U. after    8 cycles
 SCF Done:  E(RB3LYP) =  -355.055774400     A.U. after    7 cycles
 SCF Done:  E(RB3LYP) =  -355.055775879     A.U. after    6 cycles
 SCF Done:  E(RB3LYP) =  -355.055775972     A.U. after    5 cycles
 Optimization completed.
    -- Stationary point found.
 Normal termination of Gaussian 16 at Sun May 28 05:38:02 2023.

 ----------------------------------------------------------------------
 #N Geom=AllCheck Guess=TCheck SCRF=Check GenChk RB3LYP/6-31G(2df,p) Fr
 eq
 ----------------------------------------------------------------------

 Structure from the checkpoint file:  "CCqCrCCCCqCrC.chk"
 -------------------
 Title Card Required
 -------------------
 Charge =  0 Multiplicity = 1

                         Standard orientation:
 ---------------------------------------------------------------------
 Center     Atomic      Atomic             Coordinates (Angstroms)
 Number     Number       Type             X           Y           Z
 ---------------------------------------------------------------------
      1          6           0       -3.780752   -0.907403    0.063024
      2          6           0       -2.595028   -0.015850   -0.331052
      3          6           0       -2.829777    1.427062    0.138573
      4          6           0       -1.276819   -0.604915    0.204627
      5          6           0       -0.000000    0.086891   -0.289565
      6          6           0        1.276818   -0.604914    0.204628
      7          6           0        2.595027   -0.015850   -0.331052
      8          6           0        2.829778    1.427061    0.138573
      9          6           0        3.780751   -0.907403    0.063024
     10          1           0       -4.721502   -0.522320   -0.344582
     11          1           0       -3.888174   -0.955758    1.153550
     12          1           0       -3.650081   -1.931440   -0.302694
     13          1           0       -2.532509   -0.006921   -1.429446
     14          1           0       -2.872408    1.477709    1.233660
     15          1           0       -3.778949    1.814413   -0.246768
     16          1           0       -2.038502    2.104169   -0.195660
     17          1           0       -1.230758   -1.666329   -0.075651
     18          1           0       -1.299093   -0.586133    1.304364
     19          1           0       -0.000001    1.134557    0.030831
     20          1           0        0.000000    0.102593   -1.389064
     21          1           0        1.230757   -1.666329   -0.075649
     22          1           0        1.299093   -0.586131    1.304365
     23          1           0        2.532508   -0.006922   -1.429446
     24          1           0        2.872410    1.477710    1.233659
     25          1           0        2.038504    2.104170   -0.195661
     26          1           0        3.778950    1.814412   -0.246769
     27          1           0        3.888174   -0.955759    1.153550
     28          1           0        4.721502   -0.522322   -0.344582
     29          1           0        3.650080   -1.931441   -0.302694
 ---------------------------------------------------------------------

 SCF Done:  E(RB3LYP) =  -355.055775972     A.U. after    1 cycles

 The electronic state is 1-A.
 Alpha  occ. eigenvalues --  -10.18102 -10.18102 -10.17143 -10.17078 -10.17074
 Alpha  occ. eigenvalues --  -10.16686 -10.16686 -10.16668 -10.16668  -0.81289
 Alpha  occ. eigenvalues --   -0.79400  -0.74046  -0.67652  -0.67593  -0.66506
 Alpha  occ. eigenvalues --   -0.59515  -0.55483  -0.54632  -0.47165  -0.45099
 Alpha  occ. eigenvalues --   -0.43812  -0.42656  -0.42400  -0.41536  -0.38819
 Alpha  occ. eigenvalues --   -0.37688  -0.37528  -0.37220  -0.35268  -0.35210
 Alpha  occ. eigenvalues --   -0.33957  -0.33062  -0.32002  -0.31387  -0.31206
 Alpha  occ. eigenvalues --   -0.30637  -0.29325
 Alpha virt. eigenvalues --    0.08380   0.09057   0.11420   0.11762   0.12865
 Alpha virt. eigenvalues --    0.13975   0.15253   0.15402   0.15864   0.15985
 Alpha virt. eigenvalues --    0.16660   0.16983   0.18000   0.19072   0.19481

 Mulliken charges:
               1
     1  C   -0.387687
     2  C    0.042814
     3  C   -0.379655
     4  C   -0.163008
     5  C   -0.201932
     6  C   -0.163008
     7  C    0.042814
     8  C   -0.379656
     9  C   -0.387687
    10  H    0.106722
    11  H    0.109840
    12  H    0.107470
    13  H    0.068000
    14  H    0.108839
    15  H    0.107691
    16  H    0.112967
    17  H    0.085871
    18  H    0.086952
    19  H    0.100083
    20  H    0.088218
    21  H    0.085871
    22  H    0.086952
    23  H    0.068000
    24  H    0.108839
    25  H    0.112967
    26  H    0.107691
    27  H    0.109840
    28  H    0.106722
    29  H    0.107470
 Sum of Mulliken charges =  -0.00000

 Dipole moment (field-independent basis, Debye):
    X=             -0.0000    Y=              0.0026    Z=             -0.1308  Tot=              0.1308
 Quadrupole moment (field-independent basis, Debye-Ang):
   XX=            -62.4506   YY=            -61.9475   ZZ=            -60.7421
   XY=              0.0000   XZ=              0.0000   YZ=              0.2052

  Exact polarizability: 120.656   0.000  95.768   0.000   0.015  85.955
 Approx polarizability: 137.745   0.000 134.782  -0.000   0.241 135.537

                      1                      2                      3
                      A                      A                      A
 Frequencies --     31.5084                57.9581                93.6217
 Red. masses --      2.4057                 2.7959                 2.9630
 Frc consts  --      0.0014                 0.0055                 0.0153
 IR Inten    --      0.0001                 0.0037                 0.0065

                      4                      5                      6
                      A                      A                      A
 Frequencies --    112.5962               132.8089               218.8327
 Red. masses --      1.7020                 2.0746                 1.3335
 Frc consts  --      0.0127                 0.0216                 0.0376
 IR Inten    --      0.0013                 0.0333                 0.0011

                      7                      8                      9
                      A                      A                      A
 Frequencies --    224.9660               235.0721               236.7063
 Red. masses --      1.0698                 1.4282                 1.8309
 Frc consts  --      0.0319                 0.0465                 0.0604
 IR Inten    --      0.0301                 0.0088                 0.0005

                     10                     11                     12
                      A                      A                      A
 Frequencies --    257.6853               260.6894               367.6934
 Red. masses --      1.2894                 1.3890                 2.5764
 Frc consts  --      0.0504                 0.0556                 0.2052
 IR Inten    --      0.0150                 0.0029                 0.0653

                     13                     14                     15
                      A                      A                      A
 Frequencies --    370.9884               413.1125               417.3084
 Red. masses --      2.0622                 1.8955                 2.2209
 Frc consts  --      0.1672                 0.1906                 0.2279
 IR Inten    --      0.0092                 0.0302                 0.1595

                     16                     17                     18
                      A                      A                      A
 Frequencies --    459.3583               500.7571               741.4746
 Red. masses --      2.0947                 2.7821                 1.1235
 Frc consts  --      0.2604                 0.4110                 0.3639
 IR Inten    --      0.1990                 0.6415                 1.9146

                     19                     20                     21
                      A                      A                      A
 Frequencies --    793.9271               839.8395               841.6253
 Red. masses --      2.3729                 1.3815                 2.5485
 Frc consts  --      0.8812                 0.5741                 1.0636
 IR Inten    --      0.2831                 1.1685                 0.7287

                     22                     23                     24
                      A                      A                      A
 Frequencies --    926.4956               926.5586               944.0526
 Red. masses --      1.2100                 1.1940                 2.0068
 Frc consts  --      0.6120                 0.6039                 1.0538
 IR Inten    --      1.6090                 0.7533                 1.3377

                     25                     26                     27
                      A                      A                      A
 Frequencies --    944.3156               963.3966               966.0199
 Red. masses --      1.5538                 1.3977                 1.4807
 Frc consts  --      0.8164                 0.7643                 0.8141
 IR Inten    --      0.4326                 0.0946                 0.0628

                     28                     29                     30
                      A                      A                      A
 Frequencies --    993.5311              1033.6017              1055.1065
 Red. masses --      1.7259                 3.5733                 1.3823
 Frc consts  --      1.0038                 2.2492                 0.9067
 IR Inten    --      0.2164                 0.2858                 0.4871

                     31                     32                     33
                      A                      A                      A
 Frequencies --   1065.9203              1116.8041              1164.7683
 Red. masses --      1.9134                 1.9946                 2.3530
 Frc consts  --      1.2809                 1.4658                 1.8809
 IR Inten    --      0.0834                 0.0432                 0.9596

                     34                     35                     36
                      A                      A                      A
 Frequencies --   1191.6325              1194.3474              1203.4119
 Red. masses --      1.7569                 1.7814                 2.1218
 Frc consts  --      1.4699                 1.4971                 1.8104
 IR Inten    --      8.5488                 0.4629                 0.2312

                     37                     38                     39
                      A                      A                      A
 Frequencies --   1235.5842              1268.7569              1305.2665
 Red. masses --      1.5584                 1.2564                 1.3143
 Frc consts  --      1.4018                 1.1917                 1.3192
 IR Inten    --      5.4614                 2.3678                 0.2109

                     40                     41                     42
                      A                      A                      A
 Frequencies --   1327.1454              1332.1836              1356.8195
 Red. masses --      1.2342                 1.0971                 1.3636
 Frc consts  --      1.2808                 1.1472                 1.4790
 IR Inten    --      0.6456                 0.2754                 3.5523

                     43                     44                     45
                      A                      A                      A
 Frequencies --   1369.0250              1372.1662              1386.4797
 Red. masses --      1.3489                 1.3227                 1.4653
 Frc consts  --      1.4896                 1.4673                 1.6596
 IR Inten    --      3.8228                 6.0035                 0.3188

                     46                     47                     48
                      A                      A                      A
 Frequencies --   1395.9602              1401.1168              1402.1356
 Red. masses --      1.4920                 1.2866                 1.2994
 Frc consts  --      1.7130                 1.4881                 1.5051
 IR Inten    --      0.0012                 9.1236                 0.0000

                     49                     50                     51
                      A                      A                      A
 Frequencies --   1421.1003              1422.6822              1477.0538
 Red. masses --      1.2468                 1.2384                 1.0708
 Frc consts  --      1.4835                 1.4768                 1.3764
 IR Inten    --      2.8272                 3.7831                 0.0720

                     52                     53                     54
                      A                      A                      A
 Frequencies --   1479.3850              1488.9974              1489.2478
 Red. masses --      1.0783                 1.0471                 1.0436
 Frc consts  --      1.3904                 1.3678                 1.3638
 IR Inten    --      0.3955                 0.0039                 1.5426

                     55                     56                     57
                      A                      A                      A
 Frequencies --   1494.5417              1495.6321              1504.7346
 Red. masses --      1.0562                 1.0603                 1.0548
 Frc consts  --      1.3900                 1.3974                 1.4072
 IR Inten    --      2.1295                 0.0682                 0.2583

                     58                     59                     60
                      A                      A                      A
 Frequencies --   1505.1543              1505.5837              1510.7949
 Red. masses --      1.0686                 1.0757                 1.0492
 Frc consts  --      1.4264                 1.4366                 1.4109
 IR Inten    --      2.5972                 3.7564                 3.8855

                     61                     62                     63
                      A                      A                      A
 Frequencies --   1512.8294              2988.5067              2989.8364
 Red. masses --      1.0576                 1.0750                 1.0797
 Frc consts  --      1.4261                 5.6570                 5.6865
 IR Inten    --     13.2332                 0.2413                13.5686

                     64                     65                     66
                      A                      A                      A
 Frequencies --   2996.4133              2996.9457              3009.7642
 Red. masses --      1.0655                 1.0625                 1.0675
 Frc consts  --      5.6364                 5.6227                 5.6975
 IR Inten    --      0.0025                16.2557                64.9011

                     67                     68                     69
                      A                      A                      A
 Frequencies --   3020.8945              3021.0231              3026.4385
 Red. masses --      1.0358                 1.0362                 1.0380
 Frc consts  --      5.5691                 5.5717                 5.6015
 IR Inten    --     18.3496                47.3222                23.4514

                     70                     71                     72
                      A                      A                      A
 Frequencies --   3026.6637              3030.8542              3031.7561
 Red. masses --      1.0385                 1.0913                 1.1017
 Frc consts  --      5.6051                 5.9064                 5.9664
 IR Inten    --     30.6345                25.6617                 1.2275

                     73                     74                     75
                      A                      A                      A
 Frequencies --   3070.2028              3084.7586              3084.8608
 Red. masses --      1.0995                 1.1002                 1.1002
 Frc consts  --      6.1061                 6.1683                 6.1686
 IR Inten    --     58.2352                 0.0031                12.4035

                     76                     77                     78
                      A                      A                      A
 Frequencies --   3090.7039              3091.1145              3095.8891
 Red. masses --      1.0999                 1.0998                 1.1014
 Frc consts  --      6.1902                 6.1912                 6.2199
 IR Inten    --     13.2888               122.7929                29.7230

                     79                     80                     81
                      A                      A                      A
 Frequencies --   3096.1920              3104.9002              3106.5478
 Red. masses --      1.1012                 1.0998                 1.0992
 Frc consts  --      6.2200                 6.2468                 6.2500
 IR Inten    --     56.3878                68.1383                13.9765

 - Thermochemistry -
 -------------------
 Temperature   298.150 Kelvin.  Pressure   1.00000 Atm.
 Atom     1 has atomic number  6 and mass  12.00000

 Molecular mass:   128.15650 amu.
 Principal axes and moments of inertia in atomic units:
                           1         2         3
     Eigenvalues --   485.852353329.993863665.35500
           X            1.00000  -0.00000  -0.00000
           Y            0.00000   1.00000  -0.00115
           Z            0.00000   0.00115   1.00000
 This molecule is an asymmetric top.
 Rotational symmetry number  1.
 Warning -- assumption of classical behavior for rotation
           may cause significant error
 Rotational temperatures (Kelvin)      0.17827     0.02601     0.02363
 Rotational constants (GHZ):           3.71459     0.54197     0.49238
 Zero-point vibrational energy     716103.4 (Joules/Mol)
                                  171.15281 (Kcal/Mol)
 Warning -- explicit consideration of  17 degrees of freedom as
           vibrations may cause significant error
 Vibrational temperatures:     45.33    83.39   134.70   162.00   191.08
          (Kelvin)            314.85   323.68   338.22   340.57   370.75
                              375.07   529.03   533.77   594.38   600.41
                              660.91   720.48  1066.82  1142.28  1208.34
                             1210.91  1333.02  1333.11  1358.28  1358.66
                             1386.11  1389.89  1429.47  1487.12  1518.06
                             1533.62  1606.83  1675.84  1714.49  1718.40
                             1731.44  1777.73  1825.46  1877.99  1909.47
                             1916.72  1952.16  1969.72  1974.24  1994.83
                             2008.48  2015.89  2017.36  2044.65  2046.92
                             2125.15  2128.51  2142.34  2142.70  2150.31
                             2151.88  2164.98  2165.58  2166.20  2173.70
                             2176.62  4299.79  4301.71  4311.17  4311.94
                             4330.38  4346.39  4346.58  4354.37  4354.69
                             4360.72  4362.02  4417.34  4438.28  4438.43
                             4446.83  4447.42  4454.29  4454.73  4467.26
                             4469.63

 Zero-point correction=                           0.272749 (Hartree/Particle)
 Thermal correction to Energy=                    0.285161
 Thermal correction to Enthalpy=                  0.286105
 Thermal correction to Gibbs Free Energy=         0.234121
 Sum of electronic and zero-point Energies=           -354.783027
 Sum of electronic and thermal Energies=              -354.770615
 Sum of electronic and thermal Enthalpies=            -354.769671
 Sum of electronic and thermal Free Energies=         -354.821655

                     E (Thermal)             CV                S
                      KCal/Mol        Cal/Mol-Kelvin    Cal/Mol-Kelvin
 Total                  178.941             45.235            109.409
 Electronic               0.000              0.000              0.000
 Translational            0.889              2.981             40.457
 Rotational               0.889              2.981             30.162
 Vibrational            177.164             39.273             38.789
 Vibration     1          0.594              1.983              5.732
 Vibration     2          0.596              1.974              4.526
 Vibration     3          0.603              1.954              3.583
 Vibration     4          0.607              1.939              3.224
 Vibration     5          0.613              1.921              2.905
 Vibration     6          0.647              1.812              1.969
 Vibration     7          0.650              1.803              1.919
 Vibration     8          0.655              1.787              1.840
 Vibration     9          0.656              1.785              1.828
 Vibration    10          0.667              1.750              1.677
 Vibration    11          0.669              1.745              1.657
 Vibration    12          0.740              1.539              1.089
 Vibration    13          0.743              1.532              1.076
 Vibration    14          0.777              1.442              0.916
 Vibration    15          0.780              1.433              0.901
 Vibration    16          0.817              1.340              0.768
 Vibration    17          0.856              1.248              0.656

 Optimization completed.
    -- Stationary point found.
 Normal termination of Gaussian 16 at Sun May 28 06:19:48 2023.
