 Gaussian 16, Revision A.03,
 Gaussian 16:  ES64L-G16RevA.03 25-Dec-2016

 -----------------------------
 # opt freq b3lyp/6-31g(2df,p)
 -----------------------------

 -------------------
 Title Card Required
 -------------------
 Symbolic Z-matrix:
 Charge =  0 Multiplicity = 1

 SCF Done:  E(RB3LYP) =  -594.079811922     A.U. after   14 cycles
 SCF Done:  E(RB3LYP) =  -594.084609522     A.U. after   13 cycles
 SCF Done:  E(RB3LYP) =  -594.085006393     A.U. after   12 cycles
 SCF Done:  E(RB3LYP) =  -594.086926237     A.U. after   13 cycles
 SCF Done:  E(RB3LYP) =  -594.092312043     A.U. after   15 cycles
 SCF Done:  E(RB3LYP) =  -594.067493446     A.U. after   13 cycles
 SCF Done:  E(RB3LYP) =  -594.099136057     A.U. after   14 cycles
 SCF Done:  E(RB3LYP) =  -594.101490571     A.U. after   14 cycles
 SCF Done:  E(RB3LYP) =  -594.099586881     A.U. after   14 cycles
 SCF Done:  E(RB3LYP) =  -594.101866568     A.U. after   13 cycles
 SCF Done:  E(RB3LYP) =  -594.104471047     A.U. after   14 cycles
 SCF Done:  E(RB3LYP) =  -594.104492447     A.U. after   14 cycles
 SCF Done:  E(RB3LYP) =  -594.104493903     A.U. after   11 cycles
 SCF Done:  E(RB3LYP) =  -594.104492966     A.U. after   11 cycles
 SCF Done:  E(RB3LYP) =  -594.104493289     A.U. after   10 cycles
 SCF Done:  E(RB3LYP) =  -594.104494569     A.U. after   10 cycles
 SCF Done:  E(RB3LYP) =  -594.104494894     A.U. after    9 cycles
 SCF Done:  E(RB3LYP) =  -594.104494955     A.U. after    9 cycles
 SCF Done:  E(RB3LYP) =  -594.104494952     A.U. after    6 cycles
 Optimization completed.
    -- Stationary point found.
 Normal termination of Gaussian 16 at Sun May 28 02:03:08 2023.

 ----------------------------------------------------------------------
 #N Geom=AllCheck Guess=TCheck SCRF=Check GenChk RB3LYP/6-31G(2df,p) Fr
 eq
 ----------------------------------------------------------------------

 Structure from the checkpoint file:  "CCqCCCtCCNrCOOO.chk"
 -------------------
 Title Card Required
 -------------------
 Charge =  0 Multiplicity = 1

                         Standard orientation:
 ---------------------------------------------------------------------
 Center     Atomic      Atomic             Coordinates (Angstroms)
 Number     Number       Type             X           Y           Z
 ---------------------------------------------------------------------
      1          6           0       -1.431508    2.634653    0.691421
      2          6           0       -1.427864    1.342241   -0.138213
      3          6           0       -0.122723    0.539250    0.010976
      4          6           0        1.100396    1.208280   -0.649681
      5          6           0        2.314998    0.408999   -0.530171
      6          6           0        3.296855   -0.278130   -0.409981
      7          6           0        4.511237   -1.079075   -0.284751
      8          7           0        5.262958   -0.729411    0.932745
      9          6           0       -2.638241    0.491157    0.254913
     10          8           0       -2.738504   -0.572599   -0.697999
     11          8           0       -3.800780   -1.433622   -0.306473
     12          8           0       -3.296922   -2.316786    0.693055
     13          1           0       -0.605728    3.293815    0.410881
     14          1           0       -1.332161    2.414090    1.760586
     15          1           0       -2.361206    3.194789    0.549319
     16          1           0       -1.553166    1.607973   -1.197423
     17          1           0       -0.259376   -0.450215   -0.433731
     18          1           0        0.088483    0.377885    1.075510
     19          1           0        1.277677    2.196269   -0.206651
     20          1           0        0.883094    1.389326   -1.711404
     21          1           0        5.095331   -0.975034   -1.216428
     22          1           0        4.240823   -2.141048   -0.214238
     23          1           0        5.517679    0.253227    0.892085
     24          1           0        6.135159   -1.251281    0.942028
     25          1           0       -3.561969    1.082108    0.234128
     26          1           0       -2.509019    0.065027    1.257197
     27          1           0       -2.825590   -2.971247    0.153180
 ---------------------------------------------------------------------

 SCF Done:  E(RB3LYP) =  -594.104494952     A.U. after    1 cycles

 The electronic state is 1-A.
 Alpha  occ. eigenvalues --  -19.24895 -19.20155 -19.19909 -14.31045 -10.22943
 Alpha  occ. eigenvalues --  -10.22620 -10.20369 -10.19770 -10.18379 -10.18270
 Alpha  occ. eigenvalues --  -10.16846 -10.16452  -1.17283  -1.02518  -0.88173
 Alpha  occ. eigenvalues --   -0.85580  -0.81059  -0.76969  -0.72817  -0.67719
 Alpha  occ. eigenvalues --   -0.66731  -0.63208  -0.57275  -0.55088  -0.50712
 Alpha  occ. eigenvalues --   -0.49649  -0.48730  -0.46983  -0.46308  -0.45486
 Alpha  occ. eigenvalues --   -0.44485  -0.43642  -0.42314  -0.40745  -0.39931
 Alpha  occ. eigenvalues --   -0.39309  -0.38762  -0.37570  -0.34427  -0.33681
 Alpha  occ. eigenvalues --   -0.33240  -0.31037  -0.28563  -0.27848  -0.25255
 Alpha  occ. eigenvalues --   -0.25011  -0.23355
 Alpha virt. eigenvalues --    0.02009   0.04635   0.05897   0.06209   0.08564
 Alpha virt. eigenvalues --    0.08892   0.10613   0.11617   0.12649   0.13890
 Alpha virt. eigenvalues --    0.14560   0.15173   0.15778   0.16143   0.17404

 Mulliken charges:
               1
     1  C   -0.407167
     2  C   -0.005477
     3  C   -0.167823
     4  C   -0.372743
     5  C    0.008666
     6  C    0.156398
     7  C   -0.292819
     8  N   -0.499001
     9  C   -0.036736
    10  O   -0.163789
    11  O   -0.098729
    12  O   -0.276384
    13  H    0.122752
    14  H    0.121482
    15  H    0.118522
    16  H    0.086432
    17  H    0.118833
    18  H    0.106672
    19  H    0.127207
    20  H    0.126222
    21  H    0.108258
    22  H    0.130120
    23  H    0.229874
    24  H    0.225668
    25  H    0.102257
    26  H    0.116112
    27  H    0.315193
 Sum of Mulliken charges =  -0.00000

 Dipole moment (field-independent basis, Debye):
    X=              1.8688    Y=              0.6566    Z=             -0.6632  Tot=              2.0888
 Quadrupole moment (field-independent basis, Debye-Ang):
   XX=            -68.0794   YY=            -63.4567   ZZ=            -76.0029
   XY=             -4.4157   XZ=             -3.1644   YZ=              2.1070

  Exact polarizability: 138.838 -13.232 113.591   2.102  -2.046  83.312
 Approx polarizability: 172.406 -22.247 161.097   5.537  -8.860 131.141

                      1                      2                      3
                      A                      A                      A
 Frequencies --      6.7764                29.1987                32.1188
 Red. masses --      3.1775                 4.5804                 4.5864
 Frc consts  --      0.0001                 0.0023                 0.0028
 IR Inten    --      2.1715                 0.3813                 0.2557

                      4                      5                      6
                      A                      A                      A
 Frequencies --     69.9346                74.9251                84.1501
 Red. masses --      4.0572                 2.3945                 3.5253
 Frc consts  --      0.0117                 0.0079                 0.0147
 IR Inten    --      2.5843                 0.1395                 2.3506

                      7                      8                      9
                      A                      A                      A
 Frequencies --    131.7286               164.4668               187.9144
 Red. masses --      2.9149                 3.4575                 1.9709
 Frc consts  --      0.0298                 0.0551                 0.0410
 IR Inten    --      4.3276                 6.3868                 2.9830

                     10                     11                     12
                      A                      A                      A
 Frequencies --    208.5441               231.2525               236.9552
 Red. masses --      2.0811                 1.7398                 1.4319
 Frc consts  --      0.0533                 0.0548                 0.0474
 IR Inten    --     10.6273                12.4276                 6.4944

                     13                     14                     15
                      A                      A                      A
 Frequencies --    290.7534               315.8557               334.6752
 Red. masses --      2.3487                 3.4475                 3.7139
 Frc consts  --      0.1170                 0.2026                 0.2451
 IR Inten    --     15.5460                23.8262                 1.6441

                     16                     17                     18
                      A                      A                      A
 Frequencies --    367.4126               411.9338               447.0019
 Red. masses --      2.1836                 1.5366                 2.5060
 Frc consts  --      0.1737                 0.1536                 0.2950
 IR Inten    --     23.0325                68.5832                18.3627

                     19                     20                     21
                      A                      A                      A
 Frequencies --    467.1311               502.0681               549.3126
 Red. masses --      3.8188                 3.9168                 5.3005
 Frc consts  --      0.4910                 0.5817                 0.9423
 IR Inten    --      2.7328                 0.9720                 4.1661

                     22                     23                     24
                      A                      A                      A
 Frequencies --    600.9389               754.5813               767.0967
 Red. masses --      6.0391                 1.9600                 1.6532
 Frc consts  --      1.2849                 0.6575                 0.5732
 IR Inten    --      6.9280                 4.9864                 5.5750

                     25                     26                     27
                      A                      A                      A
 Frequencies --    788.8926               858.5922               865.2340
 Red. masses --     13.4123                 1.2920                 2.3823
 Frc consts  --      4.9180                 0.5612                 1.0508
 IR Inten    --     67.8243               112.8219                 1.7455

                     28                     29                     30
                      A                      A                      A
 Frequencies --    925.5117               948.0548               955.0347
 Red. masses --      1.5706                 5.7859                 1.4516
 Frc consts  --      0.7927                 3.0640                 0.7801
 IR Inten    --      3.2437                 5.0669                 0.9726

                     31                     32                     33
                      A                      A                      A
 Frequencies --    966.7605              1008.7627              1015.2678
 Red. masses --      1.7079                 2.6609                 4.1466
 Frc consts  --      0.9405                 1.5954                 2.5183
 IR Inten    --      3.4173                26.9186                18.3384

                     34                     35                     36
                      A                      A                      A
 Frequencies --   1033.5268              1050.1718              1123.1932
 Red. masses --      3.6212                 2.1233                 2.0706
 Frc consts  --      2.2790                 1.3797                 1.5391
 IR Inten    --     17.2071                 8.0372                 0.7322

                     37                     38                     39
                      A                      A                      A
 Frequencies --   1138.8605              1159.3669              1176.5626
 Red. masses --      1.8205                 2.2830                 2.0814
 Frc consts  --      1.3912                 1.8080                 1.6976
 IR Inten    --      0.3698                 3.9005                 2.4850

                     40                     41                     42
                      A                      A                      A
 Frequencies --   1193.9997              1217.9029              1250.7493
 Red. masses --      1.3317                 1.2913                 1.2285
 Frc consts  --      1.1186                 1.1285                 1.1323
 IR Inten    --      1.0461                 2.5240                 2.7338

                     43                     44                     45
                      A                      A                      A
 Frequencies --   1292.4597              1297.6600              1312.9258
 Red. masses --      1.2569                 1.1812                 1.1725
 Frc consts  --      1.2370                 1.1719                 1.1908
 IR Inten    --      9.9127                 8.6266                 1.7352

                     46                     47                     48
                      A                      A                      A
 Frequencies --   1338.4853              1366.4508              1391.0557
 Red. masses --      1.2789                 1.3372                 1.4996
 Frc consts  --      1.3500                 1.4711                 1.7097
 IR Inten    --      4.5789                 2.6500                 6.3252

                     49                     50                     51
                      A                      A                      A
 Frequencies --   1402.0970              1406.9573              1416.1801
 Red. masses --      1.4260                 1.1192                 1.2297
 Frc consts  --      1.6516                 1.3053                 1.4531
 IR Inten    --      4.4882                40.0174                 4.5371

                     52                     53                     54
                      A                      A                      A
 Frequencies --   1423.6522              1472.3159              1492.6270
 Red. masses --      1.4390                 1.0789                 1.0802
 Frc consts  --      1.7184                 1.3779                 1.4179
 IR Inten    --     58.7979                 1.8024                 0.2090

                     55                     56                     57
                      A                      A                      A
 Frequencies --   1498.3986              1500.4051              1504.3831
 Red. masses --      1.0808                 1.0572                 1.0593
 Frc consts  --      1.4298                 1.4022                 1.4125
 IR Inten    --      0.0558                 2.3280                 7.9288

                     58                     59                     60
                      A                      A                      A
 Frequencies --   1513.7017              1651.6763              2369.2728
 Red. masses --      1.0824                 1.0859                11.8638
 Frc consts  --      1.4612                 1.7454                39.2377
 IR Inten    --      7.9040                23.2333                 5.2935

                     61                     62                     63
                      A                      A                      A
 Frequencies --   2936.9753              3008.1534              3011.2091
 Red. masses --      1.0734                 1.0793                 1.0625
 Frc consts  --      5.4553                 5.7543                 5.6760
 IR Inten    --     68.6480                 3.1596                20.0046

                     64                     65                     66
                      A                      A                      A
 Frequencies --   3019.7515              3026.4659              3032.8343
 Red. masses --      1.0544                 1.0846                 1.0403
 Frc consts  --      5.6651                 5.8529                 5.6379
 IR Inten    --     24.7249                23.3540                26.4706

                     67                     68                     69
                      A                      A                      A
 Frequencies --   3036.9271              3045.8099              3071.9821
 Red. masses --      1.0711                 1.0887                 1.1082
 Frc consts  --      5.8205                 5.9505                 6.1619
 IR Inten    --     17.2839                22.3731                24.5799

                     70                     71                     72
                      A                      A                      A
 Frequencies --   3097.2581              3099.4478              3112.8988
 Red. masses --      1.0988                 1.1002                 1.0998
 Frc consts  --      6.2102                 6.2271                 6.2793
 IR Inten    --     23.8640                35.5853                31.2857

                     73                     74                     75
                      A                      A                      A
 Frequencies --   3483.4273              3566.8159              3712.8085
 Red. masses --      1.0491                 1.0925                 1.0684
 Frc consts  --      7.5003                 8.1887                 8.6776
 IR Inten    --      2.0467                 0.3167                27.7557

 - Thermochemistry -
 -------------------
 Temperature   298.150 Kelvin.  Pressure   1.00000 Atm.
 Atom     1 has atomic number  6 and mass  12.00000

 Molecular mass:   173.10519 amu.
 Principal axes and moments of inertia in atomic units:
                           1         2         3
     Eigenvalues --  1399.875396118.964307079.33791
           X            0.99980  -0.01989  -0.00294
           Y            0.01993   0.99970   0.01457
           Z            0.00265  -0.01463   0.99989
 This molecule is an asymmetric top.
 Rotational symmetry number  1.
 Warning -- assumption of classical behavior for rotation
           may cause significant error
 Rotational temperatures (Kelvin)      0.06187     0.01415     0.01223
 Rotational constants (GHZ):           1.28922     0.29494     0.25493
 Zero-point vibrational energy     597275.3 (Joules/Mol)
                                  142.75223 (Kcal/Mol)
 Warning -- explicit consideration of  22 degrees of freedom as
           vibrations may cause significant error
 Vibrational temperatures:      9.75    42.01    46.21   100.62   107.80
          (Kelvin)            121.07   189.53   236.63   270.37   300.05
                              332.72   340.93   418.33   454.45   481.52
                              528.62   592.68   643.14   672.10   722.36
                              790.34   864.62  1085.67  1103.68  1135.04
                             1235.32  1244.88  1331.60  1364.04  1374.08
                             1390.95  1451.38  1460.74  1487.01  1510.96
                             1616.02  1638.57  1668.07  1692.81  1717.90
                             1752.29  1799.55  1859.56  1867.04  1889.01
                             1925.78  1966.02  2001.42  2017.30  2024.30
                             2037.57  2048.32  2118.33  2147.56  2155.86
                             2158.75  2164.47  2177.88  2376.39  3408.86
                             4225.65  4328.06  4332.46  4344.75  4354.41
                             4363.57  4369.46  4382.24  4419.90  4456.26
                             4459.41  4478.77  5011.87  5131.85  5341.90

 Zero-point correction=                           0.227490 (Hartree/Particle)
 Thermal correction to Energy=                    0.242675
 Thermal correction to Enthalpy=                  0.243619
 Thermal correction to Gibbs Free Energy=         0.181259
 Sum of electronic and zero-point Energies=           -593.877005
 Sum of electronic and thermal Energies=              -593.861820
 Sum of electronic and thermal Enthalpies=            -593.860876
 Sum of electronic and thermal Free Energies=         -593.923236

                     E (Thermal)             CV                S
                      KCal/Mol        Cal/Mol-Kelvin    Cal/Mol-Kelvin
 Total                  152.281             52.516            131.249
 Electronic               0.000              0.000              0.000
 Translational            0.889              2.981             41.354
 Rotational               0.889              2.981             32.472
 Vibrational            150.503             46.554             57.423
 Vibration     1          0.593              1.987              8.784
 Vibration     2          0.593              1.984              5.883
 Vibration     3          0.594              1.983              5.694
 Vibration     4          0.598              1.968              4.155
 Vibration     5          0.599              1.966              4.020
 Vibration     6          0.601              1.960              3.792
 Vibration     7          0.612              1.922              2.921
 Vibration     8          0.623              1.886              2.498
 Vibration     9          0.633              1.856              2.248
 Vibration    10          0.642              1.828              2.056
 Vibration    11          0.653              1.793              1.869
 Vibration    12          0.656              1.784              1.826
 Vibration    13          0.687              1.691              1.470
 Vibration    14          0.703              1.643              1.331
 Vibration    15          0.716              1.606              1.237
 Vibration    16          0.740              1.539              1.091
 Vibration    17          0.776              1.444              0.920
 Vibration    18          0.806              1.368              0.805
 Vibration    19          0.824              1.323              0.746
 Vibration    20          0.857              1.245              0.653
 Vibration    21          0.905              1.141              0.546
 Vibration    22          0.959              1.030              0.448

 Optimization completed.
    -- Stationary point found.
 Normal termination of Gaussian 16 at Sun May 28 02:55:14 2023.
