 Gaussian 16, Revision A.03,
 Gaussian 16:  ES64L-G16RevA.03 25-Dec-2016

 -----------------------------
 # opt freq b3lyp/6-31g(2df,p)
 -----------------------------

 -------------------
 Title Card Required
 -------------------
 Symbolic Z-matrix:
 Charge =  0 Multiplicity = 1

 SCF Done:  E(RB3LYP) =  -158.473159279     A.U. after   11 cycles
 SCF Done:  E(RB3LYP) =  -158.473462915     A.U. after    9 cycles
 SCF Done:  E(RB3LYP) =  -158.473487883     A.U. after    7 cycles
 Optimization completed.
    -- Stationary point found.
 Normal termination of Gaussian 16 at Sat May 27 21:13:03 2023.

 ----------------------------------------------------------------------
 #N Geom=AllCheck Guess=TCheck SCRF=Check GenChk RB3LYP/6-31G(2df,p) Fr
 eq
 ----------------------------------------------------------------------

 Structure from the checkpoint file:  "CCqCrC.chk"
 -------------------
 Title Card Required
 -------------------
 Charge =  0 Multiplicity = 1

                         Standard orientation:
 ---------------------------------------------------------------------
 Center     Atomic      Atomic             Coordinates (Angstroms)
 Number     Number       Type             X           Y           Z
 ---------------------------------------------------------------------
      1          6           0       -1.076503    0.987728    0.095839
      2          6           0        0.000010    0.000001   -0.373169
      3          6           0        1.393653    0.438409    0.095845
      4          6           0       -0.317156   -1.426132    0.095843
      5          1           0       -0.872653    2.001682   -0.264659
      6          1           0       -1.119246    1.027214    1.191098
      7          1           0       -2.069260    0.697355   -0.264346
      8          1           0        0.000015   -0.000007   -1.472381
      9          1           0        1.449174    0.455890    1.191103
     10          1           0        1.638669    1.443250   -0.264535
     11          1           0        2.169778   -0.245261   -0.264490
     12          1           0       -0.329751   -1.482975    1.191098
     13          1           0        0.430546   -2.140743   -0.264556
     14          1           0       -1.297298   -1.756444   -0.264475
 ---------------------------------------------------------------------

 SCF Done:  E(RB3LYP) =  -158.473487883     A.U. after    1 cycles

 The electronic state is 1-A.
 Alpha  occ. eigenvalues --  -10.18318 -10.16731 -10.16731 -10.16730  -0.79534
 Alpha  occ. eigenvalues --   -0.67628  -0.67628  -0.55438  -0.45631  -0.42427
 Alpha  occ. eigenvalues --   -0.42426  -0.37745  -0.37745  -0.35762  -0.32194
 Alpha  occ. eigenvalues --   -0.32193  -0.31675
 Alpha virt. eigenvalues --    0.08436   0.13643   0.15343   0.15343   0.15748
 Alpha virt. eigenvalues --    0.15748   0.17475   0.19630   0.19630   0.21787
 Alpha virt. eigenvalues --    0.22593   0.25220   0.25222   0.46190   0.46191

 Mulliken charges:
               1
     1  C   -0.370349
     2  C    0.064057
     3  C   -0.370335
     4  C   -0.370356
     5  H    0.107808
     6  H    0.109522
     7  H    0.107807
     8  H    0.071571
     9  H    0.109520
    10  H    0.107807
    11  H    0.107806
    12  H    0.109524
    13  H    0.107808
    14  H    0.107810
 Sum of Mulliken charges =  -0.00000

 Dipole moment (field-independent basis, Debye):
    X=             -0.0000    Y=             -0.0000    Z=             -0.0900  Tot=              0.0900
 Quadrupole moment (field-independent basis, Debye-Ang):
   XX=            -28.4347   YY=            -28.4346   ZZ=            -27.8577
   XY=              0.0000   XZ=              0.0000   YZ=             -0.0000

  Exact polarizability:  47.287   0.000  47.287   0.000  -0.000  41.816
 Approx polarizability:  60.870  -0.000  60.870  -0.000   0.000  60.982

                      1                      2                      3
                      A                      A                      A
 Frequencies --    212.3347               255.8544               256.2502
 Red. masses --      1.0124                 1.0611                 1.0613
 Frc consts  --      0.0269                 0.0409                 0.0411
 IR Inten    --      0.0000                 0.0200                 0.0200

                      4                      5                      6
                      A                      A                      A
 Frequencies --    360.9505               361.0198               427.1117
 Red. masses --      2.0573                 2.0577                 1.9196
 Frc consts  --      0.1579                 0.1580                 0.2063
 IR Inten    --      0.0012                 0.0012                 0.2447

                      7                      8                      9
                      A                      A                      A
 Frequencies --    798.0252               922.5970               922.9120
 Red. masses --      2.8296                 1.2216                 1.2211
 Frc consts  --      1.0617                 0.6126                 0.6128
 IR Inten    --      0.4441                 0.9073                 0.9079

                     10                     11                     12
                      A                      A                      A
 Frequencies --    954.1471               974.2019               974.2415
 Red. masses --      1.2024                 1.7786                 1.7786
 Frc consts  --      0.6450                 0.9945                 0.9946
 IR Inten    --      0.0000                 0.0156                 0.0155

                     13                     14                     15
                      A                      A                      A
 Frequencies --   1193.1136              1193.1989              1212.3799
 Red. masses --      1.7466                 1.7473                 1.9255
 Frc consts  --      1.4649                 1.4657                 1.6675
 IR Inten    --      2.3684                 2.3676                 0.2771

                     16                     17                     18
                      A                      A                      A
 Frequencies --   1359.3934              1359.4358              1399.7222
 Red. masses --      1.3865                 1.3868                 1.2566
 Frc consts  --      1.5096                 1.5100                 1.4505
 IR Inten    --      4.9780                 4.9820                 3.4431

                     19                     20                     21
                      A                      A                      A
 Frequencies --   1399.8550              1430.0808              1481.8884
 Red. masses --      1.2563                 1.2296                 1.0488
 Frc consts  --      1.4505                 1.4816                 1.3570
 IR Inten    --      3.4397                 1.8618                 0.0000

                     22                     23                     24
                      A                      A                      A
 Frequencies --   1488.4214              1488.4789              1507.7524
 Red. masses --      1.0410                 1.0410                 1.0602
 Frc consts  --      1.3587                 1.3588                 1.4200
 IR Inten    --      0.3389                 0.3392                 2.0865

                     25                     26                     27
                      A                      A                      A
 Frequencies --   1507.7857              1514.5681              3000.9911
 Red. masses --      1.0601                 1.0446                 1.0825
 Frc consts  --      1.4200                 1.4118                 5.7441
 IR Inten    --      2.0885                11.9889                16.0772

                     28                     29                     30
                      A                      A                      A
 Frequencies --   3020.0200              3020.0477              3027.2304
 Red. masses --      1.0351                 1.0351                 1.0363
 Frc consts  --      5.5621                 5.5621                 5.5952
 IR Inten    --     32.4985                32.5343                11.9343

                     31                     32                     33
                      A                      A                      A
 Frequencies --   3084.7760              3084.8079              3092.5896
 Red. masses --      1.1007                 1.1007                 1.1023
 Frc consts  --      6.1711                 6.1712                 6.2116
 IR Inten    --      5.6628                 5.6510                 0.0052

                     34                     35                     36
                      A                      A                      A
 Frequencies --   3094.3143              3096.9352              3096.9797
 Red. masses --      1.0998                 1.1012                 1.1012
 Frc consts  --      6.2041                 6.2225                 6.2227
 IR Inten    --     95.5495                54.5386                54.5613

 - Thermochemistry -
 -------------------
 Temperature   298.150 Kelvin.  Pressure   1.00000 Atm.
 Atom     1 has atomic number  6 and mass  12.00000

 Molecular mass:    58.07825 amu.
 Principal axes and moments of inertia in atomic units:
                           1         2         3
     Eigenvalues --   232.90437 232.90739 402.28483
           X            0.99973  -0.02328  -0.00000
           Y            0.02328   0.99973   0.00000
           Z            0.00000  -0.00000   1.00000
 This molecule is an asymmetric top.
 Rotational symmetry number  1.
 Rotational temperatures (Kelvin)      0.37189     0.37188     0.21530
 Rotational constants (GHZ):           7.74885     7.74875     4.48623
 Zero-point vibrational energy     344371.5 (Joules/Mol)
                                   82.30676 (Kcal/Mol)
 Warning -- explicit consideration of   6 degrees of freedom as
           vibrations may cause significant error
 Vibrational temperatures:    305.50   368.12   368.69   519.33   519.43
          (Kelvin)            614.52  1148.18  1327.41  1327.86  1372.80
                             1401.66  1401.72  1716.62  1716.75  1744.34
                             1955.86  1955.92  2013.89  2014.08  2057.57
                             2132.11  2141.51  2141.59  2169.32  2169.37
                             2179.13  4317.76  4345.14  4345.18  4355.51
                             4438.30  4438.35  4449.55  4452.03  4455.80
                             4455.86

 Zero-point correction=                           0.131164 (Hartree/Particle)
 Thermal correction to Energy=                    0.136900
 Thermal correction to Enthalpy=                  0.137844
 Thermal correction to Gibbs Free Energy=         0.103506
 Sum of electronic and zero-point Energies=           -158.342324
 Sum of electronic and thermal Energies=              -158.336588
 Sum of electronic and thermal Enthalpies=            -158.335644
 Sum of electronic and thermal Free Energies=         -158.369982

                     E (Thermal)             CV                S
                      KCal/Mol        Cal/Mol-Kelvin    Cal/Mol-Kelvin
 Total                   85.906             20.262             72.270
 Electronic               0.000              0.000              0.000
 Translational            0.889              2.981             38.098
 Rotational               0.889              2.981             24.593
 Vibrational             84.128             14.300              9.579
 Vibration     1          0.643              1.822              2.024
 Vibration     2          0.666              1.753              1.690
 Vibration     3          0.666              1.752              1.687
 Vibration     4          0.735              1.553              1.118
 Vibration     5          0.735              1.553              1.118
 Vibration     6          0.789              1.411              0.868

 Optimization completed.
    -- Stationary point found.
 Normal termination of Gaussian 16 at Sat May 27 21:20:23 2023.
