 Gaussian 16, Revision A.03,
 Gaussian 16:  ES64L-G16RevA.03 25-Dec-2016

 -----------------------------
 # opt freq b3lyp/6-31g(2df,p)
 -----------------------------

 -------------------
 Title Card Required
 -------------------
 Symbolic Z-matrix:
 Charge =  0 Multiplicity = 1

 SCF Done:  E(RB3LYP) =  -534.592612601     A.U. after   14 cycles
 SCF Done:  E(RB3LYP) =  -534.638152477     A.U. after   12 cycles
 SCF Done:  E(RB3LYP) =  -534.705442448     A.U. after   11 cycles
 SCF Done:  E(RB3LYP) =  -534.739331067     A.U. after   11 cycles
 SCF Done:  E(RB3LYP) =  -534.797353614     A.U. after   11 cycles
 SCF Done:  E(RB3LYP) =  -534.815665498     A.U. after   10 cycles
 SCF Done:  E(RB3LYP) =  -534.831027371     A.U. after   11 cycles
 SCF Done:  E(RB3LYP) =  -534.837895473     A.U. after   10 cycles
 SCF Done:  E(RB3LYP) =  -534.844086887     A.U. after   12 cycles
 SCF Done:  E(RB3LYP) =  -534.845126645     A.U. after   10 cycles
 SCF Done:  E(RB3LYP) =  -534.845314907     A.U. after    9 cycles
 SCF Done:  E(RB3LYP) =  -534.845334741     A.U. after    8 cycles
 SCF Done:  E(RB3LYP) =  -534.845346227     A.U. after    8 cycles
 SCF Done:  E(RB3LYP) =  -534.845347491     A.U. after    7 cycles
 SCF Done:  E(RB3LYP) =  -534.845347662     A.U. after    6 cycles
 Optimization completed.
    -- Stationary point found.
 Normal termination of Gaussian 16 at Sat May 27 23:04:09 2023.

 ----------------------------------------------------------------------
 #N Geom=AllCheck Guess=TCheck SCRF=Check GenChk RB3LYP/6-31G(2df,p) Fr
 eq
 ----------------------------------------------------------------------

 Structure from the checkpoint file:  "CCqCrCqCrCqFrqFrF.chk"
 -------------------
 Title Card Required
 -------------------
 Charge =  0 Multiplicity = 1

                         Standard orientation:
 ---------------------------------------------------------------------
 Center     Atomic      Atomic             Coordinates (Angstroms)
 Number     Number       Type             X           Y           Z
 ---------------------------------------------------------------------
      1          6           0       -3.091645   -0.411433   -0.773148
      2          6           0       -2.489981   -0.026284    0.582621
      3          6           0       -1.004076   -0.382513    0.742758
      4          6           0       -0.048470    0.332086   -0.233549
      5          6           0       -0.028277    1.857407   -0.064631
      6          6           0        1.360446   -0.225583   -0.079881
      7          9           0        1.858160   -0.003971    1.150116
      8          9           0        1.397978   -1.553107   -0.289016
      9          9           0        2.213533    0.331935   -0.957273
     10          1           0       -4.166666   -0.208417   -0.795319
     11          1           0       -2.949972   -1.478284   -0.979465
     12          1           0       -2.639253    0.147396   -1.599074
     13          1           0       -2.642422    1.044448    0.763338
     14          1           0       -3.042080   -0.542206    1.377129
     15          1           0       -0.883399   -1.464263    0.616158
     16          1           0       -0.685746   -0.152462    1.766372
     17          1           0       -0.332634    0.088759   -1.263950
     18          1           0        0.241798    2.130577    0.960044
     19          1           0       -1.010300    2.282673   -0.282582
     20          1           0        0.695638    2.315998   -0.742120
 ---------------------------------------------------------------------

 SCF Done:  E(RB3LYP) =  -534.845347662     A.U. after    1 cycles

 The electronic state is 1-A.
 Alpha  occ. eigenvalues --  -24.71114 -24.71103 -24.71059 -10.40728 -10.20818
 Alpha  occ. eigenvalues --  -10.18916 -10.18821 -10.18584 -10.17969  -1.29738
 Alpha  occ. eigenvalues --   -1.20846  -1.20810  -0.82987  -0.76936  -0.69585
 Alpha  occ. eigenvalues --   -0.68743  -0.63084  -0.58603  -0.57545  -0.56653
 Alpha  occ. eigenvalues --   -0.52890  -0.47907  -0.45439  -0.44963  -0.44442
 Alpha  occ. eigenvalues --   -0.42737  -0.42499  -0.40814  -0.40545  -0.39726
 Alpha  occ. eigenvalues --   -0.39190  -0.37259  -0.36249  -0.35940  -0.33472
 Alpha  occ. eigenvalues --   -0.32922  -0.32701
 Alpha virt. eigenvalues --    0.07329   0.10951   0.12036   0.13232   0.13731
 Alpha virt. eigenvalues --    0.14898   0.16047   0.16143   0.17147   0.17665
 Alpha virt. eigenvalues --    0.18509   0.19267   0.20129   0.22570   0.23669

 Mulliken charges:
               1
     1  C   -0.372873
     2  C   -0.196220
     3  C   -0.192347
     4  C   -0.119190
     5  C   -0.412054
     6  C    0.289424
     7  F   -0.089519
     8  F   -0.085658
     9  F   -0.086277
    10  H    0.116292
    11  H    0.118514
    12  H    0.117957
    13  H    0.101519
    14  H    0.100846
    15  H    0.110565
    16  H    0.106912
    17  H    0.103597
    18  H    0.131062
    19  H    0.124786
    20  H    0.132662
 Sum of Mulliken charges =  -0.00000

 Dipole moment (field-independent basis, Debye):
    X=             -2.0817    Y=              0.7291    Z=             -0.0664  Tot=              2.2067
 Quadrupole moment (field-independent basis, Debye-Ang):
   XX=            -55.8410   YY=            -53.4447   ZZ=            -53.6854
   XY=              0.6867   XZ=             -0.1427   YZ=             -0.2454

  Exact polarizability:  74.877   2.091  65.634  -0.093  -0.319  62.528
 Approx polarizability:  92.862   1.420  93.563  -0.820  -0.023  93.106

                      1                      2                      3
                      A                      A                      A
 Frequencies --     42.3149                69.7574               114.5999
 Red. masses --      3.0307                 5.5203                 2.0896
 Frc consts  --      0.0032                 0.0158                 0.0162
 IR Inten    --      0.2384                 0.1433                 0.0539

                      4                      5                      6
                      A                      A                      A
 Frequencies --    176.5265               201.6095               234.3126
 Red. masses --      2.4809                 1.3147                 1.4162
 Frc consts  --      0.0455                 0.0315                 0.0458
 IR Inten    --      0.6721                 0.2861                 0.2891

                      7                      8                      9
                      A                      A                      A
 Frequencies --    251.3932               289.4741               330.3591
 Red. masses --      4.4733                 1.8124                 2.9133
 Frc consts  --      0.1666                 0.0895                 0.1873
 IR Inten    --      0.4365                 0.2087                 2.0431

                     10                     11                     12
                      A                      A                      A
 Frequencies --    397.8223               424.2160               460.7729
 Red. masses --      5.7295                 2.4469                 3.5285
 Frc consts  --      0.5343                 0.2594                 0.4414
 IR Inten    --      2.0392                 1.4037                 1.2997

                     13                     14                     15
                      A                      A                      A
 Frequencies --    555.1651               571.6740               657.7516
 Red. masses --      6.5801                10.6922                 3.9129
 Frc consts  --      1.1949                 2.0588                 0.9974
 IR Inten    --      2.6261                 0.5288                 8.8785

                     16                     17                     18
                      A                      A                      A
 Frequencies --    747.2060               816.2919               860.1215
 Red. masses --      1.6053                 2.4813                 2.0873
 Frc consts  --      0.5281                 0.9741                 0.9098
 IR Inten    --      6.5509                 0.6917                 1.3809

                     19                     20                     21
                      A                      A                      A
 Frequencies --    868.1365               921.0533              1004.6170
 Red. masses --      1.6558                 1.7137                 1.3819
 Frc consts  --      0.7353                 0.8565                 0.8217
 IR Inten    --      1.4561                 3.0868                18.4716

                     22                     23                     24
                      A                      A                      A
 Frequencies --   1018.4128              1061.8310              1081.5466
 Red. masses --      1.6435                 1.7110                 2.5266
 Frc consts  --      1.0043                 1.1366                 1.7413
 IR Inten    --      4.1053                24.6220                30.9658

                     25                     26                     27
                      A                      A                      A
 Frequencies --   1136.0532              1165.6032              1178.3419
 Red. masses --      2.3413                 3.3883                 2.3140
 Frc consts  --      1.7804                 2.7123                 1.8930
 IR Inten    --     35.6526               140.4196                28.5118

                     28                     29                     30
                      A                      A                      A
 Frequencies --   1205.5354              1264.8272              1284.9997
 Red. masses --      5.0909                 1.5996                 2.6797
 Frc consts  --      4.3592                 1.5077                 2.6070
 IR Inten    --    152.5058                29.2404               117.8911

                     31                     32                     33
                      A                      A                      A
 Frequencies --   1293.3869              1348.3641              1365.9513
 Red. masses --      1.3284                 1.2707                 1.5700
 Frc consts  --      1.3093                 1.3612                 1.7259
 IR Inten    --     20.3763                 4.6677                27.8910

                     34                     35                     36
                      A                      A                      A
 Frequencies --   1383.2485              1402.3148              1411.8135
 Red. masses --      1.3607                 1.5937                 1.2495
 Frc consts  --      1.5339                 1.8466                 1.4674
 IR Inten    --      1.5800                25.5318                 4.4503

                     37                     38                     39
                      A                      A                      A
 Frequencies --   1417.8090              1484.5410              1491.6533
 Red. masses --      1.2771                 1.0659                 1.0681
 Frc consts  --      1.5125                 1.3841                 1.4002
 IR Inten    --      4.5008                 0.9783                 1.0575

                     40                     41                     42
                      A                      A                      A
 Frequencies --   1497.1089              1504.1897              1508.1061
 Red. masses --      1.0527                 1.0456                 1.0707
 Frc consts  --      1.3901                 1.3938                 1.4348
 IR Inten    --      6.1118                 3.0160                 2.7313

                     43                     44                     45
                      A                      A                      A
 Frequencies --   1513.4689              3028.1176              3032.4948
 Red. masses --      1.0630                 1.0588                 1.0394
 Frc consts  --      1.4347                 5.7199                 5.6316
 IR Inten    --     14.1000                13.9558                25.4464

                     46                     47                     48
                      A                      A                      A
 Frequencies --   3035.1170              3048.3365              3052.5211
 Red. masses --      1.0608                 1.0705                 1.0482
 Frc consts  --      5.7576                 5.8606                 5.7545
 IR Inten    --     11.5220                 3.1178                15.5263

                     49                     50                     51
                      A                      A                      A
 Frequencies --   3058.7460              3080.2855              3099.5589
 Red. masses --      1.0983                 1.1012                 1.1017
 Frc consts  --      6.0543                 6.1559                 6.2360
 IR Inten    --     16.6626                30.8623                50.0435

                     52                     53                     54
                      A                      A                      A
 Frequencies --   3103.7069              3123.3684              3131.8171
 Red. masses --      1.1005                 1.1005                 1.1018
 Frc consts  --      6.2461                 6.3255                 6.3672
 IR Inten    --     36.1149                19.2012                17.4294

 - Thermochemistry -
 -------------------
 Temperature   298.150 Kelvin.  Pressure   1.00000 Atm.
 Atom     1 has atomic number  6 and mass  12.00000

 Molecular mass:   140.08129 amu.
 Principal axes and moments of inertia in atomic units:
                           1         2         3
     Eigenvalues --   685.564701944.104342085.95505
           X            0.99985   0.01553   0.00822
           Y           -0.01548   0.99986  -0.00645
           Z           -0.00832   0.00632   0.99995
 This molecule is an asymmetric top.
 Rotational symmetry number  1.
 Warning -- assumption of classical behavior for rotation
           may cause significant error
 Rotational temperatures (Kelvin)      0.12634     0.04455     0.04152
 Rotational constants (GHZ):           2.63249     0.92831     0.86519
 Zero-point vibrational energy     435490.7 (Joules/Mol)
                                  104.08477 (Kcal/Mol)
 Warning -- explicit consideration of  14 degrees of freedom as
           vibrations may cause significant error
 Vibrational temperatures:     60.88   100.37   164.88   253.98   290.07
          (Kelvin)            337.12   361.70   416.49   475.31   572.38
                              610.35   662.95   798.76   822.51   946.36
                             1075.06  1174.46  1237.52  1249.05  1325.19
                             1445.42  1465.27  1527.74  1556.10  1634.53
                             1677.04  1695.37  1734.50  1819.80  1848.83
                             1860.90  1940.00  1965.30  1990.19  2017.62
                             2031.28  2039.91  2135.92  2146.16  2154.01
                             2164.19  2169.83  2177.54  4356.79  4363.08
                             4366.86  4385.88  4391.90  4400.85  4431.84
                             4459.57  4465.54  4493.83  4505.99

 Zero-point correction=                           0.165870 (Hartree/Particle)
 Thermal correction to Energy=                    0.176025
 Thermal correction to Enthalpy=                  0.176969
 Thermal correction to Gibbs Free Energy=         0.129883
 Sum of electronic and zero-point Energies=           -534.679478
 Sum of electronic and thermal Energies=              -534.669323
 Sum of electronic and thermal Enthalpies=            -534.668379
 Sum of electronic and thermal Free Energies=         -534.715464

                     E (Thermal)             CV                S
                      KCal/Mol        Cal/Mol-Kelvin    Cal/Mol-Kelvin
 Total                  110.457             36.543             99.101
 Electronic               0.000              0.000              0.000
 Translational            0.889              2.981             40.723
 Rotational               0.889              2.981             29.410
 Vibrational            108.680             30.582             28.968
 Vibration     1          0.595              1.980              5.148
 Vibration     2          0.598              1.969              4.160
 Vibration     3          0.608              1.937              3.189
 Vibration     4          0.628              1.871              2.365
 Vibration     5          0.638              1.838              2.118
 Vibration     6          0.654              1.788              1.846
 Vibration     7          0.663              1.760              1.721
 Vibration     8          0.686              1.693              1.477
 Vibration     9          0.713              1.615              1.258
 Vibration    10          0.764              1.475              0.971
 Vibration    11          0.786              1.418              0.878
 Vibration    12          0.819              1.337              0.764
 Vibration    13          0.911              1.128              0.534
 Vibration    14          0.928              1.093              0.501

 Optimization completed.
    -- Stationary point found.
 Normal termination of Gaussian 16 at Sat May 27 23:48:20 2023.
