 Gaussian 16, Revision A.03,
 Gaussian 16:  ES64L-G16RevA.03 25-Dec-2016

 -----------------------------
 # opt freq b3lyp/6-31g(2df,p)
 -----------------------------

 -------------------
 Title Card Required
 -------------------
 Symbolic Z-matrix:
 Charge =  0 Multiplicity = 1

 SCF Done:  E(RB3LYP) =  -734.461378306     A.U. after   13 cycles
 SCF Done:  E(RB3LYP) =  -734.467849254     A.U. after   11 cycles
 SCF Done:  E(RB3LYP) =  -734.468660075     A.U. after   10 cycles
 SCF Done:  E(RB3LYP) =  -734.468831030     A.U. after   10 cycles
 SCF Done:  E(RB3LYP) =  -734.468956521     A.U. after   11 cycles
 SCF Done:  E(RB3LYP) =  -734.469059124     A.U. after   12 cycles
 SCF Done:  E(RB3LYP) =  -734.469209259     A.U. after   11 cycles
 SCF Done:  E(RB3LYP) =  -734.469477946     A.U. after   12 cycles
 SCF Done:  E(RB3LYP) =  -734.469340525     A.U. after   11 cycles
 SCF Done:  E(RB3LYP) =  -734.467480885     A.U. after   13 cycles
 SCF Done:  E(RB3LYP) =  -734.468229854     A.U. after   12 cycles
 SCF Done:  E(RB3LYP) =  -734.469621157     A.U. after   11 cycles
 SCF Done:  E(RB3LYP) =  -734.469630879     A.U. after    9 cycles
 SCF Done:  E(RB3LYP) =  -734.469636390     A.U. after    9 cycles
 SCF Done:  E(RB3LYP) =  -734.469638516     A.U. after    7 cycles
 SCF Done:  E(RB3LYP) =  -734.469639630     A.U. after    8 cycles
 SCF Done:  E(RB3LYP) =  -734.469639857     A.U. after    7 cycles
 SCF Done:  E(RB3LYP) =  -734.469639881     A.U. after    7 cycles
 SCF Done:  E(RB3LYP) =  -734.469639883     A.U. after    6 cycles
 Optimization completed.
    -- Stationary point found.
 Normal termination of Gaussian 16 at Mon May 22 17:59:32 2023.

 ----------------------------------------------------------------------
 #N Geom=AllCheck Guess=TCheck SCRF=Check GenChk RB3LYP/6-31G(2df,p) Fr
 eq
 ----------------------------------------------------------------------

 Structure from the checkpoint file:  "CCqCCOrCCCCCCqOrCOO.chk"
 -------------------
 Title Card Required
 -------------------
 Charge =  0 Multiplicity = 1

                         Standard orientation:
 ---------------------------------------------------------------------
 Center     Atomic      Atomic             Coordinates (Angstroms)
 Number     Number       Type             X           Y           Z
 ---------------------------------------------------------------------
      1          6           0       -4.998690   -1.957491    0.029848
      2          6           0       -3.974664   -0.855008   -0.283992
      3          6           0       -4.412831    0.512181    0.275073
      4          6           0       -5.687413    1.087806   -0.347721
      5          8           0       -5.947672    2.417339    0.081190
      6          6           0       -2.582126   -1.267730    0.234227
      7          6           0       -1.411869   -0.404572   -0.252850
      8          6           0       -0.048332   -0.923628    0.219051
      9          6           0        1.126421   -0.067017   -0.263688
     10          6           0        2.489264   -0.590971    0.200571
     11          6           0        3.657304    0.308069   -0.229926
     12          8           0        3.502255    1.645389    0.228541
     13          6           0        4.996361   -0.287012    0.207436
     14          8           0        6.017728    0.466146   -0.419305
     15          8           0        7.273821   -0.143209   -0.040841
     16          1           0       -5.984052   -1.740529   -0.392176
     17          1           0       -5.120322   -2.079772    1.113197
     18          1           0       -4.672260   -2.920596   -0.376204
     19          1           0       -3.904704   -0.761720   -1.378629
     20          1           0       -3.622375    1.254403    0.121969
     21          1           0       -4.551662    0.424547    1.364096
     22          1           0       -6.552650    0.437612   -0.150008
     23          1           0       -5.573889    1.148858   -1.436298
     24          1           0       -6.087578    2.394229    1.033150
     25          1           0       -2.396417   -2.306437   -0.071302
     26          1           0       -2.597585   -1.278103    1.333998
     27          1           0       -1.532504    0.631238    0.087429
     28          1           0       -1.423448   -0.366159   -1.351172
     29          1           0        0.085801   -1.958608   -0.125949
     30          1           0       -0.038281   -0.969832    1.317388
     31          1           0        1.006561    0.964953    0.084780
     32          1           0        1.116534   -0.018461   -1.361297
     33          1           0        2.653412   -1.603222   -0.190868
     34          1           0        2.496686   -0.682393    1.297782
     35          1           0        3.667183    0.391950   -1.323404
     36          1           0        3.511534    1.628580    1.192457
     37          1           0        5.067027   -1.340468   -0.094342
     38          1           0        5.098058   -0.237916    1.303970
     39          1           0        7.665324    0.574758    0.476577
 ---------------------------------------------------------------------

 SCF Done:  E(RB3LYP) =  -734.469639883     A.U. after    1 cycles

 The electronic state is 1-A.
 Alpha  occ. eigenvalues --  -19.18911 -19.18708 -19.13774 -19.12900 -10.23676
 Alpha  occ. eigenvalues --  -10.22997 -10.22128 -10.18777 -10.18601 -10.17896
 Alpha  occ. eigenvalues --  -10.17797 -10.17710 -10.17686 -10.17598 -10.17317
 Alpha  occ. eigenvalues --   -1.11276  -1.02111  -1.00955  -0.90799  -0.81891
 Alpha  occ. eigenvalues --   -0.79952  -0.76389  -0.72510  -0.70790  -0.66852
 Alpha  occ. eigenvalues --   -0.63068  -0.61231  -0.59732  -0.57815  -0.55872
 Alpha  occ. eigenvalues --   -0.52526  -0.49854  -0.49438  -0.48528  -0.47714
 Alpha  occ. eigenvalues --   -0.46245  -0.45042  -0.44199  -0.43801  -0.42446
 Alpha  occ. eigenvalues --   -0.41947  -0.41552  -0.39994  -0.39112  -0.38320
 Alpha  occ. eigenvalues --   -0.37644  -0.36777  -0.36325  -0.34939  -0.34290
 Alpha  occ. eigenvalues --   -0.33749  -0.32969  -0.32437  -0.31957  -0.31807
 Alpha  occ. eigenvalues --   -0.30919  -0.30651  -0.29942  -0.26858  -0.25923
 Alpha  occ. eigenvalues --   -0.25721
 Alpha virt. eigenvalues --    0.03380   0.06779   0.08017   0.08471   0.08923
 Alpha virt. eigenvalues --    0.09683   0.10220   0.11035   0.11820   0.12381
 Alpha virt. eigenvalues --    0.12533   0.14218   0.14870   0.15275   0.15695

 Mulliken charges:
               1
     1  C   -0.400605
     2  C    0.022897
     3  C   -0.196863
     4  C   -0.065830
     5  O   -0.418949
     6  C   -0.179991
     7  C   -0.193742
     8  C   -0.183348
     9  C   -0.179495
    10  C   -0.215560
    11  C    0.086035
    12  O   -0.422325
    13  C   -0.015763
    14  O   -0.187815
    15  O   -0.323891
    16  H    0.115148
    17  H    0.110096
    18  H    0.110967
    19  H    0.070220
    20  H    0.107957
    21  H    0.078436
    22  H    0.087281
    23  H    0.109374
    24  H    0.278515
    25  H    0.087086
    26  H    0.087186
    27  H    0.100346
    28  H    0.093247
    29  H    0.090665
    30  H    0.089061
    31  H    0.108528
    32  H    0.095035
    33  H    0.099514
    34  H    0.084381
    35  H    0.104638
    36  H    0.276151
    37  H    0.104024
    38  H    0.075987
    39  H    0.311400
 Sum of Mulliken charges =  -0.00000

 Dipole moment (field-independent basis, Debye):
    X=             -0.3972    Y=             -1.8438    Z=              3.0768  Tot=              3.6089
 Quadrupole moment (field-independent basis, Debye-Ang):
   XX=           -100.9754   YY=           -101.7798   ZZ=            -88.8193
   XY=              7.9539   XZ=              6.8030   YZ=              6.3537

  Exact polarizability: 182.125  -0.344 127.923   1.643   1.952 117.214
 Approx polarizability: 197.170  -2.995 188.852   1.511   2.595 189.066

                      1                      2                      3
                      A                      A                      A
 Frequencies --     17.8351                24.1300                33.3009
 Red. masses --      4.2970                 4.4016                 3.4906
 Frc consts  --      0.0008                 0.0015                 0.0023
 IR Inten    --      1.1223                 0.1424                 0.1341

                      4                      5                      6
                      A                      A                      A
 Frequencies --     53.8249                63.5034                73.5225
 Red. masses --      2.0214                 4.1166                 2.5249
 Frc consts  --      0.0035                 0.0098                 0.0080
 IR Inten    --      4.1532                 0.3524                 0.8226

                      7                      8                      9
                      A                      A                      A
 Frequencies --     89.7251                98.3983               111.3360
 Red. masses --      3.3358                 2.8924                 2.8447
 Frc consts  --      0.0158                 0.0165                 0.0208
 IR Inten    --      5.6485                 2.0117                 1.8486

                     10                     11                     12
                      A                      A                      A
 Frequencies --    127.2909               144.6408               155.6096
 Red. masses --      3.0259                 2.8304                 2.1254
 Frc consts  --      0.0289                 0.0349                 0.0303
 IR Inten    --      1.2200                 0.2869                 0.4097

                     13                     14                     15
                      A                      A                      A
 Frequencies --    179.2186               187.6560               201.4191
 Red. masses --      3.1024                 2.7735                 1.1179
 Frc consts  --      0.0587                 0.0575                 0.0267
 IR Inten    --      1.0299                 0.3087               127.7800

                     16                     17                     18
                      A                      A                      A
 Frequencies --    205.4282               239.0967               275.9493
 Red. masses --      2.3543                 1.5180                 1.0769
 Frc consts  --      0.0585                 0.0511                 0.0483
 IR Inten    --      1.8849                 1.1916               114.8476

                     19                     20                     21
                      A                      A                      A
 Frequencies --    288.1385               297.7969               338.0448
 Red. masses --      2.8644                 1.1986                 3.4448
 Frc consts  --      0.1401                 0.0626                 0.2319
 IR Inten    --     14.5497                76.1177                15.3533

                     22                     23                     24
                      A                      A                      A
 Frequencies --    353.5187               372.0519               407.6934
 Red. masses --      3.7559                 4.2571                 3.1326
 Frc consts  --      0.2766                 0.3472                 0.3068
 IR Inten    --      4.0427                 1.2385                 3.2713

                     25                     26                     27
                      A                      A                      A
 Frequencies --    456.9874               478.2988               496.1176
 Red. masses --      2.4711                 2.2973                 3.0990
 Frc consts  --      0.3041                 0.3097                 0.4494
 IR Inten    --      8.1961                 3.2882                 1.2533

                     28                     29                     30
                      A                      A                      A
 Frequencies --    521.1741               594.6949               732.5400
 Red. masses --      2.6620                 3.1638                 1.0757
 Frc consts  --      0.4260                 0.6592                 0.3401
 IR Inten    --      1.2114                28.9106                 3.1405

                     31                     32                     33
                      A                      A                      A
 Frequencies --    753.3801               781.0119               813.8556
 Red. masses --      1.1735                 1.1860                 1.4710
 Frc consts  --      0.3924                 0.4262                 0.5741
 IR Inten    --      0.2792                 2.4221                 0.3747

                     34                     35                     36
                      A                      A                      A
 Frequencies --    859.9634               888.6880               922.0701
 Red. masses --      2.0671                 2.8427                 1.5125
 Frc consts  --      0.9007                 1.3227                 0.7577
 IR Inten    --      1.7092                25.4131                 2.3165

                     37                     38                     39
                      A                      A                      A
 Frequencies --    943.2549               949.4883               960.5063
 Red. masses --      2.6713                 3.4828                 1.3095
 Frc consts  --      1.4003                 1.8499                 0.7118
 IR Inten    --      2.9180                 9.8024                 5.2455

                     40                     41                     42
                      A                      A                      A
 Frequencies --    984.7033              1003.9707              1018.4372
 Red. masses --      1.7997                 3.5640                 3.1908
 Frc consts  --      1.0282                 2.1165                 1.9499
 IR Inten    --      6.5424                 3.4282                30.8579

                     43                     44                     45
                      A                      A                      A
 Frequencies --   1035.2590              1040.5464              1049.2438
 Red. masses --      3.1492                 1.6006                 3.3889
 Frc consts  --      1.9886                 1.0211                 2.1981
 IR Inten    --      0.3011                 5.9183                 9.3104

                     46                     47                     48
                      A                      A                      A
 Frequencies --   1066.5310              1074.5557              1077.2761
 Red. masses --      2.3941                 2.8716                 3.2778
 Frc consts  --      1.6045                 1.9536                 2.2412
 IR Inten    --      2.7458                42.3299                47.4768

                     49                     50                     51
                      A                      A                      A
 Frequencies --   1091.2545              1122.5382              1129.1625
 Red. masses --      2.0646                 1.8059                 2.1062
 Frc consts  --      1.4486                 1.3407                 1.5822
 IR Inten    --     45.1863                35.0502                 5.0936

                     52                     53                     54
                      A                      A                      A
 Frequencies --   1135.9204              1149.3316              1168.6189
 Red. masses --      1.3145                 2.7929                 2.1433
 Frc consts  --      0.9993                 2.1737                 1.7246
 IR Inten    --      3.5170                11.3167                 8.5469

                     55                     56                     57
                      A                      A                      A
 Frequencies --   1221.7545              1226.4046              1238.8073
 Red. masses --      1.5639                 1.2020                 1.2873
 Frc consts  --      1.3754                 1.0652                 1.1640
 IR Inten    --      7.1315                 5.9672                 0.6512

                     58                     59                     60
                      A                      A                      A
 Frequencies --   1257.2694              1283.0295              1293.2297
 Red. masses --      1.4291                 1.2376                 1.2770
 Frc consts  --      1.3310                 1.2003                 1.2583
 IR Inten    --      0.4223                 1.3261                 0.4396

                     61                     62                     63
                      A                      A                      A
 Frequencies --   1304.1226              1317.3395              1321.8605
 Red. masses --      1.2274                 1.2017                 1.2710
 Frc consts  --      1.2299                 1.2287                 1.3085
 IR Inten    --      8.5620                 9.6609                 1.1604

                     64                     65                     66
                      A                      A                      A
 Frequencies --   1333.3654              1336.5041              1352.7665
 Red. masses --      1.1003                 1.1295                 1.3198
 Frc consts  --      1.1526                 1.1887                 1.4230
 IR Inten    --      0.8439                 1.6993                 1.0642

                     67                     68                     69
                      A                      A                      A
 Frequencies --   1358.1257              1371.6816              1380.5307
 Red. masses --      1.2926                 1.3136                 1.2836
 Frc consts  --      1.4047                 1.4562                 1.4413
 IR Inten    --      2.4189                10.4930                35.0838

                     70                     71                     72
                      A                      A                      A
 Frequencies --   1386.0617              1400.1320              1400.9424
 Red. masses --      1.3502                 1.6207                 1.5003
 Frc consts  --      1.5283                 1.8720                 1.7349
 IR Inten    --     14.5265                 0.0281                 5.0775

                     73                     74                     75
                      A                      A                      A
 Frequencies --   1403.3636              1406.4025              1413.8352
 Red. masses --      1.3338                 1.3877                 1.2490
 Frc consts  --      1.5477                 1.6173                 1.4710
 IR Inten    --      3.0789                 5.1240                 2.6209

                     76                     77                     78
                      A                      A                      A
 Frequencies --   1421.7835              1424.5909              1477.3215
 Red. masses --      1.2829                 1.1991                 1.0809
 Frc consts  --      1.5279                 1.4338                 1.3899
 IR Inten    --     40.2197                44.4876                 0.7398

                     79                     80                     81
                      A                      A                      A
 Frequencies --   1479.6073              1484.5368              1486.5060
 Red. masses --      1.0805                 1.0814                 1.0790
 Frc consts  --      1.3937                 1.4042                 1.4048
 IR Inten    --      1.0870                 0.0926                 0.1735

                     82                     83                     84
                      A                      A                      A
 Frequencies --   1497.2236              1502.1530              1503.3629
 Red. masses --      1.0843                 1.0692                 1.0503
 Frc consts  --      1.4321                 1.4215                 1.3986
 IR Inten    --      0.1357                 1.9717                 6.3594

                     85                     86                     87
                      A                      A                      A
 Frequencies --   1511.3639              1514.1620              1515.4962
 Red. masses --      1.0894                 1.0962                 1.0918
 Frc consts  --      1.4661                 1.4808                 1.4774
 IR Inten    --      6.3216                 4.5258                 0.4169

                     88                     89                     90
                      A                      A                      A
 Frequencies --   2971.0223              2981.9120              2990.0420
 Red. masses --      1.0638                 1.0763                 1.0693
 Frc consts  --      5.5323                 5.6384                 5.6323
 IR Inten    --     31.1520                 5.9441                46.2244

                     91                     92                     93
                      A                      A                      A
 Frequencies --   2991.4278              2992.1824              2998.6229
 Red. masses --      1.0650                 1.0669                 1.0621
 Frc consts  --      5.6150                 5.6277                 5.6267
 IR Inten    --     12.2018                17.1519                 4.4076

                     94                     95                     96
                      A                      A                      A
 Frequencies --   3000.8498              3011.7660              3017.5464
 Red. masses --      1.0612                 1.0636                 1.0755
 Frc consts  --      5.6305                 5.6845                 5.7697
 IR Inten    --     25.9747                19.2594                48.0405

                     97                     98                     99
                      A                      A                      A
 Frequencies --   3026.7949              3028.1492              3031.6806
 Red. masses --      1.0396                 1.0851                 1.0992
 Frc consts  --      5.6118                 5.8624                 5.9526
 IR Inten    --     33.5082                42.9198                 2.5640

                    100                    101                    102
                      A                      A                      A
 Frequencies --   3032.5897              3039.9073              3055.8996
 Red. masses --      1.0944                 1.0869                 1.0923
 Frc consts  --      5.9299                 5.9180                 6.0100
 IR Inten    --     17.0771                17.8363                27.9008

                    103                    104                    105
                      A                      A                      A
 Frequencies --   3057.4891              3062.6514              3077.5667
 Red. masses --      1.0908                 1.0995                 1.0990
 Frc consts  --      6.0081                 6.0761                 6.1326
 IR Inten    --     30.0663                26.2762                78.0575

                    106                    107                    108
                      A                      A                      A
 Frequencies --   3080.0852              3090.3714              3106.4524
 Red. masses --      1.0975                 1.0994                 1.1000
 Frc consts  --      6.1346                 6.1862                 6.2542
 IR Inten    --     67.0658                45.4066                38.1038

                    109                    110                    111
                      A                      A                      A
 Frequencies --   3755.4851              3791.8311              3814.6797
 Red. masses --      1.0686                 1.0658                 1.0661
 Frc consts  --      8.8797                 9.0283                 9.1404
 IR Inten    --     35.0769                10.9725                14.8187

 - Thermochemistry -
 -------------------
 Temperature   298.150 Kelvin.  Pressure   1.00000 Atm.
 Atom     1 has atomic number  6 and mass  12.00000

 Molecular mass:   220.16746 amu.
 Principal axes and moments of inertia in atomic units:
                           1         2         3
     Eigenvalues --  1183.64772********************
           X            0.99999   0.00364   0.00195
           Y           -0.00365   0.99999   0.00363
           Z           -0.00194  -0.00364   0.99999
 This molecule is an asymmetric top.
 Rotational symmetry number  1.
 Warning -- assumption of classical behavior for rotation
           may cause significant error
 Rotational temperatures (Kelvin)      0.07318     0.00551     0.00520
 Rotational constants (GHZ):           1.52473     0.11485     0.10837
 Zero-point vibrational energy     911980.0 (Joules/Mol)
                                  217.96845 (Kcal/Mol)
 Warning -- explicit consideration of  29 degrees of freedom as
           vibrations may cause significant error
 Vibrational temperatures:     25.66    34.72    47.91    77.44    91.37
          (Kelvin)            105.78   129.09   141.57   160.19   183.14
                              208.11   223.89   257.86   270.00   289.80
                              295.57   344.01   397.03   414.57   428.46
                              486.37   508.63   535.30   586.58   657.50
                              688.17   713.80   749.85   855.63  1053.96
                             1083.95  1123.70  1170.96  1237.30  1278.62
                             1326.65  1357.13  1366.10  1381.95  1416.77
                             1444.49  1465.30  1489.51  1497.11  1509.63
                             1534.50  1546.05  1549.96  1570.07  1615.08
                             1624.61  1634.34  1653.63  1681.38  1757.83
                             1764.52  1782.37  1808.93  1845.99  1860.67
                             1876.34  1895.36  1901.86  1918.42  1922.93
                             1946.33  1954.04  1973.54  1986.28  1994.23
                             2014.48  2015.64  2019.13  2023.50  2034.19
                             2045.63  2049.67  2125.54  2128.82  2135.92
                             2138.75  2154.17  2161.26  2163.00  2174.52
                             2178.54  2180.46  4274.64  4290.31  4302.00
                             4304.00  4305.08  4314.35  4317.55  4333.26
                             4341.58  4354.88  4356.83  4361.91  4363.22
                             4373.75  4396.76  4399.04  4406.47  4427.93
                             4431.56  4446.36  4469.49  5403.31  5455.60
                             5488.47

 Zero-point correction=                           0.347355 (Hartree/Particle)
 Thermal correction to Energy=                    0.367361
 Thermal correction to Enthalpy=                  0.368305
 Thermal correction to Gibbs Free Energy=         0.295694
 Sum of electronic and zero-point Energies=           -734.122285
 Sum of electronic and thermal Energies=              -734.102279
 Sum of electronic and thermal Enthalpies=            -734.101335
 Sum of electronic and thermal Free Energies=         -734.173946

                     E (Thermal)             CV                S
                      KCal/Mol        Cal/Mol-Kelvin    Cal/Mol-Kelvin
 Total                  230.522             69.978            152.823
 Electronic               0.000              0.000              0.000
 Translational            0.889              2.981             42.071
 Rotational               0.889              2.981             34.093
 Vibrational            228.745             64.016             76.660
 Vibration     1          0.593              1.986              6.862
 Vibration     2          0.593              1.985              6.262
 Vibration     3          0.594              1.983              5.622
 Vibration     4          0.596              1.976              4.672
 Vibration     5          0.597              1.972              4.345
 Vibration     6          0.599              1.966              4.057
 Vibration     7          0.602              1.956              3.666
 Vibration     8          0.604              1.950              3.486
 Vibration     9          0.607              1.940              3.245
 Vibration    10          0.611              1.926              2.987
 Vibration    11          0.616              1.908              2.742
 Vibration    12          0.620              1.896              2.602
 Vibration    13          0.629              1.868              2.337
 Vibration    14          0.632              1.857              2.251
 Vibration    15          0.638              1.838              2.120
 Vibration    16          0.640              1.832              2.084
 Vibration    17          0.657              1.781              1.810
 Vibration    18          0.678              1.718              1.559
 Vibration    19          0.685              1.696              1.485
 Vibration    20          0.691              1.678              1.429
 Vibration    21          0.718              1.599              1.221
 Vibration    22          0.730              1.568              1.150
 Vibration    23          0.744              1.530              1.071
 Vibration    24          0.772              1.454              0.935
 Vibration    25          0.815              1.345              0.775
 Vibration    26          0.835              1.298              0.715
 Vibration    27          0.852              1.259              0.668
 Vibration    28          0.876              1.203              0.607
 Vibration    29          0.952              1.043              0.459

                           ! Non-Optimized Parameters !
 Normal termination of Gaussian 16 at Mon May 22 20:21:14 2023.
