 Gaussian 16, Revision A.03,
 Gaussian 16:  ES64L-G16RevA.03 25-Dec-2016

 -----------------------------
 # opt freq b3lyp/6-31g(2df,p)
 -----------------------------

 -------------------
 Title Card Required
 -------------------
 Symbolic Z-matrix:
 Charge =  0 Multiplicity = 1

 SCF Done:  E(RB3LYP) =  -534.845061651     A.U. after   12 cycles
 SCF Done:  E(RB3LYP) =  -534.845947886     A.U. after   10 cycles
 SCF Done:  E(RB3LYP) =  -534.846137215     A.U. after    9 cycles
 SCF Done:  E(RB3LYP) =  -534.846148620     A.U. after    8 cycles
 SCF Done:  E(RB3LYP) =  -534.846150051     A.U. after    7 cycles
 SCF Done:  E(RB3LYP) =  -534.846150247     A.U. after    6 cycles
 SCF Done:  E(RB3LYP) =  -534.846150289     A.U. after    6 cycles
 Optimization completed.
    -- Stationary point found.
 Normal termination of Gaussian 16 at Sat May 27 21:21:57 2023.

 ----------------------------------------------------------------------
 #N Geom=AllCheck Guess=TCheck SCRF=Check GenChk RB3LYP/6-31G(2df,p) Fr
 eq
 ----------------------------------------------------------------------

 Structure from the checkpoint file:  "CCqCrCCCqFrqFrF.chk"
 -------------------
 Title Card Required
 -------------------
 Charge =  0 Multiplicity = 1

                         Standard orientation:
 ---------------------------------------------------------------------
 Center     Atomic      Atomic             Coordinates (Angstroms)
 Number     Number       Type             X           Y           Z
 ---------------------------------------------------------------------
      1          6           0       -3.166581   -1.062014    0.066363
      2          6           0       -2.144072   -0.000147   -0.360290
      3          6           0       -2.562984    1.387355    0.146381
      4          6           0       -0.736478   -0.402250    0.114993
      5          6           0        0.387843    0.495679   -0.413049
      6          6           0        1.762507    0.008290   -0.008319
      7          9           0        1.902174   -0.038387    1.328149
      8          9           0        2.014883   -1.227184   -0.475360
      9          9           0        2.726016    0.816014   -0.481272
     10          1           0       -4.168814   -0.814324   -0.297775
     11          1           0       -3.219802   -1.136812    1.159064
     12          1           0       -2.901836   -2.050869   -0.322159
     13          1           0       -2.129285    0.030208   -1.459760
     14          1           0       -2.563650    1.417941    1.242712
     15          1           0       -3.574146    1.635411   -0.191880
     16          1           0       -1.897063    2.179368   -0.209374
     17          1           0       -0.533351   -1.431417   -0.202134
     18          1           0       -0.708553   -0.404811    1.211832
     19          1           0        0.295020    1.520640   -0.043265
     20          1           0        0.372409    0.539210   -1.507391
 ---------------------------------------------------------------------

 SCF Done:  E(RB3LYP) =  -534.846150289     A.U. after    1 cycles

 The electronic state is 1-A.
 Alpha  occ. eigenvalues --  -24.71130 -24.71116 -24.71062 -10.41049 -10.20396
 Alpha  occ. eigenvalues --  -10.19590 -10.19121 -10.17867 -10.17693  -1.29787
 Alpha  occ. eigenvalues --   -1.20880  -1.20871  -0.82712  -0.77767  -0.68940
 Alpha  occ. eigenvalues --   -0.68699  -0.63729  -0.58130  -0.57798  -0.56063
 Alpha  occ. eigenvalues --   -0.53360  -0.48079  -0.45520  -0.45152  -0.44277
 Alpha  occ. eigenvalues --   -0.44021  -0.41984  -0.40986  -0.40169  -0.39245
 Alpha  occ. eigenvalues --   -0.38797  -0.37271  -0.36993  -0.36241  -0.33086
 Alpha  occ. eigenvalues --   -0.32995  -0.32579
 Alpha virt. eigenvalues --    0.07572   0.10681   0.11241   0.13247   0.14002
 Alpha virt. eigenvalues --    0.14719   0.15004   0.15854   0.16725   0.17821
 Alpha virt. eigenvalues --    0.18993   0.19993   0.21640   0.22600   0.23299

 Mulliken charges:
               1
     1  C   -0.391159
     2  C    0.032954
     3  C   -0.384146
     4  C   -0.177970
     5  C   -0.344359
     6  C    0.285684
     7  F   -0.086931
     8  F   -0.086176
     9  F   -0.081520
    10  H    0.112278
    11  H    0.114920
    12  H    0.113010
    13  H    0.073587
    14  H    0.115156
    15  H    0.114852
    16  H    0.113700
    17  H    0.109868
    18  H    0.109521
    19  H    0.130329
    20  H    0.126402
 Sum of Mulliken charges =   0.00000

 Dipole moment (field-independent basis, Debye):
    X=             -2.1357    Y=              0.5073    Z=             -0.5035  Tot=              2.2521
 Quadrupole moment (field-independent basis, Debye-Ang):
   XX=            -57.6131   YY=            -53.8673   ZZ=            -53.4494
   XY=              0.2442   XZ=             -0.0637   YZ=             -0.0881

  Exact polarizability:  78.117   1.176  66.197  -0.832  -0.112  60.980
 Approx polarizability:  93.440   0.895  93.356  -0.765   0.368  93.828

                      1                      2                      3
                      A                      A                      A
 Frequencies --     38.0820                70.4712               119.8540
 Red. masses --      3.6469                 4.0436                 4.4038
 Frc consts  --      0.0031                 0.0118                 0.0373
 IR Inten    --      0.1267                 0.5430                 0.9279

                      4                      5                      6
                      A                      A                      A
 Frequencies --    131.0300               222.3390               234.7467
 Red. masses --      2.2152                 1.3308                 2.2304
 Frc consts  --      0.0224                 0.0388                 0.0724
 IR Inten    --      0.1348                 0.1874                 0.5810

                      7                      8                      9
                      A                      A                      A
 Frequencies --    249.5436               304.4758               355.0817
 Red. masses --      1.1257                 3.6388                 3.3781
 Frc consts  --      0.0413                 0.1988                 0.2509
 IR Inten    --      0.0085                 0.2565                 0.2443

                     10                     11                     12
                      A                      A                      A
 Frequencies --    404.3081               411.1299               458.6433
 Red. masses --      2.4588                 2.4147                 3.0994
 Frc consts  --      0.2368                 0.2405                 0.3841
 IR Inten    --      1.4863                 0.3258                 2.4883

                     13                     14                     15
                      A                      A                      A
 Frequencies --    538.6735               564.5119               651.5780
 Red. masses --      7.2968                 7.2286                 7.2317
 Frc consts  --      1.2475                 1.3572                 1.8089
 IR Inten    --      0.5659                 3.3499                16.2661

                     16                     17                     18
                      A                      A                      A
 Frequencies --    774.3111               823.8792               857.7368
 Red. masses --      1.3059                 3.0356                 4.2297
 Frc consts  --      0.4613                 1.2140                 1.8334
 IR Inten    --      0.5224                 1.3818                 5.4234

                     19                     20                     21
                      A                      A                      A
 Frequencies --    928.4112               937.8280               964.2456
 Red. masses --      1.1856                 1.6467                 1.4642
 Frc consts  --      0.6021                 0.8533                 0.8021
 IR Inten    --      1.3427                 7.8935                 1.5936

                     22                     23                     24
                      A                      A                      A
 Frequencies --    974.0679              1056.3995              1073.0007
 Red. masses --      1.9100                 2.9510                 1.6584
 Frc consts  --      1.0677                 1.9403                 1.1249
 IR Inten    --      7.6896                 1.6642                70.9902

                     25                     26                     27
                      A                      A                      A
 Frequencies --   1130.1236              1182.4579              1196.4530
 Red. masses --      2.4912                 3.1325                 1.9352
 Frc consts  --      1.8746                 2.5806                 1.6322
 IR Inten    --     50.4606               107.0444                38.1750

                     28                     29                     30
                      A                      A                      A
 Frequencies --   1205.8161              1265.9692              1274.1291
 Red. masses --      2.4084                 1.9745                 2.4626
 Frc consts  --      2.0632                 1.8645                 2.3554
 IR Inten    --     44.5098                87.9843               105.6941

                     31                     32                     33
                      A                      A                      A
 Frequencies --   1310.8059              1338.4676              1367.4728
 Red. masses --      1.6077                 1.3125                 1.5375
 Frc consts  --      1.6276                 1.3853                 1.6939
 IR Inten    --     62.4226                42.5638                36.3654

                     34                     35                     36
                      A                      A                      A
 Frequencies --   1374.2880              1402.0520              1407.4089
 Red. masses --      1.3640                 1.3084                 1.5766
 Frc consts  --      1.5178                 1.5154                 1.8400
 IR Inten    --     19.5608                 3.4186                21.0433

                     37                     38                     39
                      A                      A                      A
 Frequencies --   1425.1034              1474.9498              1487.2321
 Red. masses --      1.2693                 1.0920                 1.0549
 Frc consts  --      1.5188                 1.3997                 1.3747
 IR Inten    --      7.8836                 4.4539                 1.3421

                     40                     41                     42
                      A                      A                      A
 Frequencies --   1492.1658              1500.8689              1505.8576
 Red. masses --      1.0582                 1.0826                 1.0569
 Frc consts  --      1.3882                 1.4368                 1.4121
 IR Inten    --      3.5705                 2.3736                 2.9701

                     43                     44                     45
                      A                      A                      A
 Frequencies --   1511.7562              2994.5942              3024.3408
 Red. masses --      1.0501                 1.0819                 1.0365
 Frc consts  --      1.4140                 5.7164                 5.5855
 IR Inten    --     10.9016                15.9037                20.9858

                     46                     47                     48
                      A                      A                      A
 Frequencies --   3027.1498              3032.9685              3057.5794
 Red. masses --      1.0443                 1.0513                 1.0613
 Frc consts  --      5.6380                 5.6979                 5.8457
 IR Inten    --     17.5030                20.9990                12.7737

                     49                     50                     51
                      A                      A                      A
 Frequencies --   3069.7894              3090.1159              3096.1613
 Red. masses --      1.1012                 1.1003                 1.0998
 Frc consts  --      6.1140                 6.1904                 6.2116
 IR Inten    --      7.0693                 6.8445                52.8592

                     52                     53                     54
                      A                      A                      A
 Frequencies --   3100.4961              3103.2847              3111.5380
 Red. masses --      1.1018                 1.1011                 1.1018
 Frc consts  --      6.2403                 6.2477                 6.2852
 IR Inten    --     21.3665                50.2318                24.6434

 - Thermochemistry -
 -------------------
 Temperature   298.150 Kelvin.  Pressure   1.00000 Atm.
 Atom     1 has atomic number  6 and mass  12.00000

 Molecular mass:   140.08129 amu.
 Principal axes and moments of inertia in atomic units:
                           1         2         3
     Eigenvalues --   566.981422507.380592678.66141
           X            0.99999   0.00172  -0.00328
           Y           -0.00177   0.99989  -0.01456
           Z            0.00325   0.01456   0.99989
 This molecule is an asymmetric top.
 Rotational symmetry number  1.
 Warning -- assumption of classical behavior for rotation
           may cause significant error
 Rotational temperatures (Kelvin)      0.15276     0.03454     0.03233
 Rotational constants (GHZ):           3.18307     0.71977     0.67375
 Zero-point vibrational energy     434876.9 (Joules/Mol)
                                  103.93808 (Kcal/Mol)
 Warning -- explicit consideration of  14 degrees of freedom as
           vibrations may cause significant error
 Vibrational temperatures:     54.79   101.39   172.44   188.52   319.90
          (Kelvin)            337.75   359.04   438.07   510.88   581.71
                              591.52   659.89   775.03   812.21   937.48
                             1114.06  1185.38  1234.09  1335.78  1349.33
                             1387.33  1401.47  1519.92  1543.81  1626.00
                             1701.29  1721.43  1734.90  1821.45  1833.19
                             1885.96  1925.76  1967.49  1977.29  2017.24
                             2024.95  2050.41  2122.12  2139.80  2146.89
                             2159.42  2166.59  2175.08  4308.55  4351.35
                             4355.39  4363.77  4399.17  4416.74  4445.99
                             4454.69  4460.92  4464.93  4476.81

 Zero-point correction=                           0.165636 (Hartree/Particle)
 Thermal correction to Energy=                    0.175803
 Thermal correction to Enthalpy=                  0.176748
 Thermal correction to Gibbs Free Energy=         0.129349
 Sum of electronic and zero-point Energies=           -534.680514
 Sum of electronic and thermal Energies=              -534.670347
 Sum of electronic and thermal Enthalpies=            -534.669403
 Sum of electronic and thermal Free Energies=         -534.716802

                     E (Thermal)             CV                S
                      KCal/Mol        Cal/Mol-Kelvin    Cal/Mol-Kelvin
 Total                  110.318             36.506             99.760
 Electronic               0.000              0.000              0.000
 Translational            0.889              2.981             40.723
 Rotational               0.889              2.981             29.722
 Vibrational            108.541             30.544             29.315
 Vibration     1          0.594              1.982              5.356
 Vibration     2          0.598              1.968              4.140
 Vibration     3          0.609              1.933              3.103
 Vibration     4          0.612              1.922              2.931
 Vibration     5          0.648              1.807              1.940
 Vibration     6          0.655              1.788              1.842
 Vibration     7          0.662              1.764              1.734
 Vibration     8          0.695              1.665              1.392
 Vibration     9          0.731              1.565              1.144
 Vibration    10          0.769              1.461              0.947
 Vibration    11          0.775              1.446              0.923
 Vibration    12          0.817              1.342              0.770
 Vibration    13          0.894              1.165              0.568
 Vibration    14          0.920              1.108              0.515

 Optimization completed.
    -- Stationary point found.
 Normal termination of Gaussian 16 at Sat May 27 21:47:24 2023.
