 Gaussian 16, Revision A.03,
 Gaussian 16:  ES64L-G16RevA.03 25-Dec-2016

 -----------------------------
 # opt freq b3lyp/6-31g(2df,p)
 -----------------------------

 -------------------
 Title Card Required
 -------------------
 Symbolic Z-matrix:
 Charge =  0 Multiplicity = 1

 SCF Done:  E(RB3LYP) =  -276.417347280     A.U. after   12 cycles
 SCF Done:  E(RB3LYP) =  -276.417915217     A.U. after   10 cycles
 SCF Done:  E(RB3LYP) =  -276.417967319     A.U. after    8 cycles
 SCF Done:  E(RB3LYP) =  -276.417974294     A.U. after    8 cycles
 SCF Done:  E(RB3LYP) =  -276.417974728     A.U. after    6 cycles
 Optimization completed.
    -- Stationary point found.
 Normal termination of Gaussian 16 at Sun May 28 18:20:14 2023.

 ----------------------------------------------------------------------
 #N Geom=AllCheck Guess=TCheck SCRF=Check GenChk RB3LYP/6-31G(2df,p) Fr
 eq
 ----------------------------------------------------------------------

 Structure from the checkpoint file:  "CCqCrCqCrqCrC.chk"
 -------------------
 Title Card Required
 -------------------
 Charge =  0 Multiplicity = 1

                         Standard orientation:
 ---------------------------------------------------------------------
 Center     Atomic      Atomic             Coordinates (Angstroms)
 Number     Number       Type             X           Y           Z
 ---------------------------------------------------------------------
      1          6           0       -1.639289   -1.252317   -0.016051
      2          6           0       -0.856488   -0.000000   -0.447532
      3          6           0       -1.639288    1.252317   -0.016050
      4          6           0        0.644564   -0.000000    0.000197
      5          6           0        0.797420   -0.000005    1.533554
      6          6           0        1.357124   -1.244377   -0.569238
      7          6           0        1.357121    1.244383   -0.569230
      8          1           0       -2.657872   -1.213468   -0.416306
      9          1           0       -1.724448   -1.320494    1.073953
     10          1           0       -1.183659   -2.177867   -0.376104
     11          1           0       -0.833085    0.000000   -1.547497
     12          1           0       -1.724447    1.320494    1.073954
     13          1           0       -2.657871    1.213469   -0.416306
     14          1           0       -1.183657    2.177867   -0.376104
     15          1           0        0.343324   -0.885068    1.989645
     16          1           0        0.343322    0.885053    1.989650
     17          1           0        1.857993   -0.000005    1.808529
     18          1           0        0.985359   -2.173040   -0.127704
     19          1           0        2.432274   -1.195740   -0.365242
     20          1           0        1.229080   -1.312970   -1.655728
     21          1           0        0.985353    2.173042   -0.127690
     22          1           0        1.229077    1.312982   -1.655719
     23          1           0        2.432271    1.195747   -0.365232
 ---------------------------------------------------------------------

 SCF Done:  E(RB3LYP) =  -276.417974728     A.U. after    1 cycles

 The electronic state is 1-A.
 Alpha  occ. eigenvalues --  -10.18884 -10.18080 -10.16602 -10.16602 -10.16540
 Alpha  occ. eigenvalues --  -10.16511 -10.16511  -0.82267  -0.75034  -0.68692
 Alpha  occ. eigenvalues --   -0.67803  -0.66318  -0.59742  -0.51449  -0.46226
 Alpha  occ. eigenvalues --   -0.44544  -0.43240  -0.42409  -0.40134  -0.38909
 Alpha  occ. eigenvalues --   -0.37290  -0.37045  -0.36148  -0.35479  -0.34096
 Alpha  occ. eigenvalues --   -0.33487  -0.30670  -0.30278  -0.29703
 Alpha virt. eigenvalues --    0.07352   0.12127   0.12764   0.12903   0.13123
 Alpha virt. eigenvalues --    0.14311   0.15054   0.15804   0.17487   0.18320
 Alpha virt. eigenvalues --    0.18821   0.20386   0.20880   0.21647   0.21836

 Mulliken charges:
               1
     1  C   -0.406944
     2  C    0.053383
     3  C   -0.406944
     4  C    0.287199
     5  C   -0.409319
     6  C   -0.410833
     7  C   -0.410833
     8  H    0.108471
     9  H    0.113639
    10  H    0.112197
    11  H    0.065161
    12  H    0.113639
    13  H    0.108471
    14  H    0.112197
    15  H    0.110089
    16  H    0.110089
    17  H    0.107105
    18  H    0.111211
    19  H    0.105254
    20  H    0.105152
    21  H    0.111211
    22  H    0.105152
    23  H    0.105254
 Sum of Mulliken charges =  -0.00000

 Dipole moment (field-independent basis, Debye):
    X=             -0.0118    Y=             -0.0000    Z=             -0.0480  Tot=              0.0495
 Quadrupole moment (field-independent basis, Debye-Ang):
   XX=            -48.2927   YY=            -48.6753   ZZ=            -48.1252
   XY=             -0.0000   XZ=              0.2745   YZ=             -0.0000

  Exact polarizability:  82.289   0.000  76.833   0.099  -0.000  72.036
 Approx polarizability: 109.319  -0.000 106.050   0.613  -0.000 106.455

                      1                      2                      3
                      A                      A                      A
 Frequencies --     30.4684               186.0974               228.5515
 Red. masses --      2.0872                 1.0192                 1.3880
 Frc consts  --      0.0011                 0.0208                 0.0427
 IR Inten    --      0.0001                 0.0012                 0.0066

                      4                      5                      6
                      A                      A                      A
 Frequencies --    230.3903               249.0971               259.3547
 Red. masses --      1.0632                 1.2680                 1.0538
 Frc consts  --      0.0333                 0.0464                 0.0418
 IR Inten    --      0.0134                 0.0927                 0.0083

                      7                      8                      9
                      A                      A                      A
 Frequencies --    291.3860               298.1872               351.4074
 Red. masses --      1.9899                 1.7561                 2.2372
 Frc consts  --      0.0995                 0.0920                 0.1628
 IR Inten    --      0.0048                 0.0009                 0.0045

                     10                     11                     12
                      A                      A                      A
 Frequencies --    371.2452               388.7214               436.7423
 Red. masses --      2.1468                 1.9866                 2.0636
 Frc consts  --      0.1743                 0.1769                 0.2319
 IR Inten    --      0.0366                 0.0259                 0.0690

                     13                     14                     15
                      A                      A                      A
 Frequencies --    454.1310               518.5788               682.3907
 Red. masses --      2.6234                 2.2603                 2.7915
 Frc consts  --      0.3188                 0.3581                 0.7659
 IR Inten    --      0.0170                 0.6569                 0.2988

                     16                     17                     18
                      A                      A                      A
 Frequencies --    835.8179               924.7278               925.2045
 Red. masses --      2.3919                 1.9859                 1.1850
 Frc consts  --      0.9845                 1.0005                 0.5977
 IR Inten    --      0.9204                 0.0309                 0.7308

                     19                     20                     21
                      A                      A                      A
 Frequencies --    931.2953               933.7833               956.9137
 Red. masses --      1.7159                 1.8673                 1.2018
 Frc consts  --      0.8768                 0.9593                 0.6484
 IR Inten    --      0.1757                 0.5418                 0.0341

                     22                     23                     24
                      A                      A                      A
 Frequencies --    966.8134              1014.2164              1030.4417
 Red. masses --      1.4400                 1.3134                 1.4656
 Frc consts  --      0.7931                 0.7960                 0.9169
 IR Inten    --      0.1475                 1.1261                 0.3415

                     25                     26                     27
                      A                      A                      A
 Frequencies --   1107.4989              1125.9401              1186.6040
 Red. masses --      1.4269                 2.0790                 1.9237
 Frc consts  --      1.0312                 1.5528                 1.5959
 IR Inten    --      5.2289                 2.4108                 8.2930

                     28                     29                     30
                      A                      A                      A
 Frequencies --   1234.6143              1244.4970              1272.6301
 Red. masses --      2.2588                 2.6144                 2.7259
 Frc consts  --      2.0285                 2.3856                 2.6011
 IR Inten    --      7.3217                 2.8767                 1.8917

                     31                     32                     33
                      A                      A                      A
 Frequencies --   1352.2997              1362.1624              1395.1839
 Red. masses --      1.3615                 1.4007                 1.2515
 Frc consts  --      1.4670                 1.5312                 1.4353
 IR Inten    --      1.5487                 1.3558                 0.0440

                     34                     35                     36
                      A                      A                      A
 Frequencies --   1398.6302              1403.0270              1417.7808
 Red. masses --      1.2408                 1.2218                 1.2297
 Frc consts  --      1.4301                 1.4170                 1.4563
 IR Inten    --      5.2594                 6.3824                11.2217

                     37                     38                     39
                      A                      A                      A
 Frequencies --   1436.0770              1476.8432              1483.8339
 Red. masses --      1.2150                 1.0487                 1.0493
 Frc consts  --      1.4763                 1.3476                 1.3611
 IR Inten    --      2.0160                 0.2523                 0.7582

                     40                     41                     42
                      A                      A                      A
 Frequencies --   1485.7922              1488.7782              1502.8163
 Red. masses --      1.0445                 1.0434                 1.0471
 Frc consts  --      1.3585                 1.3626                 1.3933
 IR Inten    --      0.0299                 0.0202                 9.3202

                     43                     44                     45
                      A                      A                      A
 Frequencies --   1504.2007              1510.4561              1511.3846
 Red. masses --      1.0439                 1.0528                 1.0630
 Frc consts  --      1.3916                 1.4152                 1.4307
 IR Inten    --      2.8030                 2.3824                 1.7739

                     46                     47                     48
                      A                      A                      A
 Frequencies --   1517.5875              1524.8213              2987.8467
 Red. masses --      1.0521                 1.0573                 1.0824
 Frc consts  --      1.4276                 1.4484                 5.6934
 IR Inten    --     10.5451                 1.5186                23.0954

                     49                     50                     51
                      A                      A                      A
 Frequencies --   3023.9911              3027.4348              3032.9655
 Red. masses --      1.0362                 1.0359                 1.0367
 Frc consts  --      5.5828                 5.5942                 5.6186
 IR Inten    --     16.7387                33.4387                24.9266

                     52                     53                     54
                      A                      A                      A
 Frequencies --   3033.0668              3040.2666              3085.8830
 Red. masses --      1.0370                 1.0378                 1.1013
 Frc consts  --      5.6207                 5.6516                 6.1792
 IR Inten    --     22.3846                10.2160                 0.0459

                     55                     56                     57
                      A                      A                      A
 Frequencies --   3089.5307              3089.5478              3094.7479
 Red. masses --      1.1011                 1.1008                 1.0997
 Frc consts  --      6.1922                 6.1907                 6.2054
 IR Inten    --      1.0977                 3.6537                94.9439

                     58                     59                     60
                      A                      A                      A
 Frequencies --   3098.1224              3100.9821              3106.3529
 Red. masses --      1.0997                 1.1012                 1.0996
 Frc consts  --      6.2193                 6.2388                 6.2515
 IR Inten    --     46.6025                 0.0764                77.9989

                     61                     62                     63
                      A                      A                      A
 Frequencies --   3108.3762              3118.1561              3119.0595
 Red. masses --      1.1003                 1.0984                 1.0983
 Frc consts  --      6.2639                 6.2923                 6.2955
 IR Inten    --     34.8866                51.0434                 8.7551

 - Thermochemistry -
 -------------------
 Temperature   298.150 Kelvin.  Pressure   1.00000 Atm.
 Atom     1 has atomic number  6 and mass  12.00000

 Molecular mass:   100.12520 amu.
 Principal axes and moments of inertia in atomic units:
                           1         2         3
     Eigenvalues --   604.14139 840.617621009.96678
           X            0.99998  -0.00000  -0.00597
           Y            0.00000   1.00000  -0.00000
           Z            0.00597   0.00000   0.99998
 This molecule is an asymmetric top.
 Rotational symmetry number  1.
 Warning -- assumption of classical behavior for rotation
           may cause significant error
 Rotational temperatures (Kelvin)      0.14337     0.10304     0.08576
 Rotational constants (GHZ):           2.98728     2.14692     1.78693
 Zero-point vibrational energy     565808.3 (Joules/Mol)
                                  135.23142 (Kcal/Mol)
 Warning -- explicit consideration of  14 degrees of freedom as
           vibrations may cause significant error
 Vibrational temperatures:     43.84   267.75   328.83   331.48   358.40
          (Kelvin)            373.15   419.24   429.02   505.60   534.14
                              559.28   628.37   653.39   746.12   981.81
                             1202.56  1330.48  1331.16  1339.93  1343.51
                             1376.79  1391.03  1459.23  1482.58  1593.44
                             1619.98  1707.26  1776.33  1790.55  1831.03
                             1945.66  1959.85  2007.36  2012.32  2018.64
                             2039.87  2066.19  2124.85  2134.91  2137.72
                             2142.02  2162.22  2164.21  2173.21  2174.55
                             2183.47  2193.88  4298.84  4350.85  4355.80
                             4363.76  4363.91  4374.27  4439.90  4445.15
                             4445.17  4452.65  4457.51  4461.62  4469.35
                             4472.26  4486.33  4487.63

 Zero-point correction=                           0.215505 (Hartree/Particle)
 Thermal correction to Energy=                    0.225152
 Thermal correction to Enthalpy=                  0.226096
 Thermal correction to Gibbs Free Energy=         0.181930
 Sum of electronic and zero-point Energies=           -276.202470
 Sum of electronic and thermal Energies=              -276.192823
 Sum of electronic and thermal Enthalpies=            -276.191879
 Sum of electronic and thermal Free Energies=         -276.236045

                     E (Thermal)             CV                S
                      KCal/Mol        Cal/Mol-Kelvin    Cal/Mol-Kelvin
 Total                  141.285             36.452             92.955
 Electronic               0.000              0.000              0.000
 Translational            0.889              2.981             39.722
 Rotational               0.889              2.981             27.730
 Vibrational            139.507             30.491             25.503
 Vibration     1          0.594              1.984              5.799
 Vibration     2          0.632              1.859              2.266
 Vibration     3          0.651              1.797              1.890
 Vibration     4          0.652              1.795              1.876
 Vibration     5          0.662              1.764              1.737
 Vibration     6          0.668              1.747              1.666
 Vibration     7          0.687              1.690              1.466
 Vibration     8          0.691              1.677              1.427
 Vibration     9          0.728              1.572              1.160
 Vibration    10          0.743              1.531              1.075
 Vibration    11          0.757              1.494              1.005
 Vibration    12          0.797              1.390              0.837
 Vibration    13          0.813              1.352              0.783
 Vibration    14          0.874              1.209              0.613

 Optimization completed.
    -- Stationary point found.
 Normal termination of Gaussian 16 at Sun May 28 18:47:15 2023.
