 Gaussian 16, Revision A.03,
 Gaussian 16:  ES64L-G16RevA.03 25-Dec-2016

 -----------------------------
 # opt freq b3lyp/6-31g(2df,p)
 -----------------------------

 -------------------
 Title Card Required
 -------------------
 Symbolic Z-matrix:
 Charge =  0 Multiplicity = 1

 SCF Done:  E(RB3LYP) =  -352.424076726     A.U. after   12 cycles
 SCF Done:  E(RB3LYP) =  -352.466289870     A.U. after   11 cycles
 SCF Done:  E(RB3LYP) =  -352.496763344     A.U. after   11 cycles
 SCF Done:  E(RB3LYP) =  -352.524227271     A.U. after   11 cycles
 SCF Done:  E(RB3LYP) =  -352.534214078     A.U. after   11 cycles
 SCF Done:  E(RB3LYP) =  -352.536362193     A.U. after   10 cycles
 SCF Done:  E(RB3LYP) =  -352.536870907     A.U. after   10 cycles
 SCF Done:  E(RB3LYP) =  -352.537790309     A.U. after   10 cycles
 SCF Done:  E(RB3LYP) =  -352.537295235     A.U. after   10 cycles
 SCF Done:  E(RB3LYP) =  -352.541349903     A.U. after   10 cycles
 SCF Done:  E(RB3LYP) =  -352.548567354     A.U. after   11 cycles
 SCF Done:  E(RB3LYP) =  -352.548895609     A.U. after    8 cycles
 SCF Done:  E(RB3LYP) =  -352.549270852     A.U. after   10 cycles
 SCF Done:  E(RB3LYP) =  -352.549304241     A.U. after    8 cycles
 SCF Done:  E(RB3LYP) =  -352.549480567     A.U. after    9 cycles
 SCF Done:  E(RB3LYP) =  -352.549507595     A.U. after    9 cycles
 SCF Done:  E(RB3LYP) =  -352.549511732     A.U. after    8 cycles
 SCF Done:  E(RB3LYP) =  -352.549511902     A.U. after    6 cycles
 SCF Done:  E(RB3LYP) =  -352.549511943     A.U. after    6 cycles
 Optimization completed.
    -- Stationary point found.
 Normal termination of Gaussian 16 at Mon May 29 01:52:08 2023.

 ----------------------------------------------------------------------
 #N Geom=AllCheck Guess=TCheck SCRF=Check GenChk RB3LYP/6-31G(2df,p) Fr
 eq
 ----------------------------------------------------------------------

 Structure from the checkpoint file:  "CCqCrC1C2CC1qCrC2.chk"
 -------------------
 Title Card Required
 -------------------
 Charge =  0 Multiplicity = 1

                         Standard orientation:
 ---------------------------------------------------------------------
 Center     Atomic      Atomic             Coordinates (Angstroms)
 Number     Number       Type             X           Y           Z
 ---------------------------------------------------------------------
      1          6           0        2.512165   -1.010946   -0.011130
      2          6           0        1.474205    0.085461    0.276047
      3          6           0        2.012020    1.462322   -0.145375
      4          6           0        0.160937   -0.222320   -0.444813
      5          6           0       -0.727486   -1.453791   -0.077485
      6          6           0       -1.873626   -0.757365   -0.860653
      7          6           0       -1.228604    0.365676    0.010602
      8          6           0       -1.655776    1.809303    0.081823
      9          6           0       -1.224521   -0.678460    1.174305
     10          1           0        3.463645   -0.793557    0.485959
     11          1           0        2.710759   -1.089125   -1.086970
     12          1           0        2.167846   -1.990518    0.334944
     13          1           0        1.307509    0.110550    1.359506
     14          1           0        2.209237    1.490612   -1.223902
     15          1           0        2.951762    1.691804    0.368186
     16          1           0        1.301736    2.262826    0.082299
     17          1           0        0.325914   -0.127000   -1.527936
     18          1           0       -0.447586   -2.506850   -0.130471
     19          1           0       -2.893748   -1.050051   -0.594547
     20          1           0       -1.750823   -0.669913   -1.944634
     21          1           0       -1.058343    2.369550    0.809322
     22          1           0       -2.706089    1.890134    0.384263
     23          1           0       -1.549275    2.302191   -0.891018
     24          1           0       -2.207263   -0.966202    1.560606
     25          1           0       -0.521165   -0.523721    1.994471
 ---------------------------------------------------------------------

 SCF Done:  E(RB3LYP) =  -352.549511943     A.U. after    1 cycles

 The electronic state is 1-A.
 Alpha  occ. eigenvalues --  -10.19853 -10.19083 -10.18066 -10.17995 -10.17706
 Alpha  occ. eigenvalues --  -10.17652 -10.17183 -10.16782 -10.16735  -0.90385
 Alpha  occ. eigenvalues --   -0.78675  -0.72140  -0.67596  -0.65923  -0.65422
 Alpha  occ. eigenvalues --   -0.58343  -0.56880  -0.51756  -0.46601  -0.45540
 Alpha  occ. eigenvalues --   -0.44014  -0.41823  -0.41416  -0.40572  -0.38881
 Alpha  occ. eigenvalues --   -0.38423  -0.37650  -0.33933  -0.33526  -0.33002
 Alpha  occ. eigenvalues --   -0.30636  -0.30039  -0.29407  -0.28733  -0.28165
 Alpha virt. eigenvalues --    0.08615   0.10300   0.11905   0.12295   0.13749
 Alpha virt. eigenvalues --    0.14434   0.15021   0.15243   0.15791   0.16261
 Alpha virt. eigenvalues --    0.16378   0.17291   0.17818   0.18788   0.19723

 Mulliken charges:
               1
     1  C   -0.381955
     2  C   -0.026506
     3  C   -0.389179
     4  C    0.053635
     5  C   -0.071628
     6  C   -0.256918
     7  C    0.319631
     8  C   -0.514141
     9  C   -0.264197
    10  H    0.106477
    11  H    0.109708
    12  H    0.112668
    13  H    0.069723
    14  H    0.110104
    15  H    0.107169
    16  H    0.114598
    17  H    0.048996
    18  H    0.064795
    19  H    0.082208
    20  H    0.082377
    21  H    0.118786
    22  H    0.114966
    23  H    0.116333
    24  H    0.082878
    25  H    0.089472
 Sum of Mulliken charges =  -0.00000

 Dipole moment (field-independent basis, Debye):
    X=             -0.0077    Y=              0.1988    Z=              0.0855  Tot=              0.2166
 Quadrupole moment (field-independent basis, Debye-Ang):
   XX=            -58.2684   YY=            -58.8469   ZZ=            -57.8886
   XY=             -0.1730   XZ=              0.0938   YZ=              0.0249

  Exact polarizability: 104.537   0.837  92.077   0.028  -0.251  84.088
 Approx polarizability: 136.768   1.308 130.086  -0.496  -0.299 132.995

                      1                      2                      3
                      A                      A                      A
 Frequencies --     54.4446               140.2318               205.1949
 Red. masses --      2.5456                 2.7952                 1.2248
 Frc consts  --      0.0044                 0.0324                 0.0304
 IR Inten    --      0.0070                 0.0197                 0.0192

                      4                      5                      6
                      A                      A                      A
 Frequencies --    220.3867               227.5183               244.4145
 Red. masses --      1.0452                 1.2105                 1.9935
 Frc consts  --      0.0299                 0.0369                 0.0702
 IR Inten    --      0.0029                 0.0453                 0.0117

                      7                      8                      9
                      A                      A                      A
 Frequencies --    272.0412               304.3292               314.7556
 Red. masses --      1.9024                 2.3499                 2.3425
 Frc consts  --      0.0829                 0.1282                 0.1367
 IR Inten    --      0.0575                 0.0593                 0.0125

                     10                     11                     12
                      A                      A                      A
 Frequencies --    438.5696               455.4484               534.6673
 Red. masses --      2.5862                 2.5097                 2.4287
 Frc consts  --      0.2931                 0.3067                 0.4091
 IR Inten    --      0.0632                 0.1267                 0.2953

                     13                     14                     15
                      A                      A                      A
 Frequencies --    574.9850               636.5951               765.2030
 Red. masses --      1.8418                 3.2428                 2.8119
 Frc consts  --      0.3588                 0.7743                 0.9701
 IR Inten    --      0.8180                 0.0173                 0.0154

                     16                     17                     18
                      A                      A                      A
 Frequencies --    805.3070               839.7410               886.3035
 Red. masses --      2.8670                 1.9841                 2.7692
 Frc consts  --      1.0955                 0.8243                 1.2817
 IR Inten    --      0.1554                 2.1758                 0.3405

                     19                     20                     21
                      A                      A                      A
 Frequencies --    897.9440               906.3804               927.7098
 Red. masses --      2.3651                 1.9405                 1.1860
 Frc consts  --      1.1236                 0.9393                 0.6014
 IR Inten    --      0.0411                 0.0210                 0.6628

                     22                     23                     24
                      A                      A                      A
 Frequencies --    949.3181               966.3660              1004.7269
 Red. masses --      2.0584                 1.4880                 1.0898
 Frc consts  --      1.0929                 0.8187                 0.6482
 IR Inten    --      1.6600                 0.1018                 0.9092

                     25                     26                     27
                      A                      A                      A
 Frequencies --   1018.2531              1021.8553              1034.1416
 Red. masses --      1.3196                 1.2956                 1.5259
 Frc consts  --      0.8061                 0.7971                 0.9615
 IR Inten    --      2.0355                 3.0554                 2.2248

                     28                     29                     30
                      A                      A                      A
 Frequencies --   1074.3859              1112.4160              1132.2541
 Red. masses --      1.5406                 1.6826                 1.8151
 Frc consts  --      1.0478                 1.2268                 1.3710
 IR Inten    --      0.2682                 1.2799                 0.3878

                     31                     32                     33
                      A                      A                      A
 Frequencies --   1149.1035              1163.0138              1182.5613
 Red. masses --      1.5361                 1.9264                 1.6731
 Frc consts  --      1.1951                 1.5352                 1.3786
 IR Inten    --      0.0289                 0.8461                 0.0597

                     34                     35                     36
                      A                      A                      A
 Frequencies --   1199.8536              1202.8910              1230.8971
 Red. masses --      1.7585                 1.7466                 1.7954
 Frc consts  --      1.4916                 1.4890                 1.6027
 IR Inten    --      3.1700                 0.6315                 2.4266

                     37                     38                     39
                      A                      A                      A
 Frequencies --   1231.0885              1249.3822              1318.9041
 Red. masses --      1.9697                 1.8932                 2.9307
 Frc consts  --      1.7588                 1.7412                 3.0036
 IR Inten    --      4.2940                 0.1324                22.3959

                     40                     41                     42
                      A                      A                      A
 Frequencies --   1326.0321              1343.5259              1397.0729
 Red. masses --      1.4056                 1.3717                 1.2412
 Frc consts  --      1.4562                 1.4588                 1.4274
 IR Inten    --      4.2342                 6.5912                 2.5560

                     43                     44                     45
                      A                      A                      A
 Frequencies --   1408.2001              1415.0572              1433.7825
 Red. masses --      1.3367                 1.2641                 1.3272
 Frc consts  --      1.5618                 1.4914                 1.6075
 IR Inten    --      4.2997                 1.3439                 3.3190

                     46                     47                     48
                      A                      A                      A
 Frequencies --   1485.3313              1488.3959              1490.3708
 Red. masses --      1.0464                 1.0489                 1.0466
 Frc consts  --      1.3602                 1.3690                 1.3696
 IR Inten    --      1.9549                 2.5598                 3.5269

                     49                     50                     51
                      A                      A                      A
 Frequencies --   1493.8674              1501.4445              1504.8489
 Red. masses --      1.0497                 1.0947                 1.0521
 Frc consts  --      1.3802                 1.4540                 1.4037
 IR Inten    --      2.5468                 0.7830                 7.0944

                     52                     53                     54
                      A                      A                      A
 Frequencies --   1510.2328              1543.7071              2993.4216
 Red. masses --      1.0617                 1.1782                 1.0814
 Frc consts  --      1.4267                 1.6543                 5.7092
 IR Inten    --      4.7892                 2.2950                29.1771

                     55                     56                     57
                      A                      A                      A
 Frequencies --   3022.2308              3022.8768              3025.6887
 Red. masses --      1.0357                 1.0355                 1.0493
 Frc consts  --      5.5736                 5.5750                 5.6599
 IR Inten    --      4.6620                47.0932                16.4853

                     58                     59                     60
                      A                      A                      A
 Frequencies --   3030.8996              3038.3349              3052.2854
 Red. masses --      1.0679                 1.0544                 1.0591
 Frc consts  --      5.7797                 5.7348                 5.8134
 IR Inten    --     25.1224                59.1179                46.7058

                     61                     62                     63
                      A                      A                      A
 Frequencies --   3085.5165              3088.1191              3091.3663
 Red. masses --      1.1005                 1.1008                 1.1007
 Frc consts  --      6.1729                 6.1850                 6.1975
 IR Inten    --      2.2449                23.7823                 2.9673

                     64                     65                     66
                      A                      A                      A
 Frequencies --   3092.8333              3097.7341              3101.7581
 Red. masses --      1.1002                 1.0949                 1.1008
 Frc consts  --      6.2004                 6.1905                 6.2397
 IR Inten    --     74.7426                23.0811                46.7980

                     67                     68                     69
                      A                      A                      A
 Frequencies --   3102.7479              3105.3795              3116.7193
 Red. masses --      1.1072                 1.1003                 1.1047
 Frc consts  --      6.2800                 6.2518                 6.3226
 IR Inten    --     75.9585                37.0845                50.8665

 - Thermochemistry -
 -------------------
 Temperature   298.150 Kelvin.  Pressure   1.00000 Atm.
 Atom     1 has atomic number  6 and mass  12.00000

 Molecular mass:   124.12520 amu.
 Principal axes and moments of inertia in atomic units:
                           1         2         3
     Eigenvalues --   735.086441379.268231765.81728
           X            0.99993  -0.01138  -0.00199
           Y            0.01137   0.99993  -0.00221
           Z            0.00202   0.00219   1.00000
 This molecule is an asymmetric top.
 Rotational symmetry number  1.
 Warning -- assumption of classical behavior for rotation
           may cause significant error
 Rotational temperatures (Kelvin)      0.11783     0.06280     0.04905
 Rotational constants (GHZ):           2.45514     1.30848     1.02204
 Zero-point vibrational energy     599947.4 (Joules/Mol)
                                  143.39086 (Kcal/Mol)
 Warning -- explicit consideration of  13 degrees of freedom as
           vibrations may cause significant error
 Vibrational temperatures:     78.33   201.76   295.23   317.09   327.35
          (Kelvin)            351.66   391.41   437.86   452.86   631.00
                              655.29   769.27   827.28   915.92  1100.96
                             1158.66  1208.20  1275.19  1291.94  1304.08
                             1334.77  1365.86  1390.39  1445.58  1465.04
                             1470.22  1487.90  1545.80  1600.52  1629.06
                             1653.30  1673.32  1701.44  1726.32  1730.69
                             1770.99  1771.26  1797.58  1897.61  1907.86
                             1933.03  2010.08  2026.09  2035.95  2062.89
                             2137.06  2141.47  2144.31  2149.34  2160.24
                             2165.14  2172.89  2221.05  4306.87  4348.32
                             4349.25  4353.29  4360.79  4371.49  4391.56
                             4439.37  4443.11  4447.79  4449.90  4456.95
                             4462.74  4464.16  4467.95  4484.26

 Zero-point correction=                           0.228508 (Hartree/Particle)
 Thermal correction to Energy=                    0.238217
 Thermal correction to Enthalpy=                  0.239161
 Thermal correction to Gibbs Free Energy=         0.194325
 Sum of electronic and zero-point Energies=           -352.321004
 Sum of electronic and thermal Energies=              -352.311295
 Sum of electronic and thermal Enthalpies=            -352.310351
 Sum of electronic and thermal Free Energies=         -352.355187

                     E (Thermal)             CV                S
                      KCal/Mol        Cal/Mol-Kelvin    Cal/Mol-Kelvin
 Total                  149.484             38.113             94.366
 Electronic               0.000              0.000              0.000
 Translational            0.889              2.981             40.362
 Rotational               0.889              2.981             28.972
 Vibrational            147.706             32.152             25.031
 Vibration     1          0.596              1.976              4.649
 Vibration     2          0.615              1.913              2.801
 Vibration     3          0.640              1.832              2.086
 Vibration     4          0.647              1.810              1.956
 Vibration     5          0.651              1.799              1.898
 Vibration     6          0.660              1.772              1.771
 Vibration     7          0.675              1.725              1.583
 Vibration     8          0.695              1.665              1.393
 Vibration     9          0.702              1.645              1.337
 Vibration    10          0.799              1.386              0.831
 Vibration    11          0.814              1.349              0.779
 Vibration    12          0.890              1.173              0.577
 Vibration    13          0.931              1.085              0.495

 Optimization completed.
    -- Stationary point found.
 Normal termination of Gaussian 16 at Mon May 29 02:35:48 2023.
