 Gaussian 16, Revision A.03,
 Gaussian 16:  ES64L-G16RevA.03 25-Dec-2016

 -----------------------------
 # opt freq b3lyp/6-31g(2df,p)
 -----------------------------

 -------------------
 Title Card Required
 -------------------
 Symbolic Z-matrix:
 Charge =  0 Multiplicity = 1

 SCF Done:  E(RB3LYP) =  -623.352771754     A.U. after   12 cycles
 SCF Done:  E(RB3LYP) =  -623.359710041     A.U. after   11 cycles
 SCF Done:  E(RB3LYP) =  -623.360697109     A.U. after   10 cycles
 SCF Done:  E(RB3LYP) =  -623.361202937     A.U. after   11 cycles
 SCF Done:  E(RB3LYP) =  -623.359216566     A.U. after   13 cycles
 SCF Done:  E(RB3LYP) =  -623.361772490     A.U. after   11 cycles
 SCF Done:  E(RB3LYP) =  -623.361895658     A.U. after   10 cycles
 SCF Done:  E(RB3LYP) =  -623.361985275     A.U. after    9 cycles
 SCF Done:  E(RB3LYP) =  -623.362007164     A.U. after    8 cycles
 SCF Done:  E(RB3LYP) =  -623.362008899     A.U. after    7 cycles
 SCF Done:  E(RB3LYP) =  -623.362009106     A.U. after    7 cycles
 SCF Done:  E(RB3LYP) =  -623.362009130     A.U. after    6 cycles
 SCF Done:  E(RB3LYP) =  -623.362009134     A.U. after    5 cycles
 Optimization completed.
    -- Stationary point found.
 Normal termination of Gaussian 16 at Wed May 24 07:23:43 2023.

 ----------------------------------------------------------------------
 #N Geom=AllCheck Guess=TCheck SCRF=Check GenChk RB3LYP/6-31G(2df,p) Fr
 eq
 ----------------------------------------------------------------------

 Structure from the checkpoint file:  "CCqCrCCCCCCCCqCrOO.chk"
 -------------------
 Title Card Required
 -------------------
 Charge =  0 Multiplicity = 1

                         Standard orientation:
 ---------------------------------------------------------------------
 Center     Atomic      Atomic             Coordinates (Angstroms)
 Number     Number       Type             X           Y           Z
 ---------------------------------------------------------------------
      1          6           0       -6.848281   -0.860008    0.016904
      2          6           0       -5.664253    0.044871   -0.350860
      3          6           0       -5.914310    1.479826    0.134915
      4          6           0       -4.348344   -0.541897    0.192877
      5          6           0       -3.071583    0.168242   -0.272699
      6          6           0       -1.790124   -0.515847    0.217608
      7          6           0       -0.507775    0.188924   -0.237831
      8          6           0        0.772549   -0.496970    0.250653
      9          6           0        2.054129    0.210632   -0.204557
     10          6           0        3.325519   -0.485563    0.295629
     11          6           0        4.623272    0.146749   -0.216668
     12          6           0        4.889786    1.553219    0.312916
     13          8           0        5.639522   -0.772458    0.202070
     14          8           0        6.870196   -0.412495   -0.468482
     15          1           0       -7.786630   -0.476149   -0.397278
     16          1           0       -6.968765   -0.923383    1.105289
     17          1           0       -6.705867   -1.878217   -0.360498
     18          1           0       -5.588424    0.068860   -1.448182
     19          1           0       -5.971073    1.515575    1.229961
     20          1           0       -6.861077    1.866172   -0.257220
     21          1           0       -5.123236    2.166259   -0.180284
     22          1           0       -4.289269   -1.597982   -0.104515
     23          1           0       -4.385251   -0.541556    1.292347
     24          1           0       -3.072347    1.210018    0.072086
     25          1           0       -3.060893    0.211984   -1.371116
     26          1           0       -1.776638   -1.557111   -0.133694
     27          1           0       -1.804351   -0.569199    1.315308
     28          1           0       -0.520046    1.229469    0.115950
     29          1           0       -0.493881    0.244318   -1.335414
     30          1           0        0.787062   -1.536828   -0.103816
     31          1           0        0.759468   -0.552738    1.348056
     32          1           0        2.031797    1.250338    0.145744
     33          1           0        2.071863    0.258360   -1.302144
     34          1           0        3.318636   -1.534746   -0.021891
     35          1           0        3.341701   -0.490659    1.393210
     36          1           0        4.613403    0.161214   -1.315876
     37          1           0        4.863948    1.564809    1.408126
     38          1           0        4.142738    2.260595   -0.058225
     39          1           0        5.870764    1.899615   -0.021244
     40          1           0        7.405114   -0.122478    0.283297
 ---------------------------------------------------------------------

 SCF Done:  E(RB3LYP) =  -623.362009134     A.U. after    1 cycles

 The electronic state is 1-A.
 Alpha  occ. eigenvalues --  -19.18307 -19.18244 -10.22962 -10.18199 -10.18111
 Alpha  occ. eigenvalues --  -10.17989 -10.17715 -10.17552 -10.17447 -10.17361
 Alpha  occ. eigenvalues --  -10.17343 -10.17191 -10.16772 -10.16745  -1.10539
 Alpha  occ. eigenvalues --   -0.90593  -0.81337  -0.80107  -0.77488  -0.74356
 Alpha  occ. eigenvalues --   -0.71212  -0.67707  -0.67125  -0.62544  -0.58532
 Alpha  occ. eigenvalues --   -0.57513  -0.56667  -0.55108  -0.52196  -0.48208
 Alpha  occ. eigenvalues --   -0.46718  -0.46071  -0.45143  -0.44310  -0.43379
 Alpha  occ. eigenvalues --   -0.43361  -0.41609  -0.40518  -0.39823  -0.38795
 Alpha  occ. eigenvalues --   -0.37859  -0.37647  -0.37164  -0.36088  -0.35566
 Alpha  occ. eigenvalues --   -0.35450  -0.34043  -0.33569  -0.32626  -0.32532
 Alpha  occ. eigenvalues --   -0.32232  -0.31900  -0.31392  -0.31136  -0.29542
 Alpha  occ. eigenvalues --   -0.28892  -0.25221
 Alpha virt. eigenvalues --    0.03829   0.08213   0.08499   0.09226   0.10614
 Alpha virt. eigenvalues --    0.10826   0.11662   0.12290   0.12793   0.13145
 Alpha virt. eigenvalues --    0.14542   0.15251   0.15413   0.15935   0.16093

 Mulliken charges:
               1
     1  C   -0.387723
     2  C    0.043133
     3  C   -0.379798
     4  C   -0.164670
     5  C   -0.190791
     6  C   -0.178741
     7  C   -0.183945
     8  C   -0.178790
     9  C   -0.190893
    10  C   -0.211863
    11  C    0.185725
    12  C   -0.406669
    13  O   -0.204713
    14  O   -0.331333
    15  H    0.107014
    16  H    0.109924
    17  H    0.107698
    18  H    0.068266
    19  H    0.108739
    20  H    0.108080
    21  H    0.112962
    22  H    0.086506
    23  H    0.086895
    24  H    0.094869
    25  H    0.089724
    26  H    0.091435
    27  H    0.091154
    28  H    0.090620
    29  H    0.091559
    30  H    0.094661
    31  H    0.093096
    32  H    0.097650
    33  H    0.095927
    34  H    0.109559
    35  H    0.100567
    36  H    0.080498
    37  H    0.113798
    38  H    0.121432
    39  H    0.119267
    40  H    0.309173
 Sum of Mulliken charges =  -0.00000

 Dipole moment (field-independent basis, Debye):
    X=             -0.5832    Y=              1.3436    Z=              0.6913  Tot=              1.6197
 Quadrupole moment (field-independent basis, Debye-Ang):
   XX=            -93.3441   YY=            -92.6615   ZZ=            -90.4071
   XY=              8.5306   XZ=              6.8881   YZ=              0.4602

  Exact polarizability: 192.070   1.481 126.762  -0.625  -0.047 118.759
 Approx polarizability: 206.289   0.585 187.735  -2.582  -0.309 190.610

                      1                      2                      3
                      A                      A                      A
 Frequencies --     20.9793                23.0499                35.4347
 Red. masses --      3.9383                 2.8535                 4.0481
 Frc consts  --      0.0010                 0.0009                 0.0030
 IR Inten    --      0.3784                 0.5266                 0.0278

                      4                      5                      6
                      A                      A                      A
 Frequencies --     56.2611                64.6079                96.9846
 Red. masses --      3.1429                 1.8439                 3.7615
 Frc consts  --      0.0059                 0.0045                 0.0208
 IR Inten    --      0.2440                 0.1735                 0.4151

                      7                      8                      9
                      A                      A                      A
 Frequencies --    103.2596               115.4349               134.3383
 Red. masses --      2.9097                 1.7619                 3.3306
 Frc consts  --      0.0183                 0.0138                 0.0354
 IR Inten    --      0.5653                 0.1250                 2.7836

                     10                     11                     12
                      A                      A                      A
 Frequencies --    156.8177               161.2813               167.5723
 Red. masses --      2.0994                 2.0502                 3.4582
 Frc consts  --      0.0304                 0.0314                 0.0572
 IR Inten    --      0.0685                 0.4660                 0.5213

                     13                     14                     15
                      A                      A                      A
 Frequencies --    189.5120               220.0781               225.7205
 Red. masses --      3.3200                 1.1347                 1.0802
 Frc consts  --      0.0703                 0.0324                 0.0324
 IR Inten    --      0.6530                52.6099                 0.3528

                     16                     17                     18
                      A                      A                      A
 Frequencies --    251.0481               264.0493               281.7315
 Red. masses --      1.1279                 1.1103                 3.3682
 Frc consts  --      0.0419                 0.0456                 0.1575
 IR Inten    --      0.0563                60.9413                 1.8461

                     19                     20                     21
                      A                      A                      A
 Frequencies --    306.8900               338.4156               373.5512
 Red. masses --      2.8523                 3.0693                 2.7546
 Frc consts  --      0.1583                 0.2071                 0.2265
 IR Inten    --      0.7669                 1.9840                 0.3465

                     22                     23                     24
                      A                      A                      A
 Frequencies --    404.5789               424.3145               465.6615
 Red. masses --      2.5140                 2.1919                 2.4052
 Frc consts  --      0.2425                 0.2325                 0.3073
 IR Inten    --      0.8763                 0.7591                 1.9792

                     25                     26                     27
                      A                      A                      A
 Frequencies --    486.6865               504.3011               550.4510
 Red. masses --      3.0649                 2.9944                 3.0870
 Frc consts  --      0.4277                 0.4487                 0.5511
 IR Inten    --      0.4644                 1.5682                 4.6900

                     28                     29                     30
                      A                      A                      A
 Frequencies --    731.8962               737.4050               761.1667
 Red. masses --      1.0628                 1.0944                 1.1783
 Frc consts  --      0.3354                 0.3506                 0.4022
 IR Inten    --      4.4020                 0.1139                 0.7995

                     31                     32                     33
                      A                      A                      A
 Frequencies --    808.1483               827.3796               857.1371
 Red. masses --      1.5359                 2.0664                 2.0885
 Frc consts  --      0.5910                 0.8335                 0.9040
 IR Inten    --      0.4181                 0.2549                 1.4484

                     34                     35                     36
                      A                      A                      A
 Frequencies --    894.8629               909.4098               926.6423
 Red. masses --      1.3029                 3.0275                 1.2089
 Frc consts  --      0.6147                 1.4752                 0.6116
 IR Inten    --      0.3001                11.8234                 1.0534

                     37                     38                     39
                      A                      A                      A
 Frequencies --    943.0167               952.9247               963.7399
 Red. masses --      1.8640                 4.3536                 1.4276
 Frc consts  --      0.9766                 2.3293                 0.7812
 IR Inten    --      3.6920                 4.4840                 0.1870

                     40                     41                     42
                      A                      A                      A
 Frequencies --    971.6834              1000.2106              1010.1172
 Red. masses --      1.5101                 4.7339                 2.5578
 Frc consts  --      0.8400                 2.7903                 1.5376
 IR Inten    --      0.6947                 1.1920                 0.1981

                     43                     44                     45
                      A                      A                      A
 Frequencies --   1025.4927              1050.9388              1055.6631
 Red. masses --      1.4720                 2.3571                 2.3354
 Frc consts  --      0.9120                 1.5338                 1.5334
 IR Inten    --      1.6595                 0.3517                 4.1472

                     46                     47                     48
                      A                      A                      A
 Frequencies --   1062.0301              1070.5229              1072.9405
 Red. masses --      1.4119                 2.1584                 2.6573
 Frc consts  --      0.9383                 1.4574                 1.8024
 IR Inten    --      0.3276                 0.0206                 2.2587

                     49                     50                     51
                      A                      A                      A
 Frequencies --   1119.8520              1139.2224              1155.5150
 Red. masses --      2.3247                 1.9833                 2.7347
 Frc consts  --      1.7177                 1.5165                 2.1514
 IR Inten    --     16.2028                 5.8259                 4.5397

                     52                     53                     54
                      A                      A                      A
 Frequencies --   1192.6901              1199.7281              1212.5240
 Red. masses --      1.7665                 2.0751                 1.7718
 Frc consts  --      1.4805                 1.7598                 1.5348
 IR Inten    --      4.6114                 2.5775                 2.9874

                     55                     56                     57
                      A                      A                      A
 Frequencies --   1234.3846              1251.3448              1274.4195
 Red. masses --      1.3112                 1.5068                 1.2783
 Frc consts  --      1.1772                 1.3902                 1.2232
 IR Inten    --      4.9304                 0.4535                 0.9836

                     58                     59                     60
                      A                      A                      A
 Frequencies --   1288.3793              1309.5980              1318.1949
 Red. masses --      1.3406                 1.2411                 1.2160
 Frc consts  --      1.3111                 1.2541                 1.2449
 IR Inten    --      4.8159                 3.0980                 0.1007

                     61                     62                     63
                      A                      A                      A
 Frequencies --   1325.8759              1334.3405              1336.4842
 Red. masses --      1.0360                 1.1677                 1.1345
 Frc consts  --      1.0731                 1.2249                 1.1940
 IR Inten    --      0.3309                 2.7754                 0.0960

                     64                     65                     66
                      A                      A                      A
 Frequencies --   1339.2294              1356.5002              1370.3916
 Red. masses --      1.1648                 1.3454                 1.3299
 Frc consts  --      1.2309                 1.4587                 1.4715
 IR Inten    --      2.3144                24.3344                 9.1860

                     67                     68                     69
                      A                      A                      A
 Frequencies --   1377.0044              1382.6962              1388.3651
 Red. masses --      1.3539                 1.1837                 1.3169
 Frc consts  --      1.5125                 1.3333                 1.4956
 IR Inten    --      9.0766                 3.7838                13.2250

                     70                     71                     72
                      A                      A                      A
 Frequencies --   1395.4159              1398.8952              1402.1994
 Red. masses --      1.5561                 1.4121                 1.6017
 Frc consts  --      1.7853                 1.6281                 1.8554
 IR Inten    --      1.6296                 1.5315                 0.4994

                     73                     74                     75
                      A                      A                      A
 Frequencies --   1402.9394              1405.8939              1422.1153
 Red. masses --      1.4141                 1.3568                 1.2457
 Frc consts  --      1.6399                 1.5800                 1.4843
 IR Inten    --      5.4052                21.6893                 2.7159

                     76                     77                     78
                      A                      A                      A
 Frequencies --   1477.4721              1481.0793              1483.4384
 Red. masses --      1.0745                 1.0713                 1.0664
 Frc consts  --      1.3819                 1.3846                 1.3826
 IR Inten    --      0.2139                 0.2134                 0.0552

                     79                     80                     81
                      A                      A                      A
 Frequencies --   1484.7629              1489.0840              1489.3340
 Red. masses --      1.0797                 1.0498                 1.0600
 Frc consts  --      1.4024                 1.3715                 1.3853
 IR Inten    --      0.3513                 0.8876                 1.3507

                     82                     83                     84
                      A                      A                      A
 Frequencies --   1493.6937              1497.0393              1504.9221
 Red. masses --      1.0705                 1.0777                 1.0717
 Frc consts  --      1.4073                 1.4230                 1.4300
 IR Inten    --      1.2575                 0.2764                 3.0442

                     85                     86                     87
                      A                      A                      A
 Frequencies --   1505.0901              1509.2922              1511.7498
 Red. masses --      1.0579                 1.0718                 1.0587
 Frc consts  --      1.4119                 1.4385                 1.4255
 IR Inten    --      1.1641                 5.3078                 4.6314

                     88                     89                     90
                      A                      A                      A
 Frequencies --   1515.8213              2989.3366              2996.4281
 Red. masses --      1.0965                 1.0774                 1.0622
 Frc consts  --      1.4845                 5.6725                 5.6190
 IR Inten    --      5.7895                 5.7491                10.1542

                     91                     92                     93
                      A                      A                      A
 Frequencies --   2999.6969              3000.4792              3003.9304
 Red. masses --      1.0581                 1.0587                 1.0749
 Frc consts  --      5.6097                 5.6160                 5.7148
 IR Inten    --      0.8508                 1.2227                 8.3370

                     94                     95                     96
                      A                      A                      A
 Frequencies --   3006.2666              3010.9629              3015.6725
 Red. masses --      1.0671                 1.0626                 1.0621
 Frc consts  --      5.6820                 5.6760                 5.6911
 IR Inten    --      9.6293                 8.5062                93.6494

                     97                     98                     99
                      A                      A                      A
 Frequencies --   3020.4427              3021.1238              3025.8473
 Red. masses --      1.0869                 1.0450                 1.0716
 Frc consts  --      5.8421                 5.6198                 5.7804
 IR Inten    --      2.6663                33.6638                23.4129

                    100                    101                    102
                      A                      A                      A
 Frequencies --   3027.1646              3027.9281              3031.1051
 Red. masses --      1.0596                 1.0606                 1.0996
 Frc consts  --      5.7210                 5.7292                 5.9524
 IR Inten    --      8.0778                71.1195                 5.4998

                    103                    104                    105
                      A                      A                      A
 Frequencies --   3038.7410              3042.7344              3055.3519
 Red. masses --      1.0425                 1.0964                 1.1035
 Frc consts  --      5.6716                 5.9808                 6.0694
 IR Inten    --      8.7671                 4.5061                 0.9652

                    106                    107                    108
                      A                      A                      A
 Frequencies --   3065.1767              3077.6440              3084.9076
 Red. masses --      1.1043                 1.1036                 1.1001
 Frc consts  --      6.1132                 6.1586                 6.1685
 IR Inten    --     96.0941                99.0777                 6.2478

                    109                    110                    111
                      A                      A                      A
 Frequencies --   3091.0169              3096.2482              3105.6864
 Red. masses --      1.0998                 1.1014                 1.0997
 Frc consts  --      6.1909                 6.2209                 6.2492
 IR Inten    --     68.6130                44.2641                40.0732

                    112                    113                    114
                      A                      A                      A
 Frequencies --   3112.0872              3124.1523              3761.4984
 Red. masses --      1.0998                 1.1005                 1.0686
 Frc consts  --      6.2759                 6.3284                 8.9084
 IR Inten    --     26.1272                21.9489                34.6992

 - Thermochemistry -
 -------------------
 Temperature   298.150 Kelvin.  Pressure   1.00000 Atm.
 Atom     1 has atomic number  6 and mass  12.00000

 Molecular mass:   202.19328 amu.
 Principal axes and moments of inertia in atomic units:
                           1         2         3
     Eigenvalues --   595.44907********************
           X            0.99999   0.00464   0.00090
           Y           -0.00464   0.99999  -0.00285
           Z           -0.00092   0.00284   1.00000
 This molecule is an asymmetric top.
 Rotational symmetry number  1.
 Warning -- assumption of classical behavior for rotation
           may cause significant error
 Rotational temperatures (Kelvin)      0.14546     0.00561     0.00549
 Rotational constants (GHZ):           3.03089     0.11690     0.11430
 Zero-point vibrational energy     960989.8 (Joules/Mol)
                                  229.68207 (Kcal/Mol)
 Warning -- explicit consideration of  27 degrees of freedom as
           vibrations may cause significant error
 Vibrational temperatures:     30.18    33.16    50.98    80.95    92.96
          (Kelvin)            139.54   148.57   166.09   193.28   225.63
                              232.05   241.10   272.67   316.64   324.76
                              361.20   379.91   405.35   441.55   486.90
                              537.46   582.10   610.49   669.98   700.23
                              725.58   791.98  1053.04  1060.96  1095.15
                             1162.75  1190.41  1233.23  1287.51  1308.44
                             1333.23  1356.79  1371.05  1386.61  1398.04
                             1439.08  1453.33  1475.46  1512.07  1518.86
                             1528.02  1540.24  1543.72  1611.22  1639.09
                             1662.53  1716.02  1726.14  1744.55  1776.00
                             1800.41  1833.61  1853.69  1884.22  1896.59
                             1907.64  1919.82  1922.90  1926.85  1951.70
                             1971.69  1981.20  1989.39  1997.55  2007.69
                             2012.70  2017.45  2018.52  2022.77  2046.11
                             2125.75  2130.94  2134.34  2136.24  2142.46
                             2142.82  2149.09  2153.91  2165.25  2165.49
                             2171.53  2175.07  2180.93  4300.99  4311.19
                             4315.89  4317.02  4321.99  4325.35  4332.10
                             4338.88  4345.74  4346.72  4353.52  4355.41
                             4356.51  4361.08  4372.07  4377.82  4395.97
                             4410.11  4428.04  4438.49  4447.28  4454.81
                             4468.39  4477.60  4494.96  5411.96

 Zero-point correction=                           0.366022 (Hartree/Particle)
 Thermal correction to Energy=                    0.384940
 Thermal correction to Enthalpy=                  0.385884
 Thermal correction to Gibbs Free Energy=         0.316599
 Sum of electronic and zero-point Energies=           -622.995987
 Sum of electronic and thermal Energies=              -622.977069
 Sum of electronic and thermal Enthalpies=            -622.976125
 Sum of electronic and thermal Free Energies=         -623.045411

                     E (Thermal)             CV                S
                      KCal/Mol        Cal/Mol-Kelvin    Cal/Mol-Kelvin
 Total                  241.553             67.518            145.823
 Electronic               0.000              0.000              0.000
 Translational            0.889              2.981             41.817
 Rotational               0.889              2.981             33.339
 Vibrational            239.776             61.557             70.667
 Vibration     1          0.593              1.986              6.539
 Vibration     2          0.593              1.985              6.352
 Vibration     3          0.594              1.982              5.499
 Vibration     4          0.596              1.975              4.584
 Vibration     5          0.597              1.971              4.311
 Vibration     6          0.603              1.951              3.514
 Vibration     7          0.605              1.947              3.392
 Vibration     8          0.608              1.937              3.175
 Vibration     9          0.613              1.919              2.883
 Vibration    10          0.620              1.895              2.588
 Vibration    11          0.622              1.890              2.535
 Vibration    12          0.624              1.882              2.463
 Vibration    13          0.633              1.854              2.233
 Vibration    14          0.647              1.811              1.958
 Vibration    15          0.650              1.802              1.913
 Vibration    16          0.663              1.761              1.723
 Vibration    17          0.671              1.739              1.635
 Vibration    18          0.681              1.707              1.523
 Vibration    19          0.697              1.661              1.379
 Vibration    20          0.719              1.599              1.220
 Vibration    21          0.745              1.526              1.065
 Vibration    22          0.770              1.460              0.946
 Vibration    23          0.786              1.417              0.877
 Vibration    24          0.823              1.326              0.750
 Vibration    25          0.843              1.280              0.692
 Vibration    26          0.860              1.240              0.647
 Vibration    27          0.906              1.139              0.543

 Optimization completed.
    -- Stationary point found.
 Normal termination of Gaussian 16 at Wed May 24 09:27:31 2023.
