 Gaussian 16, Revision A.03,
 Gaussian 16:  ES64L-G16RevA.03 25-Dec-2016

 -----------------------------
 # opt freq b3lyp/6-31g(2df,p)
 -----------------------------

 -------------------
 Title Card Required
 -------------------
 Symbolic Z-matrix:
 Charge =  0 Multiplicity = 1

 SCF Done:  E(RB3LYP) =  -504.216493958     A.U. after   12 cycles
 SCF Done:  E(RB3LYP) =  -504.223896909     A.U. after   11 cycles
 SCF Done:  E(RB3LYP) =  -504.221586321     A.U. after   11 cycles
 SCF Done:  E(RB3LYP) =  -504.225598471     A.U. after   10 cycles
 SCF Done:  E(RB3LYP) =  -504.226633252     A.U. after   10 cycles
 SCF Done:  E(RB3LYP) =  -504.226966312     A.U. after   10 cycles
 SCF Done:  E(RB3LYP) =  -504.227240868     A.U. after   11 cycles
 SCF Done:  E(RB3LYP) =  -504.227344965     A.U. after   11 cycles
 SCF Done:  E(RB3LYP) =  -504.227679639     A.U. after   10 cycles
 SCF Done:  E(RB3LYP) =  -504.228231998     A.U. after   10 cycles
 SCF Done:  E(RB3LYP) =  -504.228616609     A.U. after    7 cycles
 SCF Done:  E(RB3LYP) =  -504.228617602     A.U. after    7 cycles
 SCF Done:  E(RB3LYP) =  -504.228618736     A.U. after    7 cycles
 SCF Done:  E(RB3LYP) =  -504.228619435     A.U. after    7 cycles
 SCF Done:  E(RB3LYP) =  -504.228620174     A.U. after    7 cycles
 SCF Done:  E(RB3LYP) =  -504.228621102     A.U. after    7 cycles
 SCF Done:  E(RB3LYP) =  -504.228621939     A.U. after    7 cycles
 SCF Done:  E(RB3LYP) =  -504.228622186     A.U. after    7 cycles
 SCF Done:  E(RB3LYP) =  -504.228622246     A.U. after    6 cycles
 Optimization completed.
    -- Stationary point found.
 Normal termination of Gaussian 16 at Mon May 22 02:47:28 2023.

 ----------------------------------------------------------------------
 #N Geom=AllCheck Guess=TCheck SCRF=Check GenChk RB3LYP/6-31G(2df,p) Fr
 eq
 ----------------------------------------------------------------------

 Structure from the checkpoint file:  "CCqCrCqCrCqOrC1CC1O.chk"
 -------------------
 Title Card Required
 -------------------
 Charge =  0 Multiplicity = 1

                         Standard orientation:
 ---------------------------------------------------------------------
 Center     Atomic      Atomic             Coordinates (Angstroms)
 Number     Number       Type             X           Y           Z
 ---------------------------------------------------------------------
      1          6           0        3.227380    1.201854   -0.341691
      2          6           0        2.287415   -0.011557   -0.255750
      3          6           0        2.938030   -1.080094    0.638118
      4          6           0        0.823563    0.311316    0.217105
      5          6           0        0.454194    1.800663    0.111982
      6          6           0       -0.182893   -0.576403   -0.562061
      7          8           0        0.247259   -1.944148   -0.590105
      8          6           0       -1.648789   -0.581349   -0.124916
      9          6           0       -2.183415   -0.185138    1.250023
     10          6           0       -2.617426    0.557826    0.013180
     11          8           0       -3.919528    0.467978   -0.491060
     12          1           0        4.209036    0.877881   -0.703163
     13          1           0        3.383307    1.669641    0.637651
     14          1           0        2.864279    1.971271   -1.028179
     15          1           0        2.213813   -0.431220   -1.266668
     16          1           0        3.046823   -0.712025    1.666161
     17          1           0        3.938754   -1.336849    0.274044
     18          1           0        2.346667   -1.996230    0.660282
     19          1           0        0.756117    0.033318    1.279434
     20          1           0        0.347633    2.121168   -0.930775
     21          1           0        1.216024    2.430323    0.575097
     22          1           0       -0.482399    2.022830    0.625869
     23          1           0       -0.141525   -0.269818   -1.616373
     24          1           0        0.084118   -2.309093    0.287153
     25          1           0       -2.123769   -1.473072   -0.533515
     26          1           0       -1.521039    0.321255    1.944418
     27          1           0       -2.899845   -0.847387    1.726339
     28          1           0       -2.265631    1.572357   -0.119679
     29          1           0       -4.182571   -0.457695   -0.504713
 ---------------------------------------------------------------------

 SCF Done:  E(RB3LYP) =  -504.228622246     A.U. after    1 cycles

 The electronic state is 1-A.
 Alpha  occ. eigenvalues --  -19.14208 -19.13490 -10.23762 -10.23433 -10.19231
 Alpha  occ. eigenvalues --  -10.18758 -10.18735 -10.18194 -10.17506 -10.16800
 Alpha  occ. eigenvalues --  -10.16395  -1.02768  -1.01678  -0.84847  -0.80812
 Alpha  occ. eigenvalues --   -0.74333  -0.68881  -0.67365  -0.62534  -0.61583
 Alpha  occ. eigenvalues --   -0.57785  -0.55508  -0.51246  -0.50584  -0.47541
 Alpha  occ. eigenvalues --   -0.44964  -0.43525  -0.42473  -0.41466  -0.40287
 Alpha  occ. eigenvalues --   -0.39890  -0.38449  -0.38240  -0.37274  -0.36936
 Alpha  occ. eigenvalues --   -0.35890  -0.34865  -0.33155  -0.32211  -0.31359
 Alpha  occ. eigenvalues --   -0.30487  -0.28559  -0.27157  -0.23692
 Alpha virt. eigenvalues --    0.07228   0.07585   0.08137   0.09766   0.10773
 Alpha virt. eigenvalues --    0.11386   0.13667   0.14399   0.14619   0.14966
 Alpha virt. eigenvalues --    0.16102   0.16722   0.17325   0.18274   0.18844

 Mulliken charges:
               1
     1  C   -0.406905
     2  C    0.064747
     3  C   -0.383729
     4  C   -0.013041
     5  C   -0.418035
     6  C    0.083690
     7  O   -0.430105
     8  C   -0.077345
     9  C   -0.343115
    10  C    0.137665
    11  O   -0.435173
    12  H    0.108122
    13  H    0.110415
    14  H    0.111172
    15  H    0.083088
    16  H    0.102706
    17  H    0.105896
    18  H    0.108087
    19  H    0.060410
    20  H    0.116795
    21  H    0.119781
    22  H    0.119262
    23  H    0.091470
    24  H    0.277537
    25  H    0.088430
    26  H    0.121450
    27  H    0.107667
    28  H    0.107222
    29  H    0.281837
 Sum of Mulliken charges =  -0.00000

 Dipole moment (field-independent basis, Debye):
    X=              0.1134    Y=             -0.5770    Z=              1.3181  Tot=              1.4434
 Quadrupole moment (field-independent basis, Debye-Ang):
   XX=            -73.4972   YY=            -69.9215   ZZ=            -69.8164
   XY=              7.7687   XZ=             -1.1870   YZ=             -2.2723

  Exact polarizability: 122.967   0.597  99.056  -0.557  -1.885  89.292
 Approx polarizability: 149.641  -1.773 145.156   0.261  -1.016 143.625

                      1                      2                      3
                      A                      A                      A
 Frequencies --     46.1382                52.5939                81.9683
 Red. masses --      3.1578                 3.0026                 3.2903
 Frc consts  --      0.0040                 0.0049                 0.0130
 IR Inten    --      0.1276                 0.5147                 2.0649

                      4                      5                      6
                      A                      A                      A
 Frequencies --    118.5040               148.5964               176.3859
 Red. masses --      1.2128                 2.5069                 3.9022
 Frc consts  --      0.0100                 0.0326                 0.0715
 IR Inten    --     67.2990                19.9998                10.0666

                      7                      8                      9
                      A                      A                      A
 Frequencies --    220.3911               226.2868               250.7207
 Red. masses --      2.7668                 1.1383                 1.4614
 Frc consts  --      0.0792                 0.0343                 0.0541
 IR Inten    --      3.2934                 0.0896                 2.0205

                     10                     11                     12
                      A                      A                      A
 Frequencies --    282.1011               301.0620               303.0645
 Red. masses --      3.0246                 1.9226                 1.3459
 Frc consts  --      0.1418                 0.1027                 0.0728
 IR Inten    --      5.6581                 0.1216                 1.1069

                     13                     14                     15
                      A                      A                      A
 Frequencies --    347.7120               372.8959               390.9047
 Red. masses --      1.4827                 2.1736                 2.1781
 Frc consts  --      0.1056                 0.1781                 0.1961
 IR Inten    --     50.2823                 0.3289                46.8460

                     16                     17                     18
                      A                      A                      A
 Frequencies --    406.7462               425.0910               464.6661
 Red. masses --      1.8783                 2.3545                 2.5603
 Frc consts  --      0.1831                 0.2507                 0.3257
 IR Inten    --     49.8156                 0.3966                 1.0313

                     19                     20                     21
                      A                      A                      A
 Frequencies --    489.8281               525.3140               574.6098
 Red. masses --      2.8607                 3.4679                 2.1675
 Frc consts  --      0.4044                 0.5638                 0.4217
 IR Inten    --      4.5017                 3.3278                 1.7608

                     22                     23                     24
                      A                      A                      A
 Frequencies --    774.6042               785.4730               840.4655
 Red. masses --      2.6793                 2.2755                 1.8413
 Frc consts  --      0.9472                 0.8271                 0.7663
 IR Inten    --     11.3531                 0.9178                 3.1811

                     25                     26                     27
                      A                      A                      A
 Frequencies --    903.3743               911.7666               921.1863
 Red. masses --      1.8024                 1.8566                 1.2715
 Frc consts  --      0.8666                 0.9093                 0.6357
 IR Inten    --     24.1294                 1.1708                 1.4755

                     28                     29                     30
                      A                      A                      A
 Frequencies --    931.6471               946.8576               962.7730
 Red. masses --      2.1478                 2.7599                 1.4814
 Frc consts  --      1.0984                 1.4578                 0.8090
 IR Inten    --      9.4745                18.8665                 0.9535

                     31                     32                     33
                      A                      A                      A
 Frequencies --   1013.3188              1021.6870              1029.8570
 Red. masses --      1.5505                 3.1175                 1.5709
 Frc consts  --      0.9380                 1.9173                 0.9816
 IR Inten    --     10.2219                47.5865                43.9382

                     34                     35                     36
                      A                      A                      A
 Frequencies --   1055.9680              1071.5743              1105.5673
 Red. masses --      2.2389                 1.6943                 1.3625
 Frc consts  --      1.4709                 1.1463                 0.9812
 IR Inten    --      6.4974                30.0972                 4.2004

                     37                     38                     39
                      A                      A                      A
 Frequencies --   1113.3708              1118.7236              1152.4436
 Red. masses --      1.4186                 1.7357                 2.1689
 Frc consts  --      1.0361                 1.2799                 1.6972
 IR Inten    --     19.5078                59.2643                12.9012

                     40                     41                     42
                      A                      A                      A
 Frequencies --   1165.4085              1182.9536              1198.2811
 Red. masses --      1.9585                 1.9593                 1.9608
 Frc consts  --      1.5672                 1.6155                 1.6589
 IR Inten    --     17.9917                11.1574                 6.8641

                     43                     44                     45
                      A                      A                      A
 Frequencies --   1246.3576              1249.5610              1282.8331
 Red. masses --      1.6353                 1.4481                 1.3610
 Frc consts  --      1.4967                 1.3322                 1.3196
 IR Inten    --     38.3600                14.8738                13.7076

                     46                     47                     48
                      A                      A                      A
 Frequencies --   1298.7934              1328.7722              1356.1093
 Red. masses --      1.4555                 1.3047                 1.3660
 Frc consts  --      1.4466                 1.3572                 1.4801
 IR Inten    --      2.6763                 4.1450                 1.1074

                     49                     50                     51
                      A                      A                      A
 Frequencies --   1369.0827              1380.7016              1393.9847
 Red. masses --      1.4482                 1.3137                 1.2483
 Frc consts  --      1.5993                 1.4755                 1.4292
 IR Inten    --      3.2181                 0.5090                14.3025

                     52                     53                     54
                      A                      A                      A
 Frequencies --   1395.0504              1411.8289              1416.8667
 Red. masses --      1.3242                 1.2300                 1.2138
 Frc consts  --      1.5184                 1.4446                 1.4356
 IR Inten    --     18.3203                 5.6485                19.2451

                     55                     56                     57
                      A                      A                      A
 Frequencies --   1427.5508              1437.5805              1485.7169
 Red. masses --      1.2199                 1.2299                 1.1174
 Frc consts  --      1.4647                 1.4975                 1.4533
 IR Inten    --     26.2345                31.1454                 9.1394

                     58                     59                     60
                      A                      A                      A
 Frequencies --   1488.5127              1491.8730              1502.7179
 Red. masses --      1.1313                 1.2586                 1.0580
 Frc consts  --      1.4768                 1.6504                 1.4076
 IR Inten    --      7.3525                17.5987                 0.9740

                     61                     62                     63
                      A                      A                      A
 Frequencies --   1505.5371              1517.1776              1527.0407
 Red. masses --      1.0571                 1.0464                 1.0529
 Frc consts  --      1.4117                 1.4192                 1.4466
 IR Inten    --      1.5062                12.0033                 5.7304

                     64                     65                     66
                      A                      A                      A
 Frequencies --   2987.8210              3015.8838              3022.2945
 Red. masses --      1.0808                 1.0842                 1.0543
 Frc consts  --      5.6847                 5.8102                 5.6741
 IR Inten    --      7.7382                21.5138                10.3288

                     67                     68                     69
                      A                      A                      A
 Frequencies --   3024.9273              3032.1213              3043.0931
 Red. masses --      1.0530                 1.0533                 1.0452
 Frc consts  --      5.6769                 5.7055                 5.7025
 IR Inten    --     19.2497                46.8003                24.7782

                     70                     71                     72
                      A                      A                      A
 Frequencies --   3082.4900              3091.7823              3105.4397
 Red. masses --      1.0996                 1.0991                 1.0857
 Frc consts  --      6.1559                 6.1904                 6.1686
 IR Inten    --      4.0789                68.0476                15.8617

                     73                     74                     75
                      A                      A                      A
 Frequencies --   3108.8404              3118.5143              3125.4707
 Red. masses --      1.0999                 1.0922                 1.0556
 Frc consts  --      6.2631                 6.2580                 6.0755
 IR Inten    --     32.8717                25.1231                 9.0946

                     76                     77                     78
                      A                      A                      A
 Frequencies --   3132.8509              3138.1619              3203.3469
 Red. masses --      1.0989                 1.0958                 1.0964
 Frc consts  --      6.3548                 6.3581                 6.6286
 IR Inten    --     28.1061                26.6010                 2.8178

                     79                     80                     81
                      A                      A                      A
 Frequencies --   3212.8078              3793.7741              3819.9561
 Red. masses --      1.1070                 1.0660                 1.0659
 Frc consts  --      6.7324                 9.0393                 9.1639
 IR Inten    --     17.4933                14.0041                18.1974

 - Thermochemistry -
 -------------------
 Temperature   298.150 Kelvin.  Pressure   1.00000 Atm.
 Atom     1 has atomic number  6 and mass  12.00000

 Molecular mass:   158.13068 amu.
 Principal axes and moments of inertia in atomic units:
                           1         2         3
     Eigenvalues --   883.172663193.581053647.92453
           X            0.99992   0.01243  -0.00257
           Y           -0.01249   0.99958  -0.02623
           Z            0.00224   0.02626   0.99965
 This molecule is an asymmetric top.
 Rotational symmetry number  1.
 Warning -- assumption of classical behavior for rotation
           may cause significant error
 Rotational temperatures (Kelvin)      0.09807     0.02712     0.02374
 Rotational constants (GHZ):           2.04347     0.56512     0.49473
 Zero-point vibrational energy     681788.3 (Joules/Mol)
                                  162.95132 (Kcal/Mol)
 Warning -- explicit consideration of  21 degrees of freedom as
           vibrations may cause significant error
 Vibrational temperatures:     66.38    75.67   117.93   170.50   213.80
          (Kelvin)            253.78   317.09   325.58   360.73   405.88
                              433.16   436.04   500.28   536.51   562.42
                              585.22   611.61   668.55   704.75   755.81
                              826.74  1114.48  1130.12  1209.24  1299.75
                             1311.83  1325.38  1340.43  1362.32  1385.22
                             1457.94  1469.98  1481.73  1519.30  1541.76
                             1590.66  1601.89  1609.59  1658.11  1676.76
                             1702.01  1724.06  1793.23  1797.84  1845.71
                             1868.67  1911.81  1951.14  1969.80  1986.52
                             2005.63  2007.17  2031.31  2038.56  2053.93
                             2068.36  2137.62  2141.64  2146.47  2162.08
                             2166.13  2182.88  2197.07  4298.81  4339.18
                             4348.41  4352.20  4362.55  4378.33  4435.02
                             4448.39  4468.04  4472.93  4486.85  4496.86
                             4507.47  4515.11  4608.90  4622.51  5458.39
                             5496.06

 Zero-point correction=                           0.259679 (Hartree/Particle)
 Thermal correction to Energy=                    0.273177
 Thermal correction to Enthalpy=                  0.274122
 Thermal correction to Gibbs Free Energy=         0.220172
 Sum of electronic and zero-point Energies=           -503.968943
 Sum of electronic and thermal Energies=              -503.955445
 Sum of electronic and thermal Enthalpies=            -503.954501
 Sum of electronic and thermal Free Energies=         -504.008450

                     E (Thermal)             CV                S
                      KCal/Mol        Cal/Mol-Kelvin    Cal/Mol-Kelvin
 Total                  171.421             50.738            113.547
 Electronic               0.000              0.000              0.000
 Translational            0.889              2.981             41.084
 Rotational               0.889              2.981             30.710
 Vibrational            169.644             44.777             41.753
 Vibration     1          0.595              1.979              4.976
 Vibration     2          0.596              1.977              4.717
 Vibration     3          0.600              1.961              3.843
 Vibration     4          0.609              1.934              3.125
 Vibration     5          0.618              1.904              2.690
 Vibration     6          0.628              1.871              2.366
 Vibration     7          0.647              1.810              1.956
 Vibration     8          0.650              1.801              1.908
 Vibration     9          0.663              1.762              1.726
 Vibration    10          0.681              1.707              1.521
 Vibration    11          0.693              1.672              1.411
 Vibration    12          0.695              1.668              1.400
 Vibration    13          0.725              1.580              1.177
 Vibration    14          0.744              1.528              1.068
 Vibration    15          0.759              1.490              0.997
 Vibration    16          0.772              1.456              0.938
 Vibration    17          0.787              1.416              0.875
 Vibration    18          0.822              1.328              0.753
 Vibration    19          0.846              1.273              0.684
 Vibration    20          0.880              1.194              0.598
 Vibration    21          0.931              1.086              0.495

                           ! Non-Optimized Parameters !
 Normal termination of Gaussian 16 at Mon May 22 03:58:47 2023.
