 Gaussian 16, Revision A.03,
 Gaussian 16:  ES64L-G16RevA.03 25-Dec-2016

 -----------------------------
 # opt freq b3lyp/6-31g(2df,p)
 -----------------------------

 -------------------
 Title Card Required
 -------------------
 Symbolic Z-matrix:
 Charge =  0 Multiplicity = 1

 SCF Done:  E(RB3LYP) =  -749.318912308     A.U. after   13 cycles
 SCF Done:  E(RB3LYP) =  -749.327912896     A.U. after   13 cycles
 SCF Done:  E(RB3LYP) =  -749.330038086     A.U. after   11 cycles
 SCF Done:  E(RB3LYP) =  -749.330900216     A.U. after   11 cycles
 SCF Done:  E(RB3LYP) =  -749.331014822     A.U. after   11 cycles
 SCF Done:  E(RB3LYP) =  -749.331296165     A.U. after   10 cycles
 SCF Done:  E(RB3LYP) =  -749.331357253     A.U. after   10 cycles
 SCF Done:  E(RB3LYP) =  -749.331396343     A.U. after   10 cycles
 SCF Done:  E(RB3LYP) =  -749.331401495     A.U. after    9 cycles
 SCF Done:  E(RB3LYP) =  -749.331409371     A.U. after    9 cycles
 SCF Done:  E(RB3LYP) =  -749.331480052     A.U. after   10 cycles
 SCF Done:  E(RB3LYP) =  -749.331484386     A.U. after    9 cycles
 SCF Done:  E(RB3LYP) =  -749.331484968     A.U. after    8 cycles
 SCF Done:  E(RB3LYP) =  -749.331485598     A.U. after    8 cycles
 SCF Done:  E(RB3LYP) =  -749.331486050     A.U. after    9 cycles
 SCF Done:  E(RB3LYP) =  -749.331486204     A.U. after    7 cycles
 SCF Done:  E(RB3LYP) =  -749.331486308     A.U. after    7 cycles
 SCF Done:  E(RB3LYP) =  -749.331486352     A.U. after    6 cycles
 SCF Done:  E(RB3LYP) =  -749.331486357     A.U. after    6 cycles
 Optimization completed.
    -- Stationary point found.
 Normal termination of Gaussian 16 at Mon May 22 00:40:49 2023.

 ----------------------------------------------------------------------
 #N Geom=AllCheck Guess=TCheck SCRF=Check GenChk RB3LYP/6-31G(2df,p) Fr
 eq
 ----------------------------------------------------------------------

 Structure from the checkpoint file:  "CCqCCCqdOrCCONrOCCCO.chk"
 -------------------
 Title Card Required
 -------------------
 Charge =  0 Multiplicity = 1

                         Standard orientation:
 ---------------------------------------------------------------------
 Center     Atomic      Atomic             Coordinates (Angstroms)
 Number     Number       Type             X           Y           Z
 ---------------------------------------------------------------------
      1          6           0        1.355443    2.974254   -0.121900
      2          6           0        1.453858    1.494798    0.238725
      3          6           0        0.314956    0.648584   -0.351332
      4          6           0       -1.064138    0.972080    0.225502
      5          6           0       -2.130945   -0.059859   -0.130139
      6          8           0       -1.850939   -1.143758   -0.590977
      7          6           0       -3.569424    0.350161    0.142693
      8          6           0       -4.562702   -0.786763   -0.048829
      9          8           0       -5.847684   -0.244014    0.216480
     10          7           0       -6.826929   -1.283925    0.049495
     11          8           0        2.718657    1.055012   -0.243865
     12          6           0        3.236036   -0.106314    0.371989
     13          6           0        4.635401   -0.352902   -0.178662
     14          6           0        5.287886   -1.608552    0.400449
     15          8           0        6.611169   -1.806241   -0.070801
     16          1           0        0.435455    3.420254    0.266321
     17          1           0        1.370667    3.099737   -1.209458
     18          1           0        2.205980    3.519064    0.295508
     19          1           0        1.436461    1.391867    1.338774
     20          1           0        0.511768   -0.412459   -0.175136
     21          1           0        0.306406    0.780517   -1.439622
     22          1           0       -1.420255    1.963100   -0.080437
     23          1           0       -1.023390    1.010245    1.325594
     24          1           0       -3.821257    1.184631   -0.526213
     25          1           0       -3.643829    0.760654    1.157902
     26          1           0       -4.342884   -1.617593    0.633815
     27          1           0       -4.507465   -1.182360   -1.069989
     28          1           0       -7.472316   -0.898788   -0.640933
     29          1           0       -7.341285   -1.271572    0.930635
     30          1           0        2.595969   -0.982203    0.179536
     31          1           0        3.273437    0.029541    1.466973
     32          1           0        5.269077    0.515038    0.031836
     33          1           0        4.567375   -0.442489   -1.271053
     34          1           0        4.656803   -2.490002    0.199273
     35          1           0        5.375619   -1.521787    1.489440
     36          1           0        6.568321   -1.908838   -1.026899
 ---------------------------------------------------------------------

 SCF Done:  E(RB3LYP) =  -749.331486357     A.U. after    1 cycles

 The electronic state is 1-A.
 Alpha  occ. eigenvalues --  -19.16062 -19.13443 -19.13329 -19.13071 -14.36293
 Alpha  occ. eigenvalues --  -10.27351 -10.23327 -10.22669 -10.22514 -10.22256
 Alpha  occ. eigenvalues --  -10.19730 -10.19458 -10.18032 -10.17818 -10.17461
 Alpha  occ. eigenvalues --   -1.05621  -1.04362  -1.02842  -1.01181  -0.82969
 Alpha  occ. eigenvalues --   -0.80758  -0.77764  -0.75578  -0.73003  -0.66734
 Alpha  occ. eigenvalues --   -0.65872  -0.61320  -0.59710  -0.57496  -0.53250
 Alpha  occ. eigenvalues --   -0.50963  -0.50822  -0.49873  -0.48860  -0.47651
 Alpha  occ. eigenvalues --   -0.47262  -0.46350  -0.45108  -0.44072  -0.43751
 Alpha  occ. eigenvalues --   -0.42141  -0.41859  -0.41039  -0.39534  -0.38718
 Alpha  occ. eigenvalues --   -0.38016  -0.37044  -0.36054  -0.35762  -0.35103
 Alpha  occ. eigenvalues --   -0.34806  -0.34419  -0.33059  -0.31889  -0.30655
 Alpha  occ. eigenvalues --   -0.26436  -0.26124  -0.25716  -0.25375  -0.24543
 Alpha virt. eigenvalues --   -0.01332   0.07600   0.07970   0.08266   0.09181
 Alpha virt. eigenvalues --    0.09569   0.10477   0.11349   0.12160   0.13331
 Alpha virt. eigenvalues --    0.14313   0.14422   0.14830   0.15075   0.15474

 Mulliken charges:
               1
     1  C   -0.396402
     2  C    0.132717
     3  C   -0.200713
     4  C   -0.311777
     5  C    0.369483
     6  O   -0.300506
     7  C   -0.318576
     8  C   -0.014835
     9  O   -0.281135
    10  N   -0.385823
    11  O   -0.260471
    12  C   -0.069935
    13  C   -0.212333
    14  C   -0.056218
    15  O   -0.418720
    16  H    0.112104
    17  H    0.123484
    18  H    0.122278
    19  H    0.058166
    20  H    0.122194
    21  H    0.107437
    22  H    0.118604
    23  H    0.124439
    24  H    0.132647
    25  H    0.125084
    26  H    0.102455
    27  H    0.108735
    28  H    0.249136
    29  H    0.249251
    30  H    0.093002
    31  H    0.084698
    32  H    0.114497
    33  H    0.097537
    34  H    0.087811
    35  H    0.111094
    36  H    0.280591
 Sum of Mulliken charges =  -0.00000

 Dipole moment (field-independent basis, Debye):
    X=             -2.8134    Y=              1.8362    Z=              0.6579  Tot=              3.4234
 Quadrupole moment (field-independent basis, Debye-Ang):
   XX=            -92.1518   YY=            -95.8778   ZZ=            -87.3013
   XY=             -3.1284   XZ=             -6.6709   YZ=              0.5698

  Exact polarizability: 172.987   0.289 124.704  -1.684   1.984 108.673
 Approx polarizability: 189.856  -1.834 183.279  -2.880   6.530 173.101

                      1                      2                      3
                      A                      A                      A
 Frequencies --     17.4698                21.6135                26.1766
 Red. masses --      5.7648                 3.7082                 2.2933
 Frc consts  --      0.0010                 0.0010                 0.0009
 IR Inten    --      1.8480                 0.5171                 3.4691

                      4                      5                      6
                      A                      A                      A
 Frequencies --     39.5410                63.4277                69.4759
 Red. masses --      2.9418                 2.8922                 2.3082
 Frc consts  --      0.0027                 0.0069                 0.0066
 IR Inten    --      0.3402                 1.3278                 0.3248

                      7                      8                      9
                      A                      A                      A
 Frequencies --     74.8843                88.4509               113.5533
 Red. masses --      3.7853                 3.0179                 1.9538
 Frc consts  --      0.0125                 0.0139                 0.0148
 IR Inten    --      0.0606                 0.4878                 4.1944

                     10                     11                     12
                      A                      A                      A
 Frequencies --    117.9436               123.3491               130.8058
 Red. masses --      2.3872                 2.4957                 2.9341
 Frc consts  --      0.0196                 0.0224                 0.0296
 IR Inten    --      1.9179                 1.5034                 4.2737

                     13                     14                     15
                      A                      A                      A
 Frequencies --    160.1142               169.8586               191.9861
 Red. masses --      1.5377                 3.8070                 2.5575
 Frc consts  --      0.0232                 0.0647                 0.0555
 IR Inten    --     39.4212                 2.3547                 3.6431

                     16                     17                     18
                      A                      A                      A
 Frequencies --    227.4116               258.2799               285.5890
 Red. masses --      1.4897                 3.4341                 2.1943
 Frc consts  --      0.0454                 0.1350                 0.1054
 IR Inten    --      0.2165                 5.1452                12.3038

                     19                     20                     21
                      A                      A                      A
 Frequencies --    309.2628               319.9802               326.7392
 Red. masses --      1.5766                 4.9673                 3.5259
 Frc consts  --      0.0888                 0.2996                 0.2218
 IR Inten    --     67.0905                20.4377                14.5800

                     22                     23                     24
                      A                      A                      A
 Frequencies --    427.6188               429.9071               472.4309
 Red. masses --      2.6361                 3.7704                 2.0715
 Frc consts  --      0.2840                 0.4106                 0.2724
 IR Inten    --      2.4130                28.6781                 0.4108

                     25                     26                     27
                      A                      A                      A
 Frequencies --    503.5980               531.3001               551.8158
 Red. masses --      3.2525                 3.0419                 3.3934
 Frc consts  --      0.4860                 0.5059                 0.6088
 IR Inten    --     13.1685                 1.5437                 4.6541

                     28                     29                     30
                      A                      A                      A
 Frequencies --    675.9433               721.2468               771.3135
 Red. masses --      4.6291                 1.2377                 1.0796
 Frc consts  --      1.2461                 0.3794                 0.3784
 IR Inten    --     15.6277                 0.2822                 1.1782

                     31                     32                     33
                      A                      A                      A
 Frequencies --    800.2025               843.4586               877.9944
 Red. masses --      1.4392                 2.7871                 1.5444
 Frc consts  --      0.5430                 1.1683                 0.7014
 IR Inten    --      2.2598                 1.3067                 6.9037

                     34                     35                     36
                      A                      A                      A
 Frequencies --    883.0770               927.6526               928.9280
 Red. masses --      1.7172                 1.4512                 2.5094
 Frc consts  --      0.7890                 0.7358                 1.2758
 IR Inten    --      0.0223                 1.3291                 1.3591

                     37                     38                     39
                      A                      A                      A
 Frequencies --    944.6177              1001.3695              1022.8528
 Red. masses --      5.3093                 2.5860                 2.9752
 Frc consts  --      2.7913                 1.5278                 1.8340
 IR Inten    --      8.7981                44.5211                32.7313

                     40                     41                     42
                      A                      A                      A
 Frequencies --   1023.7124              1040.3308              1066.6300
 Red. masses --      1.4979                 2.5785                 2.4006
 Frc consts  --      0.9249                 1.6442                 1.6092
 IR Inten    --     27.5183                40.5079                 5.7644

                     43                     44                     45
                      A                      A                      A
 Frequencies --   1074.1213              1077.9031              1100.1529
 Red. masses --      2.5845                 4.2564                 3.2847
 Frc consts  --      1.7569                 2.9137                 2.3424
 IR Inten    --     25.8632               154.1490                 7.5913

                     46                     47                     48
                      A                      A                      A
 Frequencies --   1111.3272              1127.5540              1137.2791
 Red. masses --      2.3812                 1.7185                 2.7996
 Frc consts  --      1.7327                 1.2873                 2.1335
 IR Inten    --     65.0219                 3.0672                69.0018

                     49                     50                     51
                      A                      A                      A
 Frequencies --   1147.5614              1163.9480              1203.7976
 Red. masses --      2.9764                 2.2031                 1.3828
 Frc consts  --      2.3094                 1.7585                 1.1806
 IR Inten    --     81.7884                55.4992                 3.5643

                     52                     53                     54
                      A                      A                      A
 Frequencies --   1212.6692              1229.9409              1243.2314
 Red. masses --      1.3220                 1.3985                 1.7121
 Frc consts  --      1.1454                 1.2465                 1.5591
 IR Inten    --      6.3209                14.2242                57.1636

                     55                     56                     57
                      A                      A                      A
 Frequencies --   1276.3090              1281.4655              1286.3136
 Red. masses --      1.2978                 1.2831                 1.1891
 Frc consts  --      1.2456                 1.2414                 1.1592
 IR Inten    --     11.4179                 1.2305                 1.1901

                     58                     59                     60
                      A                      A                      A
 Frequencies --   1300.8378              1310.6783              1315.0795
 Red. masses --      1.1889                 1.1370                 1.1339
 Frc consts  --      1.1853                 1.1508                 1.1554
 IR Inten    --     12.1293                 0.6360                 6.9631

                     61                     62                     63
                      A                      A                      A
 Frequencies --   1324.2460              1329.9418              1365.4928
 Red. masses --      1.1249                 1.5541                 1.3526
 Frc consts  --      1.1622                 1.6195                 1.4859
 IR Inten    --      1.9212                23.9837                62.5563

                     64                     65                     66
                      A                      A                      A
 Frequencies --   1378.3040              1393.8814              1396.8772
 Red. masses --      1.3466                 1.4262                 1.3380
 Frc consts  --      1.5072                 1.6326                 1.5382
 IR Inten    --     22.2465                16.8759                 0.5752

                     67                     68                     69
                      A                      A                      A
 Frequencies --   1408.5147              1413.8231              1427.2695
 Red. masses --      1.3213                 1.5158                 1.2946
 Frc consts  --      1.5445                 1.7852                 1.5539
 IR Inten    --     22.4942                63.4951                49.8799

                     70                     71                     72
                      A                      A                      A
 Frequencies --   1441.6109              1450.8139              1461.3445
 Red. masses --      1.4340                 1.0929                 1.1142
 Frc consts  --      1.7559                 1.3554                 1.4019
 IR Inten    --      2.2329                 1.0658                11.0947

                     73                     74                     75
                      A                      A                      A
 Frequencies --   1485.5911              1486.6977              1493.4044
 Red. masses --      1.0552                 1.0742                 1.0839
 Frc consts  --      1.3721                 1.3989                 1.4243
 IR Inten    --      1.8415                 5.3997                 1.1478

                     76                     77                     78
                      A                      A                      A
 Frequencies --   1502.6779              1513.2577              1522.1832
 Red. masses --      1.0617                 1.0895                 1.0812
 Frc consts  --      1.4124                 1.4699                 1.4759
 IR Inten    --      5.0486                 1.1536                 3.1646

                     79                     80                     81
                      A                      A                      A
 Frequencies --   1529.7011              1653.8104              1802.8184
 Red. masses --      1.0898                 1.0672                10.9309
 Frc consts  --      1.5025                 1.7198                20.9319
 IR Inten    --      2.4434                 9.2096               105.6632

                     82                     83                     84
                      A                      A                      A
 Frequencies --   2936.7836              2951.6505              2967.7576
 Red. masses --      1.0795                 1.0615                 1.0728
 Frc consts  --      5.4854                 5.4487                 5.5670
 IR Inten    --     20.6451                52.0627                49.9934

                     85                     86                     87
                      A                      A                      A
 Frequencies --   2985.9593              2998.7450              3019.1945
 Red. masses --      1.0962                 1.0679                 1.0590
 Frc consts  --      5.7585                 5.6580                 5.6877
 IR Inten    --     53.0910                12.3164                16.3919

                     88                     89                     90
                      A                      A                      A
 Frequencies --   3024.7833              3026.8766              3041.9119
 Red. masses --      1.0647                 1.0604                 1.0373
 Frc consts  --      5.7392                 5.7242                 5.6549
 IR Inten    --     19.1358                21.1395                11.9895

                     91                     92                     93
                      A                      A                      A
 Frequencies --   3046.6032              3048.0075              3056.4370
 Red. masses --      1.0692                 1.0928                 1.0876
 Frc consts  --      5.8468                 5.9818                 5.9862
 IR Inten    --     16.1277                 9.8880                 6.0732

                     94                     95                     96
                      A                      A                      A
 Frequencies --   3059.6845              3070.8499              3087.5839
 Red. masses --      1.0875                 1.1041                 1.1014
 Frc consts  --      5.9986                 6.1343                 6.1865
 IR Inten    --     24.9478                42.4906                46.4319

                     97                     98                     99
                      A                      A                      A
 Frequencies --   3100.2533              3114.4975              3123.4186
 Red. masses --      1.0984                 1.1009                 1.1017
 Frc consts  --      6.2200                 6.2920                 6.3324
 IR Inten    --     22.6706                25.1519                29.5461

                    100                    101                    102
                      A                      A                      A
 Frequencies --   3423.5178              3505.5722              3814.4297
 Red. masses --      1.0474                 1.0955                 1.0661
 Frc consts  --      7.2329                 7.9320                 9.1392
 IR Inten    --      2.2162                 0.0119                15.9782

 - Thermochemistry -
 -------------------
 Temperature   298.150 Kelvin.  Pressure   1.00000 Atm.
 Atom     1 has atomic number  6 and mass  12.00000

 Molecular mass:   219.14706 amu.
 Principal axes and moments of inertia in atomic units:
                           1         2         3
     Eigenvalues --  1440.43339********************
           X            1.00000  -0.00036  -0.00029
           Y            0.00036   1.00000  -0.00067
           Z            0.00029   0.00067   1.00000
 This molecule is an asymmetric top.
 Rotational symmetry number  1.
 Warning -- assumption of classical behavior for rotation
           may cause significant error
 Rotational temperatures (Kelvin)      0.06013     0.00656     0.00602
 Rotational constants (GHZ):           1.25292     0.13675     0.12536
 Zero-point vibrational energy     821648.3 (Joules/Mol)
                                  196.37865 (Kcal/Mol)
 Warning -- explicit consideration of  27 degrees of freedom as
           vibrations may cause significant error
 Vibrational temperatures:     25.14    31.10    37.66    56.89    91.26
          (Kelvin)             99.96   107.74   127.26   163.38   169.69
                              177.47   188.20   230.37   244.39   276.23
                              327.19   371.61   410.90   444.96   460.38
                              470.10   615.25   618.54   679.72   724.57
                              764.42   793.94   972.53  1037.71  1109.75
                             1151.31  1213.55  1263.24  1270.55  1334.69
                             1336.52  1359.09  1440.75  1471.66  1472.89
                             1496.80  1534.64  1545.42  1550.86  1582.87
                             1598.95  1622.30  1636.29  1651.08  1674.66
                             1732.00  1744.76  1769.61  1788.73  1836.32
                             1843.74  1850.72  1871.62  1885.77  1892.11
                             1905.29  1913.49  1964.64  1983.07  2005.48
                             2009.79  2026.54  2034.18  2053.52  2074.16
                             2087.40  2102.55  2137.43  2139.03  2148.68
                             2162.02  2177.24  2190.08  2200.90  2379.46
                             2593.85  4225.38  4246.77  4269.94  4296.13
                             4314.53  4343.95  4351.99  4355.00  4376.63
                             4383.38  4385.40  4397.53  4402.20  4418.27
                             4442.34  4460.57  4481.07  4493.90  4925.68
                             5043.74  5488.11

 Zero-point correction=                           0.312949 (Hartree/Particle)
 Thermal correction to Energy=                    0.332430
 Thermal correction to Enthalpy=                  0.333374
 Thermal correction to Gibbs Free Energy=         0.260582
 Sum of electronic and zero-point Energies=           -749.018537
 Sum of electronic and thermal Energies=              -748.999057
 Sum of electronic and thermal Enthalpies=            -748.998112
 Sum of electronic and thermal Free Energies=         -749.070904

                     E (Thermal)             CV                S
                      KCal/Mol        Cal/Mol-Kelvin    Cal/Mol-Kelvin
 Total                  208.603             66.370            153.204
 Electronic               0.000              0.000              0.000
 Translational            0.889              2.981             42.057
 Rotational               0.889              2.981             33.970
 Vibrational            206.825             60.408             77.177
 Vibration     1          0.593              1.986              6.903
 Vibration     2          0.593              1.985              6.480
 Vibration     3          0.593              1.985              6.100
 Vibration     4          0.594              1.981              5.282
 Vibration     5          0.597              1.972              4.348
 Vibration     6          0.598              1.969              4.168
 Vibration     7          0.599              1.966              4.021
 Vibration     8          0.601              1.957              3.694
 Vibration     9          0.607              1.938              3.207
 Vibration    10          0.608              1.934              3.134
 Vibration    11          0.610              1.930              3.047
 Vibration    12          0.612              1.923              2.934
 Vibration    13          0.622              1.891              2.548
 Vibration    14          0.625              1.880              2.437
 Vibration    15          0.634              1.851              2.209
 Vibration    16          0.651              1.799              1.899
 Vibration    17          0.667              1.749              1.673
 Vibration    18          0.683              1.700              1.500
 Vibration    19          0.699              1.656              1.366
 Vibration    20          0.706              1.635              1.310
 Vibration    21          0.710              1.622              1.276
 Vibration    22          0.789              1.410              0.866
 Vibration    23          0.791              1.405              0.859
 Vibration    24          0.829              1.311              0.731
 Vibration    25          0.859              1.242              0.649
 Vibration    26          0.886              1.181              0.584
 Vibration    27          0.907              1.136              0.540

 Optimization completed.
    -- Stationary point found.
 Normal termination of Gaussian 16 at Mon May 22 02:47:11 2023.
