 Gaussian 16, Revision A.03,
 Gaussian 16:  ES64L-G16RevA.03 25-Dec-2016

 -----------------------------
 # opt freq b3lyp/6-31g(2df,p)
 -----------------------------

 -------------------
 Title Card Required
 -------------------
 Symbolic Z-matrix:
 Charge =  0 Multiplicity = 1

 SCF Done:  E(RB3LYP) =  -315.730354679     A.U. after   12 cycles
 SCF Done:  E(RB3LYP) =  -315.731548598     A.U. after   10 cycles
 SCF Done:  E(RB3LYP) =  -315.732709522     A.U. after   10 cycles
 SCF Done:  E(RB3LYP) =  -315.733605826     A.U. after   10 cycles
 SCF Done:  E(RB3LYP) =  -315.733762514     A.U. after    9 cycles
 SCF Done:  E(RB3LYP) =  -315.733775626     A.U. after    8 cycles
 SCF Done:  E(RB3LYP) =  -315.733778691     A.U. after    8 cycles
 SCF Done:  E(RB3LYP) =  -315.733784997     A.U. after    8 cycles
 SCF Done:  E(RB3LYP) =  -315.733769935     A.U. after    9 cycles
 SCF Done:  E(RB3LYP) =  -315.733774482     A.U. after    9 cycles
 SCF Done:  E(RB3LYP) =  -315.733824812     A.U. after    8 cycles
 SCF Done:  E(RB3LYP) =  -315.733835064     A.U. after    8 cycles
 SCF Done:  E(RB3LYP) =  -315.733833535     A.U. after    8 cycles
 SCF Done:  E(RB3LYP) =  -315.731119083     A.U. after   10 cycles
 SCF Done:  E(RB3LYP) =  -315.733402269     A.U. after   10 cycles
 SCF Done:  E(RB3LYP) =  -315.733835312     A.U. after    6 cycles
 SCF Done:  E(RB3LYP) =  -315.733830963     A.U. after    8 cycles
 SCF Done:  E(RB3LYP) =  -315.733838003     A.U. after    8 cycles
 SCF Done:  E(RB3LYP) =  -315.733838496     A.U. after    6 cycles
 Optimization completed.
    -- Stationary point found.
 Normal termination of Gaussian 16 at Mon May 29 02:14:01 2023.

 ----------------------------------------------------------------------
 #N Geom=AllCheck Guess=TCheck SCRF=Check GenChk RB3LYP/6-31G(2df,p) Fr
 eq
 ----------------------------------------------------------------------

 Structure from the checkpoint file:  "CCqCrCCqCrqCrC.chk"
 -------------------
 Title Card Required
 -------------------
 Charge =  0 Multiplicity = 1

                         Standard orientation:
 ---------------------------------------------------------------------
 Center     Atomic      Atomic             Coordinates (Angstroms)
 Number     Number       Type             X           Y           Z
 ---------------------------------------------------------------------
      1          6           0        2.674266   -0.997682   -0.100646
      2          6           0        1.492879   -0.089346    0.279794
      3          6           0        1.825495    1.367086   -0.077617
      4          6           0        0.206257   -0.642619   -0.372070
      5          6           0       -1.187921   -0.055607   -0.006664
      6          6           0       -1.326520    0.156366    1.511540
      7          6           0       -1.477671    1.266131   -0.745352
      8          6           0       -2.245169   -1.084569   -0.459461
      9          1           0        3.597441   -0.671297    0.389680
     10          1           0        2.850298   -0.979212   -1.183180
     11          1           0        2.490304   -2.038168    0.186889
     12          1           0        1.375872   -0.149405    1.369992
     13          1           0        1.839870    1.514324   -1.164167
     14          1           0        2.815710    1.638178    0.304786
     15          1           0        1.110562    2.076215    0.346066
     16          1           0        0.173648   -1.712883   -0.126917
     17          1           0        0.322211   -0.596419   -1.464967
     18          1           0       -0.649978    0.933689    1.880086
     19          1           0       -1.110132   -0.765385    2.063561
     20          1           0       -2.347365    0.462403    1.766068
     21          1           0       -0.805680    2.072466   -0.444988
     22          1           0       -2.501321    1.600502   -0.541473
     23          1           0       -1.382125    1.138344   -1.829441
     24          1           0       -2.135201   -2.031398    0.080541
     25          1           0       -2.154310   -1.298915   -1.530370
     26          1           0       -3.259498   -0.711602   -0.279307
 ---------------------------------------------------------------------

 SCF Done:  E(RB3LYP) =  -315.733838496     A.U. after    1 cycles

 The electronic state is 1-A.
 Alpha  occ. eigenvalues --  -10.18951 -10.18165 -10.16963 -10.16721 -10.16702
 Alpha  occ. eigenvalues --  -10.16653 -10.16545 -10.16450  -0.82133  -0.77952
 Alpha  occ. eigenvalues --   -0.68310  -0.67868  -0.67172  -0.66770  -0.56345
 Alpha  occ. eigenvalues --   -0.52240  -0.46375  -0.44636  -0.44213  -0.42708
 Alpha  occ. eigenvalues --   -0.40832  -0.39487  -0.38509  -0.37982  -0.37288
 Alpha  occ. eigenvalues --   -0.35799  -0.35481  -0.34458  -0.32719  -0.32311
 Alpha  occ. eigenvalues --   -0.30835  -0.30283  -0.29361
 Alpha virt. eigenvalues --    0.07066   0.10807   0.11924   0.12504   0.13396
 Alpha virt. eigenvalues --    0.13974   0.15360   0.15524   0.16371   0.16575
 Alpha virt. eigenvalues --    0.18008   0.18711   0.19178   0.19837   0.20330

 Mulliken charges:
               1
     1  C   -0.383705
     2  C    0.026184
     3  C   -0.382159
     4  C   -0.179479
     5  C    0.261157
     6  C   -0.402941
     7  C   -0.403402
     8  C   -0.394329
     9  H    0.106188
    10  H    0.110242
    11  H    0.107594
    12  H    0.073476
    13  H    0.109453
    14  H    0.105768
    15  H    0.116201
    16  H    0.084162
    17  H    0.082876
    18  H    0.111947
    19  H    0.106581
    20  H    0.104984
    21  H    0.112279
    22  H    0.104523
    23  H    0.105931
    24  H    0.105758
    25  H    0.106513
    26  H    0.104198
 Sum of Mulliken charges =  -0.00000

 Dipole moment (field-independent basis, Debye):
    X=              0.0202    Y=             -0.0174    Z=              0.0857  Tot=              0.0897
 Quadrupole moment (field-independent basis, Debye-Ang):
   XX=            -55.2971   YY=            -55.2857   ZZ=            -54.7134
   XY=              0.0168   XZ=              0.0709   YZ=             -0.0329

  Exact polarizability:  99.144  -0.040  85.271   0.438  -0.254  80.851
 Approx polarizability: 124.552  -0.212 121.060   0.232  -0.247 121.265

                      1                      2                      3
                      A                      A                      A
 Frequencies --     44.4372               111.3467               183.1253
 Red. masses --      2.4885                 2.0544                 2.4423
 Frc consts  --      0.0029                 0.0150                 0.0483
 IR Inten    --      0.0259                 0.0215                 0.0202

                      4                      5                      6
                      A                      A                      A
 Frequencies --    207.2939               235.4420               254.5014
 Red. masses --      1.0551                 1.0814                 1.3768
 Frc consts  --      0.0267                 0.0353                 0.0525
 IR Inten    --      0.1529                 0.0052                 0.0391

                      7                      8                      9
                      A                      A                      A
 Frequencies --    259.0071               281.5611               289.3489
 Red. masses --      1.0860                 1.1462                 1.8474
 Frc consts  --      0.0429                 0.0535                 0.0911
 IR Inten    --      0.0760                 0.0029                 0.0210

                     10                     11                     12
                      A                      A                      A
 Frequencies --    319.6270               344.7276               369.1195
 Red. masses --      1.9661                 2.0999                 2.1541
 Frc consts  --      0.1183                 0.1470                 0.1729
 IR Inten    --      0.0276                 0.0326                 0.0361

                     13                     14                     15
                      A                      A                      A
 Frequencies --    411.4759               415.2599               449.3463
 Red. masses --      1.8208                 2.2079                 1.9962
 Frc consts  --      0.1816                 0.2243                 0.2375
 IR Inten    --      0.0035                 0.1035                 0.2801

                     16                     17                     18
                      A                      A                      A
 Frequencies --    515.3242               744.0884               817.1625
 Red. masses --      2.3790                 3.2771                 2.6928
 Frc consts  --      0.3722                 1.0690                 1.0594
 IR Inten    --      0.0633                 0.1469                 0.6164

                     19                     20                     21
                      A                      A                      A
 Frequencies --    868.7005               904.5929               926.5292
 Red. masses --      1.5170                 2.2047                 1.3535
 Frc consts  --      0.6745                 1.0629                 0.6846
 IR Inten    --      0.5443                 0.2984                 1.2181

                     22                     23                     24
                      A                      A                      A
 Frequencies --    935.6424               936.5757               956.2656
 Red. masses --      1.4840                 1.6482                 1.2335
 Frc consts  --      0.7654                 0.8518                 0.6646
 IR Inten    --      0.4728                 0.3988                 0.1768

                     25                     26                     27
                      A                      A                      A
 Frequencies --    964.4170               991.1032              1030.5452
 Red. masses --      1.5193                 1.7407                 1.3799
 Frc consts  --      0.8326                 1.0074                 0.8634
 IR Inten    --      0.3236                 2.9877                 0.0308

                     28                     29                     30
                      A                      A                      A
 Frequencies --   1043.6148              1119.8524              1133.5983
 Red. masses --      1.4407                 1.6481                 1.8846
 Frc consts  --      0.9245                 1.2178                 1.4269
 IR Inten    --      0.0596                 0.7231                 0.3561

                     31                     32                     33
                      A                      A                      A
 Frequencies --   1189.6624              1228.0557              1233.3566
 Red. masses --      1.7885                 2.1401                 2.2056
 Frc consts  --      1.4914                 1.9016                 1.9767
 IR Inten    --      3.9293                 3.8715                 5.7713

                     34                     35                     36
                      A                      A                      A
 Frequencies --   1268.5806              1311.0843              1336.3949
 Red. masses --      2.7921                 1.6064                 1.2685
 Frc consts  --      2.6473                 1.6269                 1.3347
 IR Inten    --      7.2564                 3.1763                 2.5446

                     37                     38                     39
                      A                      A                      A
 Frequencies --   1380.7716              1382.7332              1396.8099
 Red. masses --      1.2818                 1.4119                 1.2536
 Frc consts  --      1.4398                 1.5905                 1.4410
 IR Inten    --      1.8282                 1.8799                 0.7511

                     40                     41                     42
                      A                      A                      A
 Frequencies --   1400.4353              1401.7228              1422.5410
 Red. masses --      1.2517                 1.2441                 1.2251
 Frc consts  --      1.4464                 1.4402                 1.4607
 IR Inten    --      5.0480                 7.7218                 2.0478

                     43                     44                     45
                      A                      A                      A
 Frequencies --   1432.8474              1473.1341              1479.6198
 Red. masses --      1.2332                 1.0815                 1.0510
 Frc consts  --      1.4917                 1.3828                 1.3556
 IR Inten    --      3.9415                 0.1476                 0.8929

                     46                     47                     48
                      A                      A                      A
 Frequencies --   1482.8316              1486.5983              1491.2666
 Red. masses --      1.0484                 1.0458                 1.0437
 Frc consts  --      1.3582                 1.3617                 1.3676
 IR Inten    --      0.4171                 0.1833                 2.1275

                     49                     50                     51
                      A                      A                      A
 Frequencies --   1493.4067              1502.9774              1505.1202
 Red. masses --      1.0546                 1.0553                 1.0563
 Frc consts  --      1.3858                 1.4045                 1.4099
 IR Inten    --      0.7732                 4.0578                 3.2205

                     52                     53                     54
                      A                      A                      A
 Frequencies --   1509.7295              1516.0955              1520.6730
 Red. masses --      1.0614                 1.0567                 1.0537
 Frc consts  --      1.4254                 1.4311                 1.4356
 IR Inten    --      2.8581                 8.7562                10.4834

                     55                     56                     57
                      A                      A                      A
 Frequencies --   2993.9202              3011.8652              3019.6165
 Red. masses --      1.0598                 1.0802                 1.0351
 Frc consts  --      5.5968                 5.7732                 5.5607
 IR Inten    --     20.5864                 4.4954                26.8883

                     58                     59                     60
                      A                      A                      A
 Frequencies --   3021.5954              3024.1684              3028.6228
 Red. masses --      1.0363                 1.0372                 1.0403
 Frc consts  --      5.5743                 5.5888                 5.6224
 IR Inten    --     37.9803                20.9497                23.9997

                     61                     62                     63
                      A                      A                      A
 Frequencies --   3033.1643              3034.8326              3084.4576
 Red. masses --      1.0408                 1.0959                 1.1011
 Frc consts  --      5.6419                 5.9468                 6.1720
 IR Inten    --     19.8102                37.9337                 5.7074

                     64                     65                     66
                      A                      A                      A
 Frequencies --   3085.2835              3086.5458              3090.0492
 Red. masses --      1.1011                 1.1015                 1.1009
 Frc consts  --      6.1756                 6.1829                 6.1936
 IR Inten    --      0.2794                 2.1263                 7.7506

                     67                     68                     69
                      A                      A                      A
 Frequencies --   3091.9002              3093.9855              3097.3116
 Red. masses --      1.1003                 1.1006                 1.1014
 Frc consts  --      6.1977                 6.2074                 6.2252
 IR Inten    --    103.1302                76.8565                31.1814

                     70                     71                     72
                      A                      A                      A
 Frequencies --   3099.1782              3111.7748              3130.4159
 Red. masses --      1.1002                 1.0989                 1.0949
 Frc consts  --      6.2261                 6.2694                 6.3215
 IR Inten    --     47.3658                42.3270                28.1943

 - Thermochemistry -
 -------------------
 Temperature   298.150 Kelvin.  Pressure   1.00000 Atm.
 Atom     1 has atomic number  6 and mass  12.00000

 Molecular mass:   114.14085 amu.
 Principal axes and moments of inertia in atomic units:
                           1         2         3
     Eigenvalues --   612.979081499.961481656.04316
           X            1.00000   0.00038  -0.00134
           Y           -0.00038   1.00000   0.00002
           Z            0.00134  -0.00002   1.00000
 This molecule is an asymmetric top.
 Rotational symmetry number  1.
 Warning -- assumption of classical behavior for rotation
           may cause significant error
 Rotational temperatures (Kelvin)      0.14130     0.05774     0.05230
 Rotational constants (GHZ):           2.94421     1.20319     1.08979
 Zero-point vibrational energy     640293.8 (Joules/Mol)
                                  153.03390 (Kcal/Mol)
 Warning -- explicit consideration of  16 degrees of freedom as
           vibrations may cause significant error
 Vibrational temperatures:     63.94   160.20   263.48   298.25   338.75
          (Kelvin)            366.17   372.65   405.10   416.31   459.87
                              495.99   531.08   592.02   597.47   646.51
                              741.44  1070.58  1175.71  1249.87  1301.51
                             1333.07  1346.18  1347.52  1375.85  1387.58
                             1425.98  1482.72  1501.53  1611.22  1631.00
                             1711.66  1766.90  1774.53  1825.20  1886.36
                             1922.77  1986.62  1989.44  2009.70  2014.91
                             2016.77  2046.72  2061.55  2119.51  2128.84
                             2133.46  2138.88  2145.60  2148.68  2162.45
                             2165.53  2172.16  2181.32  2187.91  4307.58
                             4333.40  4344.55  4347.40  4351.10  4357.51
                             4364.05  4366.45  4437.85  4439.03  4440.85
                             4445.89  4448.55  4451.56  4456.34  4459.03
                             4477.15  4503.97

 Zero-point correction=                           0.243875 (Hartree/Particle)
 Thermal correction to Energy=                    0.254764
 Thermal correction to Enthalpy=                  0.255708
 Thermal correction to Gibbs Free Energy=         0.208774
 Sum of electronic and zero-point Energies=           -315.489963
 Sum of electronic and thermal Energies=              -315.479075
 Sum of electronic and thermal Enthalpies=            -315.478131
 Sum of electronic and thermal Free Energies=         -315.525065

                     E (Thermal)             CV                S
                      KCal/Mol        Cal/Mol-Kelvin    Cal/Mol-Kelvin
 Total                  159.867             41.281             98.781
 Electronic               0.000              0.000              0.000
 Translational            0.889              2.981             40.112
 Rotational               0.889              2.981             28.811
 Vibrational            158.089             35.319             29.857
 Vibration     1          0.595              1.980              5.051
 Vibration     2          0.607              1.940              3.245
 Vibration     3          0.631              1.863              2.296
 Vibration     4          0.641              1.829              2.067
 Vibration     5          0.655              1.787              1.837
 Vibration     6          0.665              1.755              1.699
 Vibration     7          0.668              1.748              1.668
 Vibration     8          0.681              1.708              1.524
 Vibration     9          0.686              1.694              1.478
 Vibration    10          0.706              1.636              1.312
 Vibration    11          0.723              1.586              1.190
 Vibration    12          0.741              1.536              1.083
 Vibration    13          0.775              1.445              0.921
 Vibration    14          0.779              1.437              0.908
 Vibration    15          0.808              1.362              0.798
 Vibration    16          0.870              1.216              0.621

                           ! Non-Optimized Parameters !
 Normal termination of Gaussian 16 at Mon May 29 02:52:02 2023.
