 Gaussian 16, Revision A.03,
 Gaussian 16:  ES64L-G16RevA.03 25-Dec-2016

 -----------------------------
 # opt freq b3lyp/6-31g(2df,p)
 -----------------------------

 -------------------
 Title Card Required
 -------------------
 Symbolic Z-matrix:
 Charge =  0 Multiplicity = 1

 SCF Done:  E(RB3LYP) =  -495.527843181     A.U. after   12 cycles
 SCF Done:  E(RB3LYP) =  -495.528436101     A.U. after   10 cycles
 SCF Done:  E(RB3LYP) =  -495.529129907     A.U. after   10 cycles
 SCF Done:  E(RB3LYP) =  -495.529370998     A.U. after   10 cycles
 SCF Done:  E(RB3LYP) =  -495.529413709     A.U. after    9 cycles
 SCF Done:  E(RB3LYP) =  -495.529418556     A.U. after    7 cycles
 SCF Done:  E(RB3LYP) =  -495.529419407     A.U. after    7 cycles
 SCF Done:  E(RB3LYP) =  -495.529419536     A.U. after    7 cycles
 SCF Done:  E(RB3LYP) =  -495.529419552     A.U. after    6 cycles
 Optimization completed.
    -- Stationary point found.
 Normal termination of Gaussian 16 at Sat May 27 20:22:13 2023.

 ----------------------------------------------------------------------
 #N Geom=AllCheck Guess=TCheck SCRF=Check GenChk RB3LYP/6-31G(2df,p) Fr
 eq
 ----------------------------------------------------------------------

 Structure from the checkpoint file:  "CCqCrCCqFrqFrF.chk"
 -------------------
 Title Card Required
 -------------------
 Charge =  0 Multiplicity = 1

                         Standard orientation:
 ---------------------------------------------------------------------
 Center     Atomic      Atomic             Coordinates (Angstroms)
 Number     Number       Type             X           Y           Z
 ---------------------------------------------------------------------
      1          6           0        2.622730   -0.940113   -0.035980
      2          6           0        1.395388   -0.070103    0.269160
      3          6           0        1.669149    1.398116   -0.088124
      4          6           0        0.164516   -0.646494   -0.456071
      5          6           0       -1.172501   -0.082627   -0.017933
      6          9           0       -1.336964   -0.164450    1.313954
      7          9           0       -1.332402    1.210037   -0.355665
      8          9           0       -2.184506   -0.760494   -0.586077
      9          1           0        3.503901   -0.567457    0.495251
     10          1           0        2.854237   -0.931757   -1.107785
     11          1           0        2.464287   -1.981259    0.263864
     12          1           0        1.195262   -0.131509    1.346085
     13          1           0        1.855984    1.508314   -1.163196
     14          1           0        2.557612    1.758119    0.440188
     15          1           0        0.832593    2.048249    0.172833
     16          1           0        0.103559   -1.726234   -0.284930
     17          1           0        0.241719   -0.494979   -1.538535
 ---------------------------------------------------------------------

 SCF Done:  E(RB3LYP) =  -495.529419552     A.U. after    1 cycles

 The electronic state is 1-A.
 Alpha  occ. eigenvalues --  -24.71345 -24.71323 -24.71123 -10.41205 -10.20370
 Alpha  occ. eigenvalues --  -10.20215 -10.18197 -10.17642  -1.29942  -1.21063
 Alpha  occ. eigenvalues --   -1.20964  -0.82613  -0.74822  -0.68924  -0.65907
 Alpha  occ. eigenvalues --   -0.59063  -0.57961  -0.56999  -0.53467  -0.47047
 Alpha  occ. eigenvalues --   -0.45459  -0.45141  -0.44463  -0.42925  -0.41461
 Alpha  occ. eigenvalues --   -0.40398  -0.39419  -0.39043  -0.38556  -0.36993
 Alpha  occ. eigenvalues --   -0.34137  -0.33513  -0.33346
 Alpha virt. eigenvalues --    0.07823   0.11499   0.12446   0.14259   0.14500
 Alpha virt. eigenvalues --    0.14709   0.15933   0.17635   0.18529   0.18619
 Alpha virt. eigenvalues --    0.20623   0.22627   0.23866   0.24051   0.26264

 Mulliken charges:
               1
     1  C   -0.395852
     2  C    0.030554
     3  C   -0.391178
     4  C   -0.327791
     5  C    0.282184
     6  F   -0.084871
     7  F   -0.080994
     8  F   -0.079523
     9  H    0.117396
    10  H    0.115854
    11  H    0.113767
    12  H    0.093162
    13  H    0.112574
    14  H    0.112898
    15  H    0.131024
    16  H    0.125852
    17  H    0.124945
 Sum of Mulliken charges =  -0.00000

 Dipole moment (field-independent basis, Debye):
    X=              1.9221    Y=             -0.6061    Z=             -0.3896  Tot=              2.0527
 Quadrupole moment (field-independent basis, Debye-Ang):
   XX=            -49.0899   YY=            -46.9431   ZZ=            -46.8558
   XY=             -0.0914   XZ=              0.1799   YZ=              0.2717

  Exact polarizability:  62.933   0.479  57.157   0.874   0.158  51.958
 Approx polarizability:  78.136   1.518  78.889   1.184  -0.382  78.952

                      1                      2                      3
                      A                      A                      A
 Frequencies --     38.8953               109.0631               171.9217
 Red. masses --      3.7100                 3.2386                 4.5602
 Frc consts  --      0.0033                 0.0227                 0.0794
 IR Inten    --      0.0838                 0.4600                 1.3369

                      4                      5                      6
                      A                      A                      A
 Frequencies --    230.4275               248.7855               299.9153
 Red. masses --      1.0951                 1.1797                 4.2738
 Frc consts  --      0.0343                 0.0430                 0.2265
 IR Inten    --      0.3297                 0.0434                 0.2069

                      7                      8                      9
                      A                      A                      A
 Frequencies --    319.6996               367.2441               420.7114
 Red. masses --      2.6944                 3.3018                 2.1765
 Frc consts  --      0.1623                 0.2624                 0.2270
 IR Inten    --      1.5939                 0.5564                 0.7702

                     10                     11                     12
                      A                      A                      A
 Frequencies --    436.5900               538.4815               550.1572
 Red. masses --      2.6178                 7.8903                 8.0581
 Frc consts  --      0.2940                 1.3480                 1.4370
 IR Inten    --      1.5436                 0.6394                 2.5621

                     13                     14                     15
                      A                      A                      A
 Frequencies --    664.1599               826.1910               851.5746
 Red. masses --      7.0549                 3.4173                 3.9586
 Frc consts  --      1.8335                 1.3744                 1.6914
 IR Inten    --     14.0562                 3.9382                 1.9302

                     16                     17                     18
                      A                      A                      A
 Frequencies --    891.9197               936.1320               969.6099
 Red. masses --      1.6093                 1.1812                 1.9225
 Frc consts  --      0.7543                 0.6099                 1.0649
 IR Inten    --      5.9043                 2.6709                 5.4872

                     19                     20                     21
                      A                      A                      A
 Frequencies --    971.6320              1062.7521              1116.6211
 Red. masses --      1.5215                 1.9161                 2.7561
 Frc consts  --      0.8463                 1.2751                 2.0247
 IR Inten    --      1.3208                67.3802                66.9892

                     22                     23                     24
                      A                      A                      A
 Frequencies --   1189.4256              1197.0358              1210.2824
 Red. masses --      2.2065                 2.6268                 2.4174
 Frc consts  --      1.8392                 2.2176                 2.0863
 IR Inten    --     91.7271                80.7456                51.4854

                     25                     26                     27
                      A                      A                      A
 Frequencies --   1271.8630              1303.5455              1339.0370
 Red. masses --      3.4281                 1.8158                 1.4893
 Frc consts  --      3.2673                 1.8179                 1.5733
 IR Inten    --    147.1972                80.0843                35.1648

                     28                     29                     30
                      A                      A                      A
 Frequencies --   1375.4084              1398.8638              1404.9312
 Red. masses --      1.3889                 1.6509                 1.2574
 Frc consts  --      1.5481                 1.9034                 1.4623
 IR Inten    --      6.9024                47.3649                 3.0737

                     31                     32                     33
                      A                      A                      A
 Frequencies --   1428.3628              1471.6695              1489.6089
 Red. masses --      1.2485                 1.1109                 1.0454
 Frc consts  --      1.5007                 1.4175                 1.3667
 IR Inten    --      1.6504                 7.2534                 0.6319

                     34                     35                     36
                      A                      A                      A
 Frequencies --   1495.3852              1506.6793              1513.0326
 Red. masses --      1.0533                 1.0552                 1.0516
 Frc consts  --      1.3877                 1.4113                 1.4184
 IR Inten    --      2.4511                 3.7321                10.0487

                     37                     38                     39
                      A                      A                      A
 Frequencies --   3025.9478              3028.7424              3035.3314
 Red. masses --      1.0374                 1.0691                 1.0512
 Frc consts  --      5.5964                 5.7783                 5.7063
 IR Inten    --     19.4410                 3.6266                25.2527

                     40                     41                     42
                      A                      A                      A
 Frequencies --   3050.7514              3091.0339              3093.5031
 Red. masses --      1.0603                 1.1007                 1.1014
 Frc consts  --      5.8141                 6.1964                 6.2100
 IR Inten    --     12.2254                 6.9091                 8.0011

                     43                     44                     45
                      A                      A                      A
 Frequencies --   3100.2687              3105.1648              3137.5368
 Red. masses --      1.1010                 1.1011                 1.0979
 Frc consts  --      6.2347                 6.2552                 6.3679
 IR Inten    --     52.6697                38.3519                15.0661

 - Thermochemistry -
 -------------------
 Temperature   298.150 Kelvin.  Pressure   1.00000 Atm.
 Atom     1 has atomic number  6 and mass  12.00000

 Molecular mass:   126.06564 amu.
 Principal axes and moments of inertia in atomic units:
                           1         2         3
     Eigenvalues --   532.812031438.493751595.62816
           X            0.99998  -0.00536  -0.00255
           Y            0.00541   0.99978   0.02018
           Z            0.00244  -0.02019   0.99979
 This molecule is an asymmetric top.
 Rotational symmetry number  1.
 Warning -- assumption of classical behavior for rotation
           may cause significant error
 Rotational temperatures (Kelvin)      0.16256     0.06021     0.05428
 Rotational constants (GHZ):           3.38720     1.25460     1.13105
 Zero-point vibrational energy     360589.7 (Joules/Mol)
                                   86.18301 (Kcal/Mol)
 Warning -- explicit consideration of  12 degrees of freedom as
           vibrations may cause significant error
 Vibrational temperatures:     55.96   156.92   247.36   331.53   357.95
          (Kelvin)            431.51   459.98   528.38   605.31   628.16
                              774.75   791.55   955.58  1188.70  1225.23
                             1283.27  1346.89  1395.05  1397.96  1529.06
                             1606.57  1711.32  1722.27  1741.33  1829.93
                             1875.51  1926.58  1978.91  2012.65  2021.38
                             2055.10  2117.40  2143.22  2151.53  2167.78
                             2176.92  4353.66  4357.68  4367.16  4389.35
                             4447.31  4450.86  4460.60  4467.64  4514.22

 Zero-point correction=                           0.137341 (Hartree/Particle)
 Thermal correction to Energy=                    0.146109
 Thermal correction to Enthalpy=                  0.147053
 Thermal correction to Gibbs Free Energy=         0.103369
 Sum of electronic and zero-point Energies=           -495.392078
 Sum of electronic and thermal Energies=              -495.383310
 Sum of electronic and thermal Enthalpies=            -495.382366
 Sum of electronic and thermal Free Energies=         -495.426051

                     E (Thermal)             CV                S
                      KCal/Mol        Cal/Mol-Kelvin    Cal/Mol-Kelvin
 Total                   91.685             31.592             91.942
 Electronic               0.000              0.000              0.000
 Translational            0.889              2.981             40.408
 Rotational               0.889              2.981             28.594
 Vibrational             89.907             25.630             22.940
 Vibration     1          0.594              1.981              5.315
 Vibration     2          0.606              1.942              3.286
 Vibration     3          0.626              1.877              2.414
 Vibration     4          0.652              1.795              1.876
 Vibration     5          0.662              1.765              1.739
 Vibration     6          0.692              1.674              1.417
 Vibration     7          0.706              1.636              1.312
 Vibration     8          0.740              1.540              1.091
 Vibration     9          0.783              1.425              0.890
 Vibration    10          0.797              1.390              0.837
 Vibration    11          0.894              1.165              0.569
 Vibration    12          0.905              1.139              0.544

 Optimization completed.
    -- Stationary point found.
 Normal termination of Gaussian 16 at Sat May 27 20:44:40 2023.
