 Gaussian 16, Revision A.03,
 Gaussian 16:  ES64L-G16RevA.03 25-Dec-2016

 -----------------------------
 # opt freq b3lyp/6-31g(2df,p)
 -----------------------------

 -------------------
 Title Card Required
 -------------------
 Symbolic Z-matrix:
 Charge =  0 Multiplicity = 1

 SCF Done:  E(RB3LYP) =  -315.737228043     A.U. after   12 cycles
 SCF Done:  E(RB3LYP) =  -315.738482766     A.U. after    9 cycles
 SCF Done:  E(RB3LYP) =  -315.738723418     A.U. after    8 cycles
 SCF Done:  E(RB3LYP) =  -315.738747475     A.U. after    8 cycles
 SCF Done:  E(RB3LYP) =  -315.738751211     A.U. after    6 cycles
 SCF Done:  E(RB3LYP) =  -315.738752103     A.U. after    6 cycles
 SCF Done:  E(RB3LYP) =  -315.738752218     A.U. after    5 cycles
 Optimization completed.
    -- Stationary point found.
 Normal termination of Gaussian 16 at Sun May 28 04:21:58 2023.

 ----------------------------------------------------------------------
 #N Geom=AllCheck Guess=TCheck SCRF=Check GenChk RB3LYP/6-31G(2df,p) Fr
 eq
 ----------------------------------------------------------------------

 Structure from the checkpoint file:  "CCqCrCCCqCrC.chk"
 -------------------
 Title Card Required
 -------------------
 Charge =  0 Multiplicity = 1

                         Standard orientation:
 ---------------------------------------------------------------------
 Center     Atomic      Atomic             Coordinates (Angstroms)
 Number     Number       Type             X           Y           Z
 ---------------------------------------------------------------------
      1          6           0        3.040036   -1.024077   -0.040236
      2          6           0        1.961869    0.001762    0.336069
      3          6           0        2.387438    1.409880   -0.104200
      4          6           0        0.596404   -0.415662   -0.244239
      5          6           0       -0.596404    0.415662    0.244239
      6          6           0       -1.961869   -0.001762   -0.336069
      7          6           0       -2.387438   -1.409880    0.104200
      8          6           0       -3.040036    1.024077    0.040236
      9          1           0        4.009669   -0.761253    0.395860
     10          1           0        3.169633   -1.073876   -1.128302
     11          1           0        2.775900   -2.028233    0.308188
     12          1           0        1.869780    0.004429    1.432376
     13          1           0        2.469000    1.467625   -1.196705
     14          1           0        3.365513    1.670830    0.313806
     15          1           0        1.677749    2.177138    0.217962
     16          1           0        0.430307   -1.470891    0.004614
     17          1           0        0.647548   -0.368184   -1.342338
     18          1           0       -0.430307    1.470891   -0.004614
     19          1           0       -0.647548    0.368184    1.342338
     20          1           0       -1.869780   -0.004429   -1.432376
     21          1           0       -2.469000   -1.467625    1.196706
     22          1           0       -1.677749   -2.177138   -0.217962
     23          1           0       -3.365513   -1.670830   -0.313806
     24          1           0       -3.169633    1.073876    1.128302
     25          1           0       -4.009669    0.761253   -0.395860
     26          1           0       -2.775900    2.028233   -0.308188
 ---------------------------------------------------------------------

 SCF Done:  E(RB3LYP) =  -315.738752218     A.U. after    1 cycles

 The electronic state is 1-A.
 Alpha  occ. eigenvalues --  -10.18129 -10.18129 -10.17051 -10.17029 -10.16681
 Alpha  occ. eigenvalues --  -10.16681 -10.16676 -10.16676  -0.81288  -0.78574
 Alpha  occ. eigenvalues --   -0.71167  -0.67729  -0.67520  -0.62405  -0.55206
 Alpha  occ. eigenvalues --   -0.55108  -0.46493  -0.45294  -0.43789  -0.42373
 Alpha  occ. eigenvalues --   -0.41119  -0.40270  -0.38185  -0.37695  -0.37263
 Alpha  occ. eigenvalues --   -0.35499  -0.34459  -0.34046  -0.32873  -0.31620
 Alpha  occ. eigenvalues --   -0.31309  -0.30447  -0.29637
 Alpha virt. eigenvalues --    0.08262   0.09642   0.11627   0.12347   0.13999
 Alpha virt. eigenvalues --    0.15117   0.15204   0.15257   0.15678   0.16186
 Alpha virt. eigenvalues --    0.17551   0.18504   0.19270   0.19558   0.19694

 Mulliken charges:
               1
     1  C   -0.388253
     2  C    0.046096
     3  C   -0.380722
     4  C   -0.176098
     5  C   -0.176098
     6  C    0.046096
     7  C   -0.380722
     8  C   -0.388253
     9  H    0.106771
    10  H    0.109797
    11  H    0.107511
    12  H    0.068438
    13  H    0.108765
    14  H    0.107961
    15  H    0.113640
    16  H    0.090331
    17  H    0.085763
    18  H    0.090331
    19  H    0.085763
    20  H    0.068438
    21  H    0.108765
    22  H    0.113640
    23  H    0.107961
    24  H    0.109797
    25  H    0.106771
    26  H    0.107511
 Sum of Mulliken charges =  -0.00000

 Dipole moment (field-independent basis, Debye):
    X=             -0.0000    Y=             -0.0000    Z=             -0.0000  Tot=              0.0000
 Quadrupole moment (field-independent basis, Debye-Ang):
   XX=            -55.5420   YY=            -55.3428   ZZ=            -54.1788
   XY=              0.2243   XZ=              0.4214   YZ=             -0.1221

  Exact polarizability: 104.631  -0.399  86.664   0.116  -0.035  76.990
 Approx polarizability: 123.020   0.659 119.861   0.330  -0.169 120.733

                      1                      2                      3
                      A                      A                      A
 Frequencies --     30.9687                78.5729               121.8184
 Red. masses --      2.4059                 2.5375                 1.7524
 Frc consts  --      0.0014                 0.0092                 0.0153
 IR Inten    --      0.0039                 0.0394                 0.0000

                      4                      5                      6
                      A                      A                      A
 Frequencies --    129.1096               221.5897               225.7177
 Red. masses --      2.7226                 1.0405                 1.0872
 Frc consts  --      0.0267                 0.0301                 0.0326
 IR Inten    --      0.0120                 0.0385                 0.0000

                      7                      8                      9
                      A                      A                      A
 Frequencies --    244.4714               251.3149               260.2787
 Red. masses --      1.2570                 1.0956                 2.1509
 Frc consts  --      0.0443                 0.0408                 0.0859
 IR Inten    --      0.0000                 0.0086                 0.0000

                     10                     11                     12
                      A                      A                      A
 Frequencies --    304.1482               381.5618               408.9278
 Red. masses --      2.3076                 2.0665                 2.1466
 Frc consts  --      0.1258                 0.1773                 0.2115
 IR Inten    --      0.0000                 0.0089                 0.3212

                     13                     14                     15
                      A                      A                      A
 Frequencies --    410.8465               445.0742               486.5871
 Red. masses --      1.9725                 2.3665                 2.3036
 Frc consts  --      0.1962                 0.2762                 0.3213
 IR Inten    --      0.0000                 0.0000                 0.7893

                     16                     17                     18
                      A                      A                      A
 Frequencies --    756.2259               817.9729               840.3566
 Red. masses --      1.3194                 2.3249                 2.4621
 Frc consts  --      0.4445                 0.9165                 1.0245
 IR Inten    --      1.7963                 0.8074                 0.0000

                     19                     20                     21
                      A                      A                      A
 Frequencies --    915.4749               925.8309               926.8296
 Red. masses --      1.5007                 1.2021                 1.1801
 Frc consts  --      0.7410                 0.6071                 0.5973
 IR Inten    --      0.0000                 0.0000                 1.9632

                     22                     23                     24
                      A                      A                      A
 Frequencies --    956.2684               956.6245               966.7930
 Red. masses --      1.8979                 1.4367                 1.4807
 Frc consts  --      1.0225                 0.7747                 0.8154
 IR Inten    --      2.9261                 0.0000                 0.1190

                     25                     26                     27
                      A                      A                      A
 Frequencies --    972.6046              1057.2691              1057.6886
 Red. masses --      1.8999                 2.7295                 1.2699
 Frc consts  --      1.0589                 1.7976                 0.8370
 IR Inten    --      0.0000                 0.0000                 0.8107

                     28                     29                     30
                      A                      A                      A
 Frequencies --   1105.4899              1165.7685              1191.8609
 Red. masses --      2.0370                 2.1935                 1.7816
 Frc consts  --      1.4667                 1.7563                 1.4911
 IR Inten    --      1.8033                 0.0000                 0.0000

                     31                     32                     33
                      A                      A                      A
 Frequencies --   1193.6675              1203.0941              1248.8450
 Red. masses --      1.7824                 2.1391                 1.4795
 Frc consts  --      1.4963                 1.8242                 1.3595
 IR Inten    --      9.0660                 0.0000                 8.0211

                     34                     35                     36
                      A                      A                      A
 Frequencies --   1287.0466              1323.9969              1338.2562
 Red. masses --      1.2174                 1.1944                 1.2954
 Frc consts  --      1.1882                 1.2336                 1.3669
 IR Inten    --      1.1174                 0.0000                 0.0000

                     37                     38                     39
                      A                      A                      A
 Frequencies --   1363.5285              1371.3608              1377.4575
 Red. masses --      1.3928                 1.3402                 1.3873
 Frc consts  --      1.5257                 1.4850                 1.5509
 IR Inten    --      5.1409                 0.0000                 7.3248

                     40                     41                     42
                      A                      A                      A
 Frequencies --   1396.2897              1399.6728              1401.7921
 Red. masses --      1.4932                 1.2466                 1.2739
 Frc consts  --      1.7152                 1.4389                 1.4748
 IR Inten    --      0.0000                 0.0000                 8.8593

                     43                     44                     45
                      A                      A                      A
 Frequencies --   1421.0915              1422.6387              1474.8458
 Red. masses --      1.2303                 1.2540                 1.0766
 Frc consts  --      1.4638                 1.4954                 1.3798
 IR Inten    --      5.9238                 0.0000                 0.0000

                     46                     47                     48
                      A                      A                      A
 Frequencies --   1486.3735              1489.4545              1489.9985
 Red. masses --      1.0557                 1.0448                 1.0487
 Frc consts  --      1.3741                 1.3656                 1.3718
 IR Inten    --      0.4250                 0.0000                 3.1840

                     49                     50                     51
                      A                      A                      A
 Frequencies --   1496.5920              1499.7610              1504.8824
 Red. masses --      1.0578                 1.0835                 1.0539
 Frc consts  --      1.3960                 1.4359                 1.4062
 IR Inten    --      0.0000                 1.2922                 0.0000

                     52                     53                     54
                      A                      A                      A
 Frequencies --   1505.2213              1510.6375              1512.5138
 Red. masses --      1.0560                 1.0495                 1.0514
 Frc consts  --      1.4096                 1.4111                 1.4172
 IR Inten    --      5.0090                 0.0000                17.4676

                     55                     56                     57
                      A                      A                      A
 Frequencies --   2988.1587              2990.4515              2996.8942
 Red. masses --      1.0781                 1.0763                 1.0694
 Frc consts  --      5.6717                 5.6710                 5.6591
 IR Inten    --      9.3965                 0.0000                 0.0000

                     58                     59                     60
                      A                      A                      A
 Frequencies --   3007.6811              3020.8358              3020.8905
 Red. masses --      1.0658                 1.0358                 1.0363
 Frc consts  --      5.6807                 5.5691                 5.5720
 IR Inten    --     65.0649                 0.0000                60.0766

                     61                     62                     63
                      A                      A                      A
 Frequencies --   3026.4297              3026.5320              3037.9635
 Red. masses --      1.0409                 1.0377                 1.0902
 Frc consts  --      5.6171                 5.6004                 5.9281
 IR Inten    --      0.0000                49.2894                 0.0000

                     64                     65                     66
                      A                      A                      A
 Frequencies --   3060.0549              3084.7605              3084.7779
 Red. masses --      1.0999                 1.1002                 1.1002
 Frc consts  --      6.0682                 6.1681                 6.1683
 IR Inten    --     58.9543                12.1314                 0.0000

                     67                     68                     69
                      A                      A                      A
 Frequencies --   3090.7472              3091.2237              3095.8495
 Red. masses --      1.0999                 1.0998                 1.1013
 Frc consts  --      6.1903                 6.1916                 6.2190
 IR Inten    --      0.0000               132.1265                 0.0000

                     70                     71                     72
                      A                      A                      A
 Frequencies --   3096.1498              3105.7150              3105.9556
 Red. masses --      1.1013                 1.0995                 1.0995
 Frc consts  --      6.2201                 6.2482                 6.2496
 IR Inten    --     91.7099                 0.0000                73.0738

 - Thermochemistry -
 -------------------
 Temperature   298.150 Kelvin.  Pressure   1.00000 Atm.
 Atom     1 has atomic number  6 and mass  12.00000

 Molecular mass:   114.14085 amu.
 Principal axes and moments of inertia in atomic units:
                           1         2         3
     Eigenvalues --   469.316442125.571092463.05621
           X            1.00000  -0.00021  -0.00304
           Y            0.00021   1.00000   0.00046
           Z            0.00304  -0.00046   1.00000
 This molecule is an asymmetric top.
 Rotational symmetry number  1.
 Warning -- assumption of classical behavior for rotation
           may cause significant error
 Rotational temperatures (Kelvin)      0.18455     0.04075     0.03517
 Rotational constants (GHZ):           3.84547     0.84906     0.73272
 Zero-point vibrational energy     641582.0 (Joules/Mol)
                                  153.34178 (Kcal/Mol)
 Warning -- explicit consideration of  15 degrees of freedom as
           vibrations may cause significant error
 Vibrational temperatures:     44.56   113.05   175.27   185.76   318.82
          (Kelvin)            324.76   351.74   361.59   374.48   437.60
                              548.98   588.36   591.12   640.36   700.09
                             1088.04  1176.88  1209.09  1317.16  1332.06
                             1333.50  1375.86  1376.37  1391.00  1399.36
                             1521.17  1521.78  1590.55  1677.28  1714.82
                             1717.42  1730.98  1796.81  1851.77  1904.94
                             1925.45  1961.81  1973.08  1981.85  2008.95
                             2013.82  2016.87  2044.63  2046.86  2121.97
                             2138.56  2142.99  2143.78  2153.26  2157.82
                             2165.19  2165.68  2173.47  2176.17  4299.29
                             4302.59  4311.86  4327.38  4346.31  4346.39
                             4354.36  4354.50  4370.95  4402.74  4438.28
                             4438.31  4446.90  4447.58  4454.24  4454.67
                             4468.43  4468.78

 Zero-point correction=                           0.244366 (Hartree/Particle)
 Thermal correction to Energy=                    0.255431
 Thermal correction to Enthalpy=                  0.256375
 Thermal correction to Gibbs Free Energy=         0.207859
 Sum of electronic and zero-point Energies=           -315.494387
 Sum of electronic and thermal Energies=              -315.483322
 Sum of electronic and thermal Enthalpies=            -315.482377
 Sum of electronic and thermal Free Energies=         -315.530893

                     E (Thermal)             CV                S
                      KCal/Mol        Cal/Mol-Kelvin    Cal/Mol-Kelvin
 Total                  160.285             40.382            102.110
 Electronic               0.000              0.000              0.000
 Translational            0.889              2.981             40.112
 Rotational               0.889              2.981             29.287
 Vibrational            158.508             34.421             32.711
 Vibration     1          0.594              1.984              5.766
 Vibration     2          0.600              1.964              3.926
 Vibration     3          0.609              1.931              3.071
 Vibration     4          0.612              1.924              2.959
 Vibration     5          0.648              1.808              1.946
 Vibration     6          0.650              1.802              1.913
 Vibration     7          0.660              1.772              1.770
 Vibration     8          0.663              1.761              1.721
 Vibration     9          0.668              1.745              1.660
 Vibration    10          0.695              1.666              1.394
 Vibration    11          0.751              1.509              1.033
 Vibration    12          0.773              1.451              0.930
 Vibration    13          0.775              1.447              0.924
 Vibration    14          0.804              1.372              0.811
 Vibration    15          0.843              1.280              0.693

 Optimization completed.
    -- Stationary point found.
 Normal termination of Gaussian 16 at Sun May 28 04:52:32 2023.
