 Gaussian 16, Revision A.03,
 Gaussian 16:  ES64L-G16RevA.03 25-Dec-2016

 -----------------------------
 # opt freq b3lyp/6-31g(2df,p)
 -----------------------------

 -------------------
 Title Card Required
 -------------------
 Symbolic Z-matrix:
 Charge =  0 Multiplicity = 1

 SCF Done:  E(RB3LYP) =  -563.731812585     A.U. after   15 cycles
 SCF Done:  E(RB3LYP) =  -563.784750873     A.U. after   13 cycles
 SCF Done:  E(RB3LYP) =  -563.835614357     A.U. after   13 cycles
 SCF Done:  E(RB3LYP) =  -563.847523705     A.U. after   13 cycles
 SCF Done:  E(RB3LYP) =  -563.854882482     A.U. after   13 cycles
 SCF Done:  E(RB3LYP) =  -563.858012446     A.U. after   13 cycles
 SCF Done:  E(RB3LYP) =  -563.859340329     A.U. after   13 cycles
 SCF Done:  E(RB3LYP) =  -563.860414670     A.U. after   13 cycles
 SCF Done:  E(RB3LYP) =  -563.861218436     A.U. after   14 cycles
 SCF Done:  E(RB3LYP) =  -563.861724669     A.U. after   13 cycles
 SCF Done:  E(RB3LYP) =  -563.882304291     A.U. after    7 cycles
 SCF Done:  E(RB3LYP) =  -563.882304633     A.U. after    8 cycles
 SCF Done:  E(RB3LYP) =  -563.882304861     A.U. after    8 cycles
 SCF Done:  E(RB3LYP) =  -563.882305028     A.U. after    8 cycles
 SCF Done:  E(RB3LYP) =  -563.882305139     A.U. after    7 cycles
 SCF Done:  E(RB3LYP) =  -563.882305221     A.U. after    7 cycles
 SCF Done:  E(RB3LYP) =  -563.882305292     A.U. after    7 cycles
 SCF Done:  E(RB3LYP) =  -563.882305331     A.U. after    6 cycles
 SCF Done:  E(RB3LYP) =  -563.882305371     A.U. after    6 cycles
 Optimization completed on the basis of negligible forces.
    -- Stationary point found.
 Normal termination of Gaussian 16 at Tue May 23 02:15:55 2023.

 ----------------------------------------------------------------------
 #N Geom=AllCheck Guess=TCheck SCRF=Check GenChk RB3LYP/6-31G(2df,p) Fr
 eq
 ----------------------------------------------------------------------

 Structure from the checkpoint file:  "CCqCrCCC1dC2CCCCqC2rC1N.chk"
 -------------------
 Title Card Required
 -------------------
 Charge =  0 Multiplicity = 1

                         Standard orientation:
 ---------------------------------------------------------------------
 Center     Atomic      Atomic             Coordinates (Angstroms)
 Number     Number       Type             X           Y           Z
 ---------------------------------------------------------------------
      1          6           0        4.780884   -1.273047   -0.109504
      2          6           0        3.784412   -0.199293    0.350246
      3          6           0        4.409531    1.197742    0.241857
      4          6           0        2.471631   -0.323801   -0.446948
      5          6           0        1.331746    0.604811    0.054051
      6          6           0        0.146755    0.301149   -0.805919
      7          6           0       -0.996827   -0.285039   -0.194062
      8          6           0       -1.941976   -1.099948   -1.091410
      9          6           0       -3.261129   -1.467571   -0.373745
     10          6           0       -3.725507   -0.374580    0.619426
     11          6           0       -2.522632    0.388461    1.197962
     12          6           0       -1.295385   -0.547460    1.319155
     13          6           0       -1.801643    1.210039    0.098565
     14          7           0       -2.552748    1.897314   -0.880224
     15          1           0        5.707309   -1.229434    0.473001
     16          1           0        5.045947   -1.135058   -1.164642
     17          1           0        4.362817   -2.279448   -0.001231
     18          1           0        3.553851   -0.386055    1.409041
     19          1           0        4.630199    1.445922   -0.803518
     20          1           0        5.350389    1.248268    0.800165
     21          1           0        3.750749    1.976098    0.637527
     22          1           0        2.130432   -1.365574   -0.392101
     23          1           0        2.656772   -0.118038   -1.507546
     24          1           0        1.648854    1.641495   -0.116775
     25          1           0        1.227151    0.462765    1.144746
     26          1           0       -1.431253   -2.016072   -1.407539
     27          1           0       -2.113836   -0.528818   -2.010127
     28          1           0       -3.109247   -2.398011    0.182471
     29          1           0       -4.045932   -1.686865   -1.104746
     30          1           0       -4.289760   -0.835185    1.437419
     31          1           0       -4.415096    0.335311    0.147004
     32          1           0       -2.812592    0.976630    2.074090
     33          1           0       -1.491984   -1.578602    1.619504
     34          1           0       -0.527755   -0.131711    1.973808
     35          1           0       -1.076524    1.887646    0.549321
     36          1           0       -3.208464    1.303049   -1.372173
     37          1           0       -1.951954    2.341718   -1.564184
 ---------------------------------------------------------------------

 SCF Done:  E(RB3LYP) =  -563.882305371     A.U. after    1 cycles

 The electronic state is 1-A.
 Alpha  occ. eigenvalues --  -14.32619 -10.23553 -10.19404 -10.18868 -10.18331
 Alpha  occ. eigenvalues --  -10.18138 -10.18045 -10.17565 -10.17548 -10.17474
 Alpha  occ. eigenvalues --  -10.16814 -10.16631 -10.16593 -10.16228  -0.91327
 Alpha  occ. eigenvalues --   -0.84670  -0.80543  -0.76696  -0.74988  -0.72542
 Alpha  occ. eigenvalues --   -0.67575  -0.65639  -0.64207  -0.61207  -0.59522
 Alpha  occ. eigenvalues --   -0.54949  -0.53015  -0.52975  -0.49725  -0.48159
 Alpha  occ. eigenvalues --   -0.46024  -0.45005  -0.43705  -0.42776  -0.42047
 Alpha  occ. eigenvalues --   -0.41728  -0.39688  -0.39443  -0.38029  -0.37605
 Alpha  occ. eigenvalues --   -0.37381  -0.36599  -0.35405  -0.34976  -0.34161
 Alpha  occ. eigenvalues --   -0.32813  -0.31629  -0.31355  -0.31228  -0.30504
 Alpha  occ. eigenvalues --   -0.30360  -0.29323  -0.22983  -0.16750
 Alpha virt. eigenvalues --   -0.02783   0.06835   0.08956   0.09808   0.10327
 Alpha virt. eigenvalues --    0.11413   0.11605   0.13291   0.13678   0.14267
 Alpha virt. eigenvalues --    0.14880   0.15174   0.15523   0.15826   0.16250

 Mulliken charges:
               1
     1  C   -0.388607
     2  C    0.037366
     3  C   -0.378395
     4  C   -0.155613
     5  C   -0.225130
     6  C   -0.267889
     7  C    0.296112
     8  C   -0.253235
     9  C   -0.218705
    10  C   -0.222106
    11  C   -0.032901
    12  C   -0.307714
    13  C    0.052690
    14  N   -0.499525
    15  H    0.107121
    16  H    0.112228
    17  H    0.107906
    18  H    0.069376
    19  H    0.111824
    20  H    0.107258
    21  H    0.112931
    22  H    0.091569
    23  H    0.109776
    24  H    0.104302
    25  H    0.065405
    26  H    0.100887
    27  H    0.097611
    28  H    0.105855
    29  H    0.093850
    30  H    0.099259
    31  H    0.103160
    32  H    0.068388
    33  H    0.093862
    34  H    0.101024
    35  H    0.108887
    36  H    0.240133
    37  H    0.251040
 Sum of Mulliken charges =   0.00000

 Dipole moment (field-independent basis, Debye):
    X=             -1.0256    Y=             -0.4113    Z=              0.8845  Tot=              1.4154
 Quadrupole moment (field-independent basis, Debye-Ang):
   XX=            -85.8447   YY=            -88.9048   ZZ=            -89.4636
   XY=              2.0812   XZ=              2.5735   YZ=             -0.8538

  Exact polarizability: 195.351  -1.066 132.534  -1.993  -0.711 125.823
 Approx polarizability: 243.582  -9.438 206.811  -6.580  -1.648 202.693

                      1                      2                      3
                      A                      A                      A
 Frequencies --     13.1103                31.7779                56.4923
 Red. masses --      3.2363                 2.8424                 3.5644
 Frc consts  --      0.0003                 0.0017                 0.0067
 IR Inten    --      0.7173                 0.3043                 1.0417

                      4                      5                      6
                      A                      A                      A
 Frequencies --    103.6017               108.9902               151.5617
 Red. masses --      2.4061                 3.3261                 2.6450
 Frc consts  --      0.0152                 0.0233                 0.0358
 IR Inten    --      0.4007                 1.8168                 0.4422

                      7                      8                      9
                      A                      A                      A
 Frequencies --    203.6397               214.7246               225.5186
 Red. masses --      2.3596                 2.4998                 1.0971
 Frc consts  --      0.0577                 0.0679                 0.0329
 IR Inten    --      5.9671                 2.6332                 0.5830

                     10                     11                     12
                      A                      A                      A
 Frequencies --    249.1779               264.0026               287.2215
 Red. masses --      1.1277                 2.3033                 2.1961
 Frc consts  --      0.0413                 0.0946                 0.1067
 IR Inten    --      0.7026                 8.8768                 4.4767

                     13                     14                     15
                      A                      A                      A
 Frequencies --    316.1211               331.9492               361.9952
 Red. masses --      2.1154                 1.6603                 1.8640
 Frc consts  --      0.1245                 0.1078                 0.1439
 IR Inten    --     19.6846                31.6492                46.8257

                     16                     17                     18
                      A                      A                      A
 Frequencies --    386.7315               404.9920               432.9781
 Red. masses --      2.4416                 2.1386                 2.1238
 Frc consts  --      0.2152                 0.2067                 0.2346
 IR Inten    --      1.1657                 1.3313                 8.0677

                     19                     20                     21
                      A                      A                      A
 Frequencies --    476.1834               483.7942               527.8363
 Red. masses --      3.6498                 3.1469                 3.7679
 Frc consts  --      0.4876                 0.4340                 0.6185
 IR Inten    --      3.0709                 9.6224                29.2184

                     22                     23                     24
                      A                      A                      A
 Frequencies --    543.2463               553.2479               568.3129
 Red. masses --      2.9638                 3.4399                 3.7165
 Frc consts  --      0.5153                 0.6203                 0.7072
 IR Inten    --     27.8165                15.6508                95.7187

                     25                     26                     27
                      A                      A                      A
 Frequencies --    670.0965               741.1288               783.4472
 Red. masses --      2.4359                 2.0935                 1.4519
 Frc consts  --      0.6444                 0.6775                 0.5251
 IR Inten    --      1.6638                32.3232                30.2496

                     28                     29                     30
                      A                      A                      A
 Frequencies --    798.2778               810.6986               828.3325
 Red. masses --      1.7988                 2.1912                 2.0027
 Frc consts  --      0.6754                 0.8485                 0.8096
 IR Inten    --    179.2174               155.5760                 1.1021

                     31                     32                     33
                      A                      A                      A
 Frequencies --    835.2177               884.6048               890.2386
 Red. masses --      2.0091                 1.4559                 2.6548
 Frc consts  --      0.8258                 0.6713                 1.2396
 IR Inten    --      0.7372                 3.0234                 4.1040

                     34                     35                     36
                      A                      A                      A
 Frequencies --    924.1118               924.7476               931.3264
 Red. masses --      2.0044                 1.6579                 1.5856
 Frc consts  --      1.0085                 0.8353                 0.8103
 IR Inten    --      3.8599                 3.6460                 5.0634

                     37                     38                     39
                      A                      A                      A
 Frequencies --    947.5319               961.4938               978.7946
 Red. masses --      1.9126                 1.4379                 1.8484
 Frc consts  --      1.0117                 0.7832                 1.0434
 IR Inten    --      2.3671                 1.0093                 4.5287

                     40                     41                     42
                      A                      A                      A
 Frequencies --    998.8731              1007.1293              1028.8094
 Red. masses --      2.0724                 2.1983                 2.6811
 Frc consts  --      1.2183                 1.3137                 1.6720
 IR Inten    --      6.4490                18.2487                19.9084

                     43                     44                     45
                      A                      A                      A
 Frequencies --   1056.7281              1067.3391              1101.1548
 Red. masses --      1.6457                 1.8126                 1.7890
 Frc consts  --      1.0828                 1.2166                 1.2781
 IR Inten    --     18.3606                 3.1138                17.8253

                     46                     47                     48
                      A                      A                      A
 Frequencies --   1120.8058              1123.4064              1143.4091
 Red. masses --      1.5265                 1.5386                 1.5038
 Frc consts  --      1.1298                 1.1441                 1.1584
 IR Inten    --      4.9977                 4.2546                 4.9038

                     49                     50                     51
                      A                      A                      A
 Frequencies --   1157.3961              1183.4868              1188.5843
 Red. masses --      1.2377                 1.5799                 1.6881
 Frc consts  --      0.9768                 1.3038                 1.4051
 IR Inten    --     38.0105                12.5397                 6.6260

                     52                     53                     54
                      A                      A                      A
 Frequencies --   1201.8570              1211.9612              1232.4419
 Red. masses --      1.5127                 1.5294                 1.6003
 Frc consts  --      1.2874                 1.3235                 1.4321
 IR Inten    --      0.6917                 4.4248                 1.6447

                     55                     56                     57
                      A                      A                      A
 Frequencies --   1238.4521              1248.0021              1253.8549
 Red. masses --      1.6785                 1.4084                 1.4319
 Frc consts  --      1.5168                 1.2924                 1.3264
 IR Inten    --      8.8176                 2.2855                 1.4155

                     58                     59                     60
                      A                      A                      A
 Frequencies --   1262.3057              1288.6443              1303.9320
 Red. masses --      1.8023                 1.4609                 1.2021
 Frc consts  --      1.6920                 1.4293                 1.2042
 IR Inten    --     11.0107                14.4903                 0.5945

                     61                     62                     63
                      A                      A                      A
 Frequencies --   1325.7637              1334.8002              1343.0644
 Red. masses --      1.4292                 1.3624                 1.3538
 Frc consts  --      1.4801                 1.4302                 1.4388
 IR Inten    --      0.1631                 6.3851                 0.3525

                     64                     65                     66
                      A                      A                      A
 Frequencies --   1362.9112              1365.2993              1371.5512
 Red. masses --      1.4052                 1.4468                 1.3615
 Frc consts  --      1.5379                 1.5889                 1.5090
 IR Inten    --      0.4736                 4.0636                 4.8647

                     67                     68                     69
                      A                      A                      A
 Frequencies --   1378.3849              1396.8058              1400.0050
 Red. masses --      1.4197                 3.6782                 1.2859
 Frc consts  --      1.5892                 4.2282                 1.4849
 IR Inten    --      4.3990                18.8776                 6.3060

                     70                     71                     72
                      A                      A                      A
 Frequencies --   1420.5425              1424.9878              1478.3968
 Red. masses --      1.2325                 1.3551                 1.0841
 Frc consts  --      1.4654                 1.6213                 1.3960
 IR Inten    --      3.6993                 9.6360                 2.0545

                     73                     74                     75
                      A                      A                      A
 Frequencies --   1485.7053              1488.6303              1491.6455
 Red. masses --      1.0925                 1.0465                 1.0867
 Frc consts  --      1.4208                 1.3663                 1.4246
 IR Inten    --      1.5640                 0.7039                 4.8088

                     76                     77                     78
                      A                      A                      A
 Frequencies --   1494.8741              1498.5433              1502.7829
 Red. masses --      1.0699                 1.0870                 1.0889
 Frc consts  --      1.4087                 1.4382                 1.4489
 IR Inten    --      1.3145                 1.5521                 1.9171

                     79                     80                     81
                      A                      A                      A
 Frequencies --   1504.7302              1510.9030              1519.0543
 Red. masses --      1.0614                 1.0517                 1.1003
 Frc consts  --      1.4159                 1.4145                 1.4959
 IR Inten    --      1.9509                 8.1666                 4.9022

                     82                     83                     84
                      A                      A                      A
 Frequencies --   1668.0769              2926.0425              2997.7961
 Red. masses --      1.1038                 1.0678                 1.0820
 Frc consts  --      1.8095                 5.3863                 5.7292
 IR Inten    --     38.9327                58.5865                16.1621

                     85                     86                     87
                      A                      A                      A
 Frequencies --   3017.4785              3021.8747              3028.0413
 Red. masses --      1.0628                 1.0373                 1.0394
 Frc consts  --      5.7013                 5.5810                 5.6152
 IR Inten    --      8.3402                27.7398                27.2285

                     88                     89                     90
                      A                      A                      A
 Frequencies --   3030.1959              3031.7719              3036.9095
 Red. masses --      1.0626                 1.0806                 1.0620
 Frc consts  --      5.7487                 5.8521                 5.7707
 IR Inten    --     16.2530                26.0974                19.3557

                     91                     92                     93
                      A                      A                      A
 Frequencies --   3044.1624              3051.1945              3062.9581
 Red. masses --      1.0697                 1.0853                 1.0904
 Frc consts  --      5.8404                 5.9533                 6.0274
 IR Inten    --     26.3373                53.8314                42.1350

                     94                     95                     96
                      A                      A                      A
 Frequencies --   3068.3189              3069.2500              3074.7646
 Red. masses --      1.1013                 1.1003                 1.0636
 Frc consts  --      6.1088                 6.1069                 5.9245
 IR Inten    --      8.6204                16.9916                20.4533

                     97                     98                     99
                      A                      A                      A
 Frequencies --   3086.5056              3087.3218              3093.0835
 Red. masses --      1.1007                 1.1004                 1.1002
 Frc consts  --      6.1780                 6.1795                 6.2015
 IR Inten    --      3.4480                63.4556                69.6324

                    100                    101                    102
                      A                      A                      A
 Frequencies --   3096.3975              3104.4905              3109.5721
 Red. masses --      1.1014                 1.0997                 1.0867
 Frc consts  --      6.2215                 6.2447                 6.1912
 IR Inten    --     43.1316                41.2074                12.0590

                    103                    104                    105
                      A                      A                      A
 Frequencies --   3124.5858              3533.7879              3615.1507
 Red. masses --      1.1065                 1.0481                 1.0939
 Frc consts  --      6.3648                 7.7115                 8.4231
 IR Inten    --     27.3232                 4.9302                 8.2841

 - Thermochemistry -
 -------------------
 Temperature   298.150 Kelvin.  Pressure   1.00000 Atm.
 Atom     1 has atomic number  6 and mass  12.00000

 Molecular mass:   193.18305 amu.
 Principal axes and moments of inertia in atomic units:
                           1         2         3
     Eigenvalues --  1163.383246201.137506531.02201
           X            0.99999   0.00418   0.00145
           Y           -0.00420   0.99989   0.01419
           Z           -0.00139  -0.01419   0.99990
 This molecule is an asymmetric top.
 Rotational symmetry number  1.
 Warning -- assumption of classical behavior for rotation
           may cause significant error
 Rotational temperatures (Kelvin)      0.07445     0.01397     0.01326
 Rotational constants (GHZ):           1.55129     0.29103     0.27633
 Zero-point vibrational energy     883471.7 (Joules/Mol)
                                  211.15482 (Kcal/Mol)
 Warning -- explicit consideration of  24 degrees of freedom as
           vibrations may cause significant error
 Vibrational temperatures:     18.86    45.72    81.28   149.06   156.81
          (Kelvin)            218.06   292.99   308.94   324.47   358.51
                              379.84   413.25   454.83   477.60   520.83
                              556.42   582.69   622.96   685.12   696.07
                              759.44   781.61   796.00   817.68   964.12
                             1066.32  1127.21  1148.54  1166.41  1191.79
                             1201.69  1272.75  1280.85  1329.59  1330.51
                             1339.97  1363.29  1383.38  1408.27  1437.16
                             1449.03  1480.23  1520.40  1535.66  1584.32
                             1612.59  1616.33  1645.11  1665.23  1702.77
                             1710.11  1729.20  1743.74  1773.21  1781.86
                             1795.60  1804.02  1816.18  1854.07  1876.07
                             1907.48  1920.48  1932.37  1960.93  1964.36
                             1973.36  1983.19  2009.69  2014.29  2043.84
                             2050.24  2127.08  2137.60  2141.81  2146.15
                             2150.79  2156.07  2162.17  2164.97  2173.85
                             2185.58  2399.99  4209.92  4313.16  4341.48
                             4347.80  4356.68  4359.78  4362.04  4369.44
                             4379.87  4389.99  4406.91  4414.63  4415.97
                             4423.90  4440.79  4441.97  4450.26  4455.03
                             4466.67  4473.98  4495.58  5084.33  5201.40

 Zero-point correction=                           0.336497 (Hartree/Particle)
 Thermal correction to Energy=                    0.351875
 Thermal correction to Enthalpy=                  0.352820
 Thermal correction to Gibbs Free Energy=         0.292946
 Sum of electronic and zero-point Energies=           -563.545809
 Sum of electronic and thermal Energies=              -563.530430
 Sum of electronic and thermal Enthalpies=            -563.529486
 Sum of electronic and thermal Free Energies=         -563.589359

                     E (Thermal)             CV                S
                      KCal/Mol        Cal/Mol-Kelvin    Cal/Mol-Kelvin
 Total                  220.805             60.261            126.014
 Electronic               0.000              0.000              0.000
 Translational            0.889              2.981             41.681
 Rotational               0.889              2.981             32.222
 Vibrational            219.028             54.299             52.112
 Vibration     1          0.593              1.987              7.473
 Vibration     2          0.594              1.983              5.715
 Vibration     3          0.596              1.975              4.576
 Vibration     4          0.605              1.946              3.385
 Vibration     5          0.606              1.942              3.287
 Vibration     6          0.619              1.901              2.653
 Vibration     7          0.639              1.835              2.100
 Vibration     8          0.645              1.819              2.003
 Vibration     9          0.650              1.802              1.914
 Vibration    10          0.662              1.764              1.736
 Vibration    11          0.671              1.739              1.635
 Vibration    12          0.684              1.697              1.490
 Vibration    13          0.703              1.643              1.330
 Vibration    14          0.714              1.612              1.251
 Vibration    15          0.736              1.551              1.114
 Vibration    16          0.755              1.499              1.013
 Vibration    17          0.770              1.459              0.944
 Vibration    18          0.794              1.398              0.849
 Vibration    19          0.833              1.303              0.720
 Vibration    20          0.840              1.286              0.700
 Vibration    21          0.883              1.188              0.592
 Vibration    22          0.898              1.154              0.558
 Vibration    23          0.909              1.133              0.537
 Vibration    24          0.924              1.100              0.507

 Optimization completed on the basis of negligible forces.
    -- Stationary point found.
 Normal termination of Gaussian 16 at Tue May 23 05:24:57 2023.
