 Gaussian 16, Revision A.03,
 Gaussian 16:  ES64L-G16RevA.03 25-Dec-2016

 -----------------------------
 # opt freq b3lyp/6-31g(2df,p)
 -----------------------------

 -------------------
 Title Card Required
 -------------------
 Symbolic Z-matrix:
 Charge =  0 Multiplicity = 1

 SCF Done:  E(RB3LYP) =  -197.791031840     A.U. after   11 cycles
 SCF Done:  E(RB3LYP) =  -197.791061171     A.U. after    6 cycles
 Optimization completed.
    -- Stationary point found.
 Normal termination of Gaussian 16 at Sat May 27 23:56:29 2023.

 ----------------------------------------------------------------------
 #N Geom=AllCheck Guess=TCheck SCRF=Check GenChk RB3LYP/6-31G(2df,p) Fr
 eq
 ----------------------------------------------------------------------

 Structure from the checkpoint file:  "CCqCrqCrC.chk"
 -------------------
 Title Card Required
 -------------------
 Charge =  0 Multiplicity = 1

                         Standard orientation:
 ---------------------------------------------------------------------
 Center     Atomic      Atomic             Coordinates (Angstroms)
 Number     Number       Type             X           Y           Z
 ---------------------------------------------------------------------
      1          6           0       -0.627619   -1.262313   -0.618116
      2          6           0       -0.000023   -0.000014   -0.000000
      3          6           0       -1.092200    1.062954    0.215972
      4          6           0        0.643640   -0.356408    1.352067
      5          6           0        1.076183    0.555767   -0.949915
      6          1           0       -1.399564   -1.682384    0.036393
      7          1           0        0.126807   -2.039485   -0.784230
      8          1           0       -1.095014   -1.040404   -1.584061
      9          1           0       -1.874770    0.696121    0.889594
     10          1           0       -1.570300    1.338161   -0.730829
     11          1           0       -0.675460    1.975899    0.655997
     12          1           0       -0.099100   -0.755829    2.051747
     13          1           0        1.100135    0.524021    1.818130
     14          1           0        1.427251   -1.112746    1.230991
     15          1           0        0.647784    0.819559   -1.923386
     16          1           0        1.869562   -0.179793   -1.123874
     17          1           0        1.542782    1.456962   -0.536526
 ---------------------------------------------------------------------

 SCF Done:  E(RB3LYP) =  -197.791061171     A.U. after    1 cycles

 The electronic state is 1-A.
 Alpha  occ. eigenvalues --  -10.19022 -10.16633 -10.16633 -10.16633 -10.16632
 Alpha  occ. eigenvalues --   -0.81302  -0.67764  -0.67763  -0.67763  -0.52754
 Alpha  occ. eigenvalues --   -0.44090  -0.44089  -0.44089  -0.39353  -0.39353
 Alpha  occ. eigenvalues --   -0.35738  -0.35738  -0.35738  -0.31464  -0.31463
 Alpha  occ. eigenvalues --   -0.31463
 Alpha virt. eigenvalues --    0.07376   0.13903   0.13903   0.13903   0.16227
 Alpha virt. eigenvalues --    0.16227   0.16227   0.18011   0.18012   0.20854
 Alpha virt. eigenvalues --    0.22541   0.22542   0.22542   0.24132   0.24133

 Mulliken charges:
               1
     1  C   -0.389952
     2  C    0.284044
     3  C   -0.389965
     4  C   -0.389951
     5  C   -0.389957
     6  H    0.106316
     7  H    0.106315
     8  H    0.106316
     9  H    0.106315
    10  H    0.106317
    11  H    0.106316
    12  H    0.106312
    13  H    0.106316
    14  H    0.106315
    15  H    0.106311
    16  H    0.106313
    17  H    0.106316
 Sum of Mulliken charges =  -0.00000

 Dipole moment (field-independent basis, Debye):
    X=             -0.0000    Y=             -0.0000    Z=             -0.0000  Tot=              0.0000
 Quadrupole moment (field-independent basis, Debye-Ang):
   XX=            -35.0080   YY=            -35.0080   ZZ=            -35.0081
   XY=              0.0000   XZ=             -0.0001   YZ=              0.0001

  Exact polarizability:  56.017   0.000  56.016  -0.000  -0.000  56.017
 Approx polarizability:  76.527  -0.000  76.527  -0.000  -0.000  76.527

                      1                      2                      3
                      A                      A                      A
 Frequencies --    195.3298               268.7465               269.4777
 Red. masses --      1.0078                 1.0304                 1.0304
 Frc consts  --      0.0227                 0.0438                 0.0441
 IR Inten    --      0.0000                 0.0000                 0.0000

                      4                      5                      6
                      A                      A                      A
 Frequencies --    269.9491               325.2319               325.4403
 Red. masses --      1.0304                 2.1742                 2.1744
 Frc consts  --      0.0442                 0.1355                 0.1357
 IR Inten    --      0.0000                 0.0000                 0.0000

                      7                      8                      9
                      A                      A                      A
 Frequencies --    410.9746               411.3077               411.6101
 Red. masses --      2.0939                 2.0942                 2.0946
 Frc consts  --      0.2084                 0.2087                 0.2091
 IR Inten    --      0.0071                 0.0071                 0.0071

                     10                     11                     12
                      A                      A                      A
 Frequencies --    729.7536               926.6058               926.7105
 Red. masses --      3.4772                 2.0203                 2.0207
 Frc consts  --      1.0910                 1.0220                 1.0224
 IR Inten    --      0.0000                 0.3683                 0.3682

                     13                     14                     15
                      A                      A                      A
 Frequencies --    926.8404               957.5478               957.8568
 Red. masses --      2.0213                 1.2041                 1.2041
 Frc consts  --      1.0230                 0.6505                 0.6509
 IR Inten    --      0.3671                 0.0000                 0.0000

                     16                     17                     18
                      A                      A                      A
 Frequencies --    957.9743              1088.5285              1088.5601
 Red. masses --      1.2041                 1.3668                 1.3669
 Frc consts  --      0.6511                 0.9542                 0.9543
 IR Inten    --      0.0000                 0.0000                 0.0000

                     19                     20                     21
                      A                      A                      A
 Frequencies --   1273.5056              1273.5783              1273.7254
 Red. masses --      2.6432                 2.6441                 2.6420
 Frc consts  --      2.5257                 2.5269                 2.5254
 IR Inten    --      5.9274                 5.9323                 5.9253

                     22                     23                     24
                      A                      A                      A
 Frequencies --   1399.1118              1399.2392              1399.4726
 Red. masses --      1.2367                 1.2367                 1.2362
 Frc consts  --      1.4263                 1.4266                 1.4265
 IR Inten    --      4.3983                 4.3992                 4.3978

                     25                     26                     27
                      A                      A                      A
 Frequencies --   1440.4308              1480.5802              1480.7577
 Red. masses --      1.2267                 1.0484                 1.0483
 Frc consts  --      1.4995                 1.3540                 1.3543
 IR Inten    --      0.0001                 0.0001                 0.0000

                     28                     29                     30
                      A                      A                      A
 Frequencies --   1480.8044              1489.3063              1489.3383
 Red. masses --      1.0483                 1.0413                 1.0413
 Frc consts  --      1.3544                 1.3608                 1.3608
 IR Inten    --      0.0000                 0.0002                 0.0000

                     31                     32                     33
                      A                      A                      A
 Frequencies --   1516.6734              1516.8302              1516.9499
 Red. masses --      1.0634                 1.0634                 1.0634
 Frc consts  --      1.4413                 1.4415                 1.4417
 IR Inten    --      6.6073                 6.6130                 6.6046

                     34                     35                     36
                      A                      A                      A
 Frequencies --   3018.8033              3018.8218              3018.8819
 Red. masses --      1.0343                 1.0344                 1.0344
 Frc consts  --      5.5538                 5.5538                 5.5541
 IR Inten    --     34.5533                34.5623                34.5437

                     37                     38                     39
                      A                      A                      A
 Frequencies --   3029.9317              3086.4100              3086.4575
 Red. masses --      1.0363                 1.1022                 1.1022
 Frc consts  --      5.6052                 6.1862                 6.1863
 IR Inten    --      0.0008                 0.0064                 0.0010

                     40                     41                     42
                      A                      A                      A
 Frequencies --   3086.4722              3087.7483              3087.8061
 Red. masses --      1.1022                 1.1011                 1.1011
 Frc consts  --      6.1864                 6.1855                 6.1857
 IR Inten    --      0.0009                 0.0049                 0.0002

                     43                     44                     45
                      A                      A                      A
 Frequencies --   3094.4792              3094.5096              3094.5317
 Red. masses --      1.1004                 1.1004                 1.1004
 Frc consts  --      6.2082                 6.2083                 6.2084
 IR Inten    --     85.7051                85.6768                85.6628

 - Thermochemistry -
 -------------------
 Temperature   298.150 Kelvin.  Pressure   1.00000 Atm.
 Atom     1 has atomic number  6 and mass  12.00000

 Molecular mass:    72.09390 amu.
 Principal axes and moments of inertia in atomic units:
                           1         2         3
     Eigenvalues --   408.69049 408.69359 408.69764
           X            0.99815  -0.01938  -0.05765
           Y            0.01797   0.99953  -0.02495
           Z            0.05810   0.02387   0.99803
 This molecule is an asymmetric top.
 Rotational symmetry number  1.
 Rotational temperatures (Kelvin)      0.21193     0.21193     0.21193
 Rotational constants (GHZ):           4.41591     4.41588     4.41583
 Zero-point vibrational energy     416800.5 (Joules/Mol)
                                   99.61771 (Kcal/Mol)
 Warning -- explicit consideration of   9 degrees of freedom as
           vibrations may cause significant error
 Vibrational temperatures:    281.04   386.67   387.72   388.40   467.94
          (Kelvin)            468.24   591.30   591.78   592.22  1049.95
                             1333.18  1333.33  1333.52  1377.70  1378.14
                             1378.31  1566.15  1566.20  1832.29  1832.40
                             1832.61  2013.01  2013.19  2013.53  2072.46
                             2130.22  2130.48  2130.55  2142.78  2142.83
                             2182.15  2182.38  2182.55  4343.38  4343.41
                             4343.50  4359.40  4440.66  4440.72  4440.75
                             4442.58  4442.66  4452.27  4452.31  4452.34

 Zero-point correction=                           0.158751 (Hartree/Particle)
 Thermal correction to Energy=                    0.165741
 Thermal correction to Enthalpy=                  0.166686
 Thermal correction to Gibbs Free Energy=         0.129555
 Sum of electronic and zero-point Energies=           -197.632310
 Sum of electronic and thermal Energies=              -197.625320
 Sum of electronic and thermal Enthalpies=            -197.624376
 Sum of electronic and thermal Free Energies=         -197.661506

                     E (Thermal)             CV                S
                      KCal/Mol        Cal/Mol-Kelvin    Cal/Mol-Kelvin
 Total                  104.004             26.112             78.148
 Electronic               0.000              0.000              0.000
 Translational            0.889              2.981             38.743
 Rotational               0.889              2.981             25.726
 Vibrational            102.227             20.150             13.679
 Vibration     1          0.636              1.846              2.177
 Vibration     2          0.673              1.731              1.604
 Vibration     3          0.674              1.729              1.600
 Vibration     4          0.674              1.729              1.597
 Vibration     5          0.709              1.625              1.284
 Vibration     6          0.710              1.625              1.283
 Vibration     7          0.775              1.446              0.923
 Vibration     8          0.775              1.446              0.922
 Vibration     9          0.776              1.445              0.921

                           ! Non-Optimized Parameters !
 Normal termination of Gaussian 16 at Sun May 28 00:08:22 2023.
