 Gaussian 16, Revision A.03,
 Gaussian 16:  ES64L-G16RevA.03 25-Dec-2016

 -----------------------------
 # opt freq b3lyp/6-31g(2df,p)
 -----------------------------

 -------------------
 Title Card Required
 -------------------
 Symbolic Z-matrix:
 Charge =  0 Multiplicity = 1

 SCF Done:  E(RB3LYP) =  -455.985979136     A.U. after   13 cycles
 SCF Done:  E(RB3LYP) =  -456.035517147     A.U. after   11 cycles
 SCF Done:  E(RB3LYP) =  -456.102411656     A.U. after   11 cycles
 SCF Done:  E(RB3LYP) =  -456.135847861     A.U. after   11 cycles
 SCF Done:  E(RB3LYP) =  -456.170347007     A.U. after   11 cycles
 SCF Done:  E(RB3LYP) =  -456.195935907     A.U. after   11 cycles
 SCF Done:  E(RB3LYP) =  -456.203865417     A.U. after   11 cycles
 SCF Done:  E(RB3LYP) =  -456.207011619     A.U. after   11 cycles
 SCF Done:  E(RB3LYP) =  -456.209343901     A.U. after   10 cycles
 SCF Done:  E(RB3LYP) =  -456.211368554     A.U. after   11 cycles
 SCF Done:  E(RB3LYP) =  -456.211778545     A.U. after    9 cycles
 SCF Done:  E(RB3LYP) =  -456.211851611     A.U. after    9 cycles
 SCF Done:  E(RB3LYP) =  -456.211879157     A.U. after    8 cycles
 SCF Done:  E(RB3LYP) =  -456.211898689     A.U. after    9 cycles
 SCF Done:  E(RB3LYP) =  -456.211906947     A.U. after    8 cycles
 SCF Done:  E(RB3LYP) =  -456.211907659     A.U. after    7 cycles
 SCF Done:  E(RB3LYP) =  -456.211907970     A.U. after    7 cycles
 SCF Done:  E(RB3LYP) =  -456.211907999     A.U. after    6 cycles
 Optimization completed.
    -- Stationary point found.
 Normal termination of Gaussian 16 at Sat May 27 19:35:29 2023.

 ----------------------------------------------------------------------
 #N Geom=AllCheck Guess=TCheck SCRF=Check GenChk RB3LYP/6-31G(2df,p) Fr
 eq
 ----------------------------------------------------------------------

 Structure from the checkpoint file:  "CCqCrCqFrqFrF.chk"
 -------------------
 Title Card Required
 -------------------
 Charge =  0 Multiplicity = 1

                         Standard orientation:
 ---------------------------------------------------------------------
 Center     Atomic      Atomic             Coordinates (Angstroms)
 Number     Number       Type             X           Y           Z
 ---------------------------------------------------------------------
      1          6           0       -2.364213   -0.580904    0.067619
      2          6           0       -1.620673    0.740163   -0.158270
      3          6           0       -0.274411    0.859901    0.572272
      4          6           0        0.827292   -0.019496    0.015547
      5          9           0        0.578002   -1.331100    0.183665
      6          9           0        1.007442    0.181358   -1.301383
      7          9           0        1.998632    0.236619    0.621703
      8          1           0       -3.337229   -0.561723   -0.432196
      9          1           0       -2.541958   -0.755148    1.134716
     10          1           0       -1.803047   -1.434442   -0.318101
     11          1           0       -1.454066    0.899422   -1.229277
     12          1           0       -2.249562    1.570771    0.180485
     13          1           0       -0.377435    0.614225    1.634521
     14          1           0        0.098639    1.887018    0.510982
 ---------------------------------------------------------------------

 SCF Done:  E(RB3LYP) =  -456.211907999     A.U. after    1 cycles

 The electronic state is 1-A.
 Alpha  occ. eigenvalues --  -24.71346 -24.71322 -24.71165 -10.41202 -10.20603
 Alpha  occ. eigenvalues --  -10.19673 -10.17880  -1.29956  -1.21067  -1.21001
 Alpha  occ. eigenvalues --   -0.81396  -0.73472  -0.66305  -0.61152  -0.57971
 Alpha  occ. eigenvalues --   -0.57712  -0.53074  -0.46451  -0.45435  -0.45066
 Alpha  occ. eigenvalues --   -0.44675  -0.42101  -0.40821  -0.40203  -0.39448
 Alpha  occ. eigenvalues --   -0.37832  -0.35416  -0.34836  -0.33695
 Alpha virt. eigenvalues --    0.08364   0.12169   0.13198   0.14857   0.15056
 Alpha virt. eigenvalues --    0.16225   0.17693   0.18315   0.19321   0.22503
 Alpha virt. eigenvalues --    0.23654   0.24889   0.27328   0.38718   0.41534

 Mulliken charges:
               1
     1  C   -0.376947
     2  C   -0.188016
     3  C   -0.317314
     4  C    0.285061
     5  F   -0.082031
     6  F   -0.084623
     7  F   -0.079651
     8  H    0.115817
     9  H    0.115500
    10  H    0.134816
    11  H    0.117470
    12  H    0.104514
    13  H    0.126800
    14  H    0.128604
 Sum of Mulliken charges =  -0.00000

 Dipole moment (field-independent basis, Debye):
    X=             -1.6117    Y=              1.0906    Z=              0.5946  Tot=              2.0348
 Quadrupole moment (field-independent basis, Debye-Ang):
   XX=            -41.3812   YY=            -39.8365   ZZ=            -40.1923
   XY=             -0.3128   XZ=             -0.0928   YZ=              0.5486

  Exact polarizability:  51.234   1.412  44.979   0.908   0.027  43.422
 Approx polarizability:  63.648   1.313  62.721   1.020  -0.699  63.806

                      1                      2                      3
                      A                      A                      A
 Frequencies --     49.7377               125.5740               204.3367
 Red. masses --      3.3203                 2.3153                 2.4135
 Frc consts  --      0.0048                 0.0215                 0.0594
 IR Inten    --      0.0805                 0.3022                 1.5004

                      4                      5                      6
                      A                      A                      A
 Frequencies --    266.9557               297.5361               371.7316
 Red. masses --      1.4642                 4.7040                 2.8648
 Frc consts  --      0.0615                 0.2454                 0.2332
 IR Inten    --      0.0555                 0.3972                 1.0864

                      7                      8                      9
                      A                      A                      A
 Frequencies --    443.5129               537.7571               543.9670
 Red. masses --      3.0762                 7.6444                 8.3726
 Frc consts  --      0.3565                 1.3025                 1.4597
 IR Inten    --      2.5495                 0.7587                 4.9584

                     10                     11                     12
                      A                      A                      A
 Frequencies --    624.1939               768.6107               835.0256
 Red. masses --      3.7518                 1.9055                 2.5771
 Frc consts  --      0.8613                 0.6632                 1.0587
 IR Inten    --      5.6216                 6.2671                 5.5140

                     13                     14                     15
                      A                      A                      A
 Frequencies --    877.3010               907.4449              1040.5411
 Red. masses --      2.1027                 1.6733                 2.0168
 Frc consts  --      0.9535                 0.8118                 1.2865
 IR Inten    --      3.5569                 5.3408                51.4397

                     16                     17                     18
                      A                      A                      A
 Frequencies --   1061.3055              1096.0737              1186.3403
 Red. masses --      1.5295                 2.5251                 2.8404
 Frc consts  --      1.0150                 1.7874                 2.3553
 IR Inten    --     38.5251                34.7944               104.5172

                     19                     20                     21
                      A                      A                      A
 Frequencies --   1200.0628              1270.4046              1291.1731
 Red. masses --      3.4664                 3.9360                 1.4555
 Frc consts  --      2.9413                 3.7428                 1.4297
 IR Inten    --    147.4860               150.8750                45.0295

                     22                     23                     24
                      A                      A                      A
 Frequencies --   1318.2751              1383.6334              1402.6328
 Red. masses --      1.4202                 1.4320                 1.5849
 Frc consts  --      1.4541                 1.6153                 1.8372
 IR Inten    --     49.1045                 9.0914                32.3311

                     25                     26                     27
                      A                      A                      A
 Frequencies --   1422.7447              1474.7998              1490.0342
 Red. masses --      1.3068                 1.1212                 1.0692
 Frc consts  --      1.5586                 1.4368                 1.3986
 IR Inten    --      3.7812                 6.3708                 2.2902

                     28                     29                     30
                      A                      A                      A
 Frequencies --   1502.1552              1510.0670              3039.6671
 Red. masses --      1.0440                 1.0622                 1.0409
 Frc consts  --      1.3880                 1.4271                 5.6664
 IR Inten    --      5.7275                 6.5609                18.0750

                     31                     32                     33
                      A                      A                      A
 Frequencies --   3041.2377              3054.0888              3077.1130
 Red. masses --      1.0595                 1.0630                 1.0974
 Frc consts  --      5.7736                 5.8417                 6.1222
 IR Inten    --     23.6329                 8.3623                11.7727

                     34                     35                     36
                      A                      A                      A
 Frequencies --   3100.7855              3105.7454              3133.5280
 Red. masses --      1.1022                 1.1013                 1.0998
 Frc consts  --      6.2440                 6.2586                 6.3625
 IR Inten    --     12.3265                39.0596                21.3514

 - Thermochemistry -
 -------------------
 Temperature   298.150 Kelvin.  Pressure   1.00000 Atm.
 Atom     1 has atomic number  6 and mass  12.00000

 Molecular mass:   112.04999 amu.
 Principal axes and moments of inertia in atomic units:
                           1         2         3
     Eigenvalues --   412.481171021.218361073.84627
           X            0.99997   0.00705  -0.00133
           Y           -0.00690   0.99564   0.09307
           Z            0.00198  -0.09306   0.99566
 This molecule is an asymmetric top.
 Rotational symmetry number  1.
 Rotational temperatures (Kelvin)      0.20998     0.08481     0.08066
 Rotational constants (GHZ):           4.37533     1.76724     1.68063
 Zero-point vibrational energy     287439.3 (Joules/Mol)
                                   68.69964 (Kcal/Mol)
 Warning -- explicit consideration of   9 degrees of freedom as
           vibrations may cause significant error
 Vibrational temperatures:     71.56   180.67   293.99   384.09   428.09
          (Kelvin)            534.84   638.12   773.71   782.65   898.08
                             1105.86  1201.42  1262.24  1305.61  1497.11
                             1526.98  1577.01  1706.88  1726.62  1827.83
                             1857.71  1896.70  1990.74  2018.08  2047.01
                             2121.91  2143.83  2161.27  2172.65  4373.40
                             4375.66  4394.15  4427.28  4461.34  4468.47
                             4508.45

 Zero-point correction=                           0.109480 (Hartree/Particle)
 Thermal correction to Energy=                    0.116886
 Thermal correction to Enthalpy=                  0.117830
 Thermal correction to Gibbs Free Energy=         0.077321
 Sum of electronic and zero-point Energies=           -456.102428
 Sum of electronic and thermal Energies=              -456.095022
 Sum of electronic and thermal Enthalpies=            -456.094078
 Sum of electronic and thermal Free Energies=         -456.134587

                     E (Thermal)             CV                S
                      KCal/Mol        Cal/Mol-Kelvin    Cal/Mol-Kelvin
 Total                   73.347             26.067             85.259
 Electronic               0.000              0.000              0.000
 Translational            0.889              2.981             40.057
 Rotational               0.889              2.981             27.605
 Vibrational             71.570             20.106             17.596
 Vibration     1          0.595              1.978              4.828
 Vibration     2          0.611              1.927              3.013
 Vibration     3          0.640              1.834              2.094
 Vibration     4          0.672              1.734              1.616
 Vibration     5          0.691              1.678              1.431
 Vibration     6          0.743              1.530              1.073
 Vibration     7          0.803              1.375              0.816
 Vibration     8          0.893              1.167              0.570
 Vibration     9          0.899              1.153              0.557

 Optimization completed.
    -- Stationary point found.
 Normal termination of Gaussian 16 at Sat May 27 19:48:09 2023.
