 Gaussian 16, Revision A.03,
 Gaussian 16:  ES64L-G16RevA.03 25-Dec-2016

 -----------------------------
 # opt freq b3lyp/6-31g(2df,p)
 -----------------------------

 -------------------
 Title Card Required
 -------------------
 Symbolic Z-matrix:
 Charge =  0 Multiplicity = 1

 SCF Done:  E(RB3LYP) =  -533.595749513     A.U. after   12 cycles
 SCF Done:  E(RB3LYP) =  -533.598204555     A.U. after   10 cycles
 SCF Done:  E(RB3LYP) =  -533.598382636     A.U. after    9 cycles
 SCF Done:  E(RB3LYP) =  -533.598414008     A.U. after    8 cycles
 SCF Done:  E(RB3LYP) =  -533.598427778     A.U. after    8 cycles
 SCF Done:  E(RB3LYP) =  -533.598439938     A.U. after    8 cycles
 SCF Done:  E(RB3LYP) =  -533.598451274     A.U. after    9 cycles
 SCF Done:  E(RB3LYP) =  -533.598456006     A.U. after    8 cycles
 SCF Done:  E(RB3LYP) =  -533.598456350     A.U. after    7 cycles
 SCF Done:  E(RB3LYP) =  -533.598456427     A.U. after    6 cycles
 Optimization completed.
    -- Stationary point found.
 Normal termination of Gaussian 16 at Sun May 28 06:40:04 2023.

 ----------------------------------------------------------------------
 #N Geom=AllCheck Guess=TCheck SCRF=Check GenChk RB3LYP/6-31G(2df,p) Fr
 eq
 ----------------------------------------------------------------------

 Structure from the checkpoint file:  "CCqC1CC1rCqFrqFrF.chk"
 -------------------
 Title Card Required
 -------------------
 Charge =  0 Multiplicity = 1

                         Standard orientation:
 ---------------------------------------------------------------------
 Center     Atomic      Atomic             Coordinates (Angstroms)
 Number     Number       Type             X           Y           Z
 ---------------------------------------------------------------------
      1          6           0        0.253914    1.858852    0.149740
      2          6           0        0.069726    0.511057   -0.559471
      3          6           0        1.253160   -0.447825   -0.491526
      4          6           0        2.684759    0.014051   -0.393805
      5          6           0        2.038463   -0.689228    0.773104
      6          6           0       -1.181339   -0.185977   -0.031082
      7          9           0       -1.105155   -0.431431    1.287088
      8          9           0       -2.282395    0.560874   -0.231844
      9          9           0       -1.389716   -1.363125   -0.645229
     10          1           0        1.064814    2.427106   -0.310388
     11          1           0        0.477145    1.730802    1.212004
     12          1           0       -0.659522    2.452450    0.070254
     13          1           0       -0.147383    0.707312   -1.617338
     14          1           0        1.098591   -1.329895   -1.104589
     15          1           0        2.886125    1.074109   -0.291173
     16          1           0        3.426077   -0.519296   -0.978337
     17          1           0        1.803741   -0.097217    1.649857
     18          1           0        2.333701   -1.707820    0.997813
 ---------------------------------------------------------------------

 SCF Done:  E(RB3LYP) =  -533.598456427     A.U. after    1 cycles

 The electronic state is 1-A.
 Alpha  occ. eigenvalues --  -24.71140 -24.71106 -24.71084 -10.40754 -10.21270
 Alpha  occ. eigenvalues --  -10.19979 -10.19047 -10.18862 -10.18857  -1.29768
 Alpha  occ. eigenvalues --   -1.20891  -1.20826  -0.86898  -0.79628  -0.69704
 Alpha  occ. eigenvalues --   -0.65211  -0.60570  -0.58654  -0.57581  -0.56817
 Alpha  occ. eigenvalues --   -0.52614  -0.49986  -0.47162  -0.45305  -0.44955
 Alpha  occ. eigenvalues --   -0.43528  -0.41389  -0.40654  -0.40179  -0.39245
 Alpha  occ. eigenvalues --   -0.37517  -0.36717  -0.35946  -0.34753  -0.29656
 Alpha  occ. eigenvalues --   -0.28935
 Alpha virt. eigenvalues --    0.08461   0.09316   0.11290   0.12108   0.13739
 Alpha virt. eigenvalues --    0.14974   0.16217   0.17247   0.17771   0.18451
 Alpha virt. eigenvalues --    0.20108   0.22308   0.23028   0.23929   0.25391

 Mulliken charges:
               1
     1  C   -0.427472
     2  C   -0.148190
     3  C    0.016831
     4  C   -0.295836
     5  C   -0.253854
     6  C    0.291942
     7  F   -0.082312
     8  F   -0.085510
     9  F   -0.087126
    10  H    0.126676
    11  H    0.135958
    12  H    0.136193
    13  H    0.104777
    14  H    0.100476
    15  H    0.114907
    16  H    0.115436
    17  H    0.120186
    18  H    0.116919
 Sum of Mulliken charges =  -0.00000

 Dipole moment (field-independent basis, Debye):
    X=              1.7477    Y=              0.8579    Z=             -0.5783  Tot=              2.0310
 Quadrupole moment (field-independent basis, Debye-Ang):
   XX=            -54.2363   YY=            -50.5974   ZZ=            -51.7314
   XY=             -1.0015   XZ=             -0.2629   YZ=              0.1734

  Exact polarizability:  69.913  -2.431  63.484   0.498  -0.344  58.486
 Approx polarizability:  91.248  -1.346  88.932   1.548  -0.532  89.885

                      1                      2                      3
                      A                      A                      A
 Frequencies --     46.0459                71.9245               170.0956
 Red. masses --      2.7533                 5.7678                 3.1181
 Frc consts  --      0.0034                 0.0176                 0.0532
 IR Inten    --      0.1349                 0.1110                 1.0128

                      4                      5                      6
                      A                      A                      A
 Frequencies --    211.1212               238.4310               282.9326
 Red. masses --      1.4580                 2.7297                 2.5393
 Frc consts  --      0.0383                 0.0914                 0.1198
 IR Inten    --      0.2742                 0.2528                 0.2407

                      7                      8                      9
                      A                      A                      A
 Frequencies --    315.1106               353.1844               402.7894
 Red. masses --      5.0114                 3.8689                 5.5095
 Frc consts  --      0.2932                 0.2843                 0.5266
 IR Inten    --      0.6017                 2.7157                 2.2294

                     10                     11                     12
                      A                      A                      A
 Frequencies --    511.2654               559.2693               571.1214
 Red. masses --      5.2765                 3.7055                 8.5775
 Frc consts  --      0.8126                 0.6829                 1.6484
 IR Inten    --      0.6217                 3.4906                 1.7149

                     13                     14                     15
                      A                      A                      A
 Frequencies --    663.4829               754.2789               786.2192
 Red. masses --      3.8741                 2.2384                 1.2641
 Frc consts  --      1.0048                 0.7503                 0.4604
 IR Inten    --      7.5620                 0.9780                 0.6487

                     16                     17                     18
                      A                      A                      A
 Frequencies --    823.5171               847.3298               917.2589
 Red. masses --      2.6445                 1.4104                 2.6574
 Frc consts  --      1.0567                 0.5966                 1.3173
 IR Inten    --      2.6224                 8.4214                 5.8976

                     19                     20                     21
                      A                      A                      A
 Frequencies --    950.9896              1013.8437              1042.9828
 Red. masses --      2.7099                 1.7640                 1.6125
 Frc consts  --      1.4440                 1.0683                 1.0335
 IR Inten    --      3.3339                21.7958                20.8044

                     22                     23                     24
                      A                      A                      A
 Frequencies --   1059.1940              1081.3871              1095.3408
 Red. masses --      1.3152                 1.3916                 1.8291
 Frc consts  --      0.8694                 0.9588                 1.2930
 IR Inten    --      9.6714                 0.4213                33.3037

                     25                     26                     27
                      A                      A                      A
 Frequencies --   1144.2672              1161.5736              1174.3724
 Red. masses --      1.2677                 2.1927                 3.8815
 Frc consts  --      0.9780                 1.7431                 3.1540
 IR Inten    --     37.8820                82.9754               136.8157

                     28                     29                     30
                      A                      A                      A
 Frequencies --   1199.1900              1210.6192              1250.2937
 Red. masses --      1.4188                 3.8766                 1.7905
 Frc consts  --      1.2021                 3.3475                 1.6491
 IR Inten    --      0.6780               130.5410                 3.5726

                     31                     32                     33
                      A                      A                      A
 Frequencies --   1281.8550              1348.9055              1372.6977
 Red. masses --      4.1936                 1.6168                 1.7552
 Frc consts  --      4.0599                 1.7333                 1.9486
 IR Inten    --    134.6224                 0.4428                38.1601

                     34                     35                     36
                      A                      A                      A
 Frequencies --   1399.1577              1421.2086              1468.7721
 Red. masses --      1.4094                 1.3592                 1.0844
 Frc consts  --      1.6257                 1.6175                 1.3784
 IR Inten    --     11.0842                 6.3474                 0.2503

                     37                     38                     39
                      A                      A                      A
 Frequencies --   1500.2851              1509.8460              1512.8410
 Red. masses --      1.0919                 1.1589                 1.2060
 Frc consts  --      1.4481                 1.5566                 1.6262
 IR Inten    --      5.5377                 8.6027                 5.4260

                     40                     41                     42
                      A                      A                      A
 Frequencies --   3031.4334              3058.2510              3130.6183
 Red. masses --      1.0830                 1.0351                 1.0987
 Frc consts  --      5.8636                 5.7039                 6.3445
 IR Inten    --     16.6420                12.1860                11.0365

                     43                     44                     45
                      A                      A                      A
 Frequencies --   3133.2470              3140.2641              3144.0820
 Red. masses --      1.0958                 1.0600                 1.0581
 Frc consts  --      6.3383                 6.1586                 6.1624
 IR Inten    --      6.4284                28.9260                11.0718

                     46                     47                     48
                      A                      A                      A
 Frequencies --   3157.8012              3216.0727              3231.0551
 Red. masses --      1.0881                 1.1170                 1.1147
 Frc consts  --      6.3928                 6.8069                 6.8563
 IR Inten    --      6.5987                 0.4396                18.3275

 - Thermochemistry -
 -------------------
 Temperature   298.150 Kelvin.  Pressure   1.00000 Atm.
 Atom     1 has atomic number  6 and mass  12.00000

 Molecular mass:   138.06564 amu.
 Principal axes and moments of inertia in atomic units:
                           1         2         3
     Eigenvalues --   664.026881529.328131717.59559
           X            0.99993  -0.01219   0.00081
           Y            0.01219   0.99993  -0.00111
           Z           -0.00080   0.00112   1.00000
 This molecule is an asymmetric top.
 Rotational symmetry number  1.
 Warning -- assumption of classical behavior for rotation
           may cause significant error
 Rotational temperatures (Kelvin)      0.13044     0.05664     0.05043
 Rotational constants (GHZ):           2.71787     1.18009     1.05074
 Zero-point vibrational energy     376631.2 (Joules/Mol)
                                   90.01703 (Kcal/Mol)
 Warning -- explicit consideration of  12 degrees of freedom as
           vibrations may cause significant error
 Vibrational temperatures:     66.25   103.48   244.73   303.76   343.05
          (Kelvin)            407.08   453.37   508.15   579.52   735.60
                              804.66   821.72   954.60  1085.24  1131.19
                             1184.86  1219.12  1319.73  1368.26  1458.69
                             1500.62  1523.94  1555.87  1575.95  1646.35
                             1671.25  1689.66  1725.37  1741.81  1798.89
                             1844.30  1940.77  1975.01  2013.08  2044.80
                             2113.24  2158.58  2172.33  2176.64  4361.56
                             4400.14  4504.26  4508.04  4518.14  4523.63
                             4543.37  4627.21  4648.77

 Zero-point correction=                           0.143451 (Hartree/Particle)
 Thermal correction to Energy=                    0.152510
 Thermal correction to Enthalpy=                  0.153454
 Thermal correction to Gibbs Free Energy=         0.108880
 Sum of electronic and zero-point Energies=           -533.455005
 Sum of electronic and thermal Energies=              -533.445947
 Sum of electronic and thermal Enthalpies=            -533.445003
 Sum of electronic and thermal Free Energies=         -533.489577

                     E (Thermal)             CV                S
                      KCal/Mol        Cal/Mol-Kelvin    Cal/Mol-Kelvin
 Total                   95.701             33.391             93.814
 Electronic               0.000              0.000              0.000
 Translational            0.889              2.981             40.679
 Rotational               0.889              2.981             28.946
 Vibrational             93.924             27.430             24.188
 Vibration     1          0.595              1.979              4.980
 Vibration     2          0.598              1.967              4.100
 Vibration     3          0.625              1.879              2.434
 Vibration     4          0.643              1.824              2.034
 Vibration     5          0.656              1.782              1.815
 Vibration     6          0.682              1.705              1.516
 Vibration     7          0.702              1.645              1.335
 Vibration     8          0.729              1.569              1.152
 Vibration     9          0.768              1.464              0.952
 Vibration    10          0.866              1.225              0.631
 Vibration    11          0.915              1.119              0.525
 Vibration    12          0.927              1.094              0.502

 Optimization completed.
    -- Stationary point found.
 Normal termination of Gaussian 16 at Sun May 28 07:05:33 2023.
