 Gaussian 16, Revision A.03,
 Gaussian 16:  ES64L-G16RevA.03 25-Dec-2016

 -----------------------------
 # opt freq b3lyp/6-31g(2df,p)
 -----------------------------

 -------------------
 Title Card Required
 -------------------
 Symbolic Z-matrix:
 Charge =  0 Multiplicity = 1

 SCF Done:  E(RB3LYP) =  -352.574009810     A.U. after   12 cycles
 SCF Done:  E(RB3LYP) =  -352.581710815     A.U. after   10 cycles
 SCF Done:  E(RB3LYP) =  -352.583325622     A.U. after   10 cycles
 SCF Done:  E(RB3LYP) =  -352.583675354     A.U. after   10 cycles
 SCF Done:  E(RB3LYP) =  -352.583983216     A.U. after    9 cycles
 SCF Done:  E(RB3LYP) =  -352.584010520     A.U. after    8 cycles
 SCF Done:  E(RB3LYP) =  -352.584014306     A.U. after    7 cycles
 SCF Done:  E(RB3LYP) =  -352.584014548     A.U. after    6 cycles
 Optimization completed.
    -- Stationary point found.
 Normal termination of Gaussian 16 at Sun May 28 10:27:49 2023.

 ----------------------------------------------------------------------
 #N Geom=AllCheck Guess=TCheck SCRF=Check GenChk RB3LYP/6-31G(2df,p) Fr
 eq
 ----------------------------------------------------------------------

 Structure from the checkpoint file:  "CCqCrC1CC2CC1C2.chk"
 -------------------
 Title Card Required
 -------------------
 Charge =  0 Multiplicity = 1

                         Standard orientation:
 ---------------------------------------------------------------------
 Center     Atomic      Atomic             Coordinates (Angstroms)
 Number     Number       Type             X           Y           Z
 ---------------------------------------------------------------------
      1          6           0       -1.866867    1.348415   -0.343517
      2          6           0       -1.634957    0.035245    0.418311
      3          6           0       -2.527355   -1.072743   -0.164931
      4          6           0       -0.170834   -0.444990    0.521176
      5          6           0        0.832297    0.469583    1.307340
      6          6           0        2.016794    0.467084    0.318537
      7          6           0        2.050463   -1.014041   -0.157981
      8          6           0        0.667505   -0.633978   -0.771320
      9          6           0        1.306615    0.765849   -1.030133
     10          1           0       -2.922429    1.634570   -0.282889
     11          1           0       -1.616878    1.247964   -1.404993
     12          1           0       -1.280835    2.177313    0.064180
     13          1           0       -1.963414    0.202652    1.455147
     14          1           0       -2.265528   -1.285795   -1.207710
     15          1           0       -3.582389   -0.779789   -0.145415
     16          1           0       -2.428087   -2.005829    0.399804
     17          1           0       -0.222352   -1.417849    1.026591
     18          1           0        1.095696    0.053853    2.284630
     19          1           0        0.441771    1.479313    1.471400
     20          1           0        2.920723    0.997118    0.621795
     21          1           0        2.076841   -1.804340    0.599326
     22          1           0        2.815533   -1.193759   -0.917179
     23          1           0        0.225212   -1.220382   -1.577549
     24          1           0        0.666683    1.646593   -1.095148
     25          1           0        1.997481    0.745820   -1.876887
 ---------------------------------------------------------------------

 SCF Done:  E(RB3LYP) =  -352.584014548     A.U. after    1 cycles

 The electronic state is 1-A.
 Alpha  occ. eigenvalues --  -10.18259 -10.18217 -10.18132 -10.17672 -10.17440
 Alpha  occ. eigenvalues --  -10.17265 -10.17099 -10.16719 -10.16684  -0.87996
 Alpha  occ. eigenvalues --   -0.78984  -0.70854  -0.68126  -0.67094  -0.64851
 Alpha  occ. eigenvalues --   -0.58534  -0.53716  -0.51578  -0.49517  -0.46079
 Alpha  occ. eigenvalues --   -0.44810  -0.43580  -0.40561  -0.39476  -0.37865
 Alpha  occ. eigenvalues --   -0.36242  -0.35511  -0.34608  -0.33499  -0.33056
 Alpha  occ. eigenvalues --   -0.31099  -0.30009  -0.29671  -0.29002  -0.28577
 Alpha virt. eigenvalues --    0.08086   0.10635   0.11728   0.12093   0.13319
 Alpha virt. eigenvalues --    0.14141   0.14836   0.15301   0.16258   0.17449
 Alpha virt. eigenvalues --    0.17868   0.18185   0.19186   0.19358   0.19561

 Mulliken charges:
               1
     1  C   -0.391259
     2  C    0.003105
     3  C   -0.391156
     4  C    0.074554
     5  C   -0.256398
     6  C   -0.007366
     7  C   -0.220623
     8  C   -0.033781
     9  C   -0.218619
    10  H    0.106114
    11  H    0.116958
    12  H    0.113342
    13  H    0.069508
    14  H    0.114007
    15  H    0.106818
    16  H    0.107664
    17  H    0.063145
    18  H    0.089859
    19  H    0.093566
    20  H    0.053576
    21  H    0.082551
    22  H    0.090454
    23  H    0.054735
    24  H    0.089155
    25  H    0.090095
 Sum of Mulliken charges =  -0.00000

 Dipole moment (field-independent basis, Debye):
    X=             -0.0285    Y=             -0.0157    Z=              0.0487  Tot=              0.0586
 Quadrupole moment (field-independent basis, Debye-Ang):
   XX=            -58.2263   YY=            -58.4202   ZZ=            -57.8533
   XY=             -0.2321   XZ=             -0.4850   YZ=             -0.0277

  Exact polarizability: 102.868  -0.445  87.426  -0.590  -0.612  85.018
 Approx polarizability: 133.160  -0.689 130.550  -0.623  -0.865 130.332

                      1                      2                      3
                      A                      A                      A
 Frequencies --     76.3364               172.7784               195.0581
 Red. masses --      2.6441                 2.7460                 2.4542
 Frc consts  --      0.0091                 0.0483                 0.0550
 IR Inten    --      0.0135                 0.0245                 0.0541

                      4                      5                      6
                      A                      A                      A
 Frequencies --    236.8114               288.8334               306.2182
 Red. masses --      1.1028                 2.0424                 1.1946
 Frc consts  --      0.0364                 0.1004                 0.0660
 IR Inten    --      0.0586                 0.1194                 0.0158

                      7                      8                      9
                      A                      A                      A
 Frequencies --    345.2870               413.3335               437.1427
 Red. masses --      2.4553                 1.8787                 2.4360
 Frc consts  --      0.1725                 0.1891                 0.2743
 IR Inten    --      0.0108                 0.4972                 0.2869

                     10                     11                     12
                      A                      A                      A
 Frequencies --    501.9306               572.1155               655.7729
 Red. masses --      1.9373                 2.2843                 2.7910
 Frc consts  --      0.2876                 0.4405                 0.7072
 IR Inten    --      0.0491                 0.1397                 0.0355

                     13                     14                     15
                      A                      A                      A
 Frequencies --    755.3424               825.5367               832.9497
 Red. masses --      2.6918                 2.8726                 3.3036
 Frc consts  --      0.9049                 1.1535                 1.3504
 IR Inten    --      0.0765                 1.0004                 2.3540

                     16                     17                     18
                      A                      A                      A
 Frequencies --    852.7221               864.9916               888.4270
 Red. masses --      2.1870                 2.1757                 2.3259
 Frc consts  --      0.9369                 0.9591                 1.0817
 IR Inten    --      0.3973                 1.6428                 0.0510

                     19                     20                     21
                      A                      A                      A
 Frequencies --    925.0418               943.0006               947.2079
 Red. masses --      1.1836                 2.0398                 1.3747
 Frc consts  --      0.5968                 1.0687                 0.7267
 IR Inten    --      0.5039                 0.5170                 0.1565

                     22                     23                     24
                      A                      A                      A
 Frequencies --    964.0127               974.3172              1002.4266
 Red. masses --      1.5300                 2.0175                 1.4973
 Frc consts  --      0.8377                 1.1284                 0.8865
 IR Inten    --      0.0736                 0.1006                 2.0640

                     25                     26                     27
                      A                      A                      A
 Frequencies --   1017.5500              1040.0366              1061.9731
 Red. masses --      1.7017                 2.9350                 1.3407
 Frc consts  --      1.0381                 1.8705                 0.8909
 IR Inten    --      1.9498                 0.6052                 0.1442

                     28                     29                     30
                      A                      A                      A
 Frequencies --   1083.8402              1086.3043              1113.3490
 Red. masses --      1.2181                 1.3324                 1.3996
 Frc consts  --      0.8430                 0.9264                 1.0222
 IR Inten    --      0.0681                 0.1785                 3.3642

                     31                     32                     33
                      A                      A                      A
 Frequencies --   1141.1709              1149.7414              1185.4394
 Red. masses --      1.5457                 1.7229                 1.5767
 Frc consts  --      1.1859                 1.3418                 1.3054
 IR Inten    --      2.3038                 0.6458                 0.8667

                     34                     35                     36
                      A                      A                      A
 Frequencies --   1213.4317              1225.2648              1243.7751
 Red. masses --      1.7723                 1.4156                 1.6114
 Frc consts  --      1.5375                 1.2522                 1.4687
 IR Inten    --      0.7745                 0.2317                 0.7699

                     37                     38                     39
                      A                      A                      A
 Frequencies --   1252.8187              1269.9139              1296.3267
 Red. masses --      1.6208                 1.5296                 1.5108
 Frc consts  --      1.4989                 1.4534                 1.4958
 IR Inten    --      4.7573                 0.6225                 0.3980

                     40                     41                     42
                      A                      A                      A
 Frequencies --   1305.4155              1333.2550              1344.9891
 Red. masses --      1.5020                 1.4165                 1.4461
 Frc consts  --      1.5080                 1.4835                 1.5413
 IR Inten    --      0.4768                 0.1592                 3.5270

                     43                     44                     45
                      A                      A                      A
 Frequencies --   1362.7334              1395.3674              1406.1145
 Red. masses --      1.5277                 1.2223                 1.3254
 Frc consts  --      1.6715                 1.4022                 1.5440
 IR Inten    --      4.9807                 2.6058                 4.5278

                     46                     47                     48
                      A                      A                      A
 Frequencies --   1425.8381              1484.9885              1491.4959
 Red. masses --      1.2648                 1.0633                 1.0696
 Frc consts  --      1.5150                 1.3814                 1.4018
 IR Inten    --      8.2463                 0.4212                 0.5282

                     49                     50                     51
                      A                      A                      A
 Frequencies --   1492.2460              1500.1265              1508.2436
 Red. masses --      1.0722                 1.0722                 1.0527
 Frc consts  --      1.4068                 1.4217                 1.4110
 IR Inten    --      2.2290                 0.6565                 8.8425

                     52                     53                     54
                      A                      A                      A
 Frequencies --   1512.2338              1530.4936              2985.5797
 Red. masses --      1.0628                 1.1147                 1.0824
 Frc consts  --      1.4321                 1.5384                 5.6848
 IR Inten    --      5.6639                 1.0903                21.1249

                     55                     56                     57
                      A                      A                      A
 Frequencies --   3009.1879              3024.9263              3032.2151
 Red. masses --      1.0835                 1.0352                 1.0362
 Frc consts  --      5.7808                 5.5812                 5.6133
 IR Inten    --     26.6467                28.9958                13.5449

                     58                     59                     60
                      A                      A                      A
 Frequencies --   3042.8778              3044.8335              3068.1050
 Red. masses --      1.0583                 1.0588                 1.0599
 Frc consts  --      5.7733                 5.7837                 5.8783
 IR Inten    --     57.4729                33.2930                25.7665

                     61                     62                     63
                      A                      A                      A
 Frequencies --   3084.7107              3089.3684              3094.0590
 Red. masses --      1.1055                 1.1007                 1.1004
 Frc consts  --      6.1980                 6.1895                 6.2068
 IR Inten    --     29.6298                 3.1644                57.1905

                     64                     65                     66
                      A                      A                      A
 Frequencies --   3096.5839              3101.3194              3103.9948
 Red. masses --      1.1010                 1.0896                 1.0987
 Frc consts  --      6.2201                 6.1746                 6.2369
 IR Inten    --     68.6340                70.7585                 4.0570

                     67                     68                     69
                      A                      A                      A
 Frequencies --   3106.3749              3111.0723              3132.1921
 Red. masses --      1.1004                 1.0978                 1.1049
 Frc consts  --      6.2560                 6.2602                 6.3866
 IR Inten    --     49.3778                53.4216                31.2493

 - Thermochemistry -
 -------------------
 Temperature   298.150 Kelvin.  Pressure   1.00000 Atm.
 Atom     1 has atomic number  6 and mass  12.00000

 Molecular mass:   124.12520 amu.
 Principal axes and moments of inertia in atomic units:
                           1         2         3
     Eigenvalues --   606.624741514.593391605.50625
           X            0.99999  -0.00096   0.00369
           Y            0.00107   0.99961  -0.02808
           Z           -0.00366   0.02809   0.99960
 This molecule is an asymmetric top.
 Rotational symmetry number  1.
 Warning -- assumption of classical behavior for rotation
           may cause significant error
 Rotational temperatures (Kelvin)      0.14278     0.05719     0.05395
 Rotational constants (GHZ):           2.97505     1.19157     1.12409
 Zero-point vibrational energy     607580.2 (Joules/Mol)
                                  145.21515 (Kcal/Mol)
 Warning -- explicit consideration of  11 degrees of freedom as
           vibrations may cause significant error
 Vibrational temperatures:    109.83   248.59   280.65   340.72   415.57
          (Kelvin)            440.58   496.79   594.69   628.95   722.17
                              823.15   943.51  1086.77  1187.76  1198.43
                             1226.88  1244.53  1278.25  1330.93  1356.77
                             1362.82  1387.00  1401.83  1442.27  1464.03
                             1496.38  1527.94  1559.40  1562.95  1601.86
                             1641.89  1654.22  1705.58  1745.86  1762.88
                             1789.51  1802.53  1827.12  1865.12  1878.20
                             1918.26  1935.14  1960.67  2007.62  2023.09
                             2051.46  2136.57  2145.93  2147.01  2158.35
                             2170.03  2175.77  2202.04  4295.58  4329.55
                             4352.19  4362.68  4378.02  4380.84  4414.32
                             4438.21  4444.91  4451.66  4455.29  4462.11
                             4465.96  4469.38  4476.14  4506.53

 Zero-point correction=                           0.231415 (Hartree/Particle)
 Thermal correction to Energy=                    0.240105
 Thermal correction to Enthalpy=                  0.241049
 Thermal correction to Gibbs Free Energy=         0.198469
 Sum of electronic and zero-point Energies=           -352.352599
 Sum of electronic and thermal Energies=              -352.343909
 Sum of electronic and thermal Enthalpies=            -352.342965
 Sum of electronic and thermal Free Energies=         -352.385546

                     E (Thermal)             CV                S
                      KCal/Mol        Cal/Mol-Kelvin    Cal/Mol-Kelvin
 Total                  150.668             35.544             89.619
 Electronic               0.000              0.000              0.000
 Translational            0.889              2.981             40.362
 Rotational               0.889              2.981             28.780
 Vibrational            148.891             29.583             20.477
 Vibration     1          0.599              1.965              3.983
 Vibration     2          0.626              1.876              2.405
 Vibration     3          0.636              1.847              2.179
 Vibration     4          0.656              1.784              1.827
 Vibration     5          0.685              1.694              1.481
 Vibration     6          0.697              1.662              1.383
 Vibration     7          0.724              1.585              1.188
 Vibration     8          0.777              1.441              0.915
 Vibration     9          0.797              1.389              0.836
 Vibration    10          0.857              1.246              0.653
 Vibration    11          0.928              1.092              0.500

 Optimization completed.
    -- Stationary point found.
 Normal termination of Gaussian 16 at Sun May 28 11:12:49 2023.
