 Gaussian 16, Revision A.03,
 Gaussian 16:  ES64L-G16RevA.03 25-Dec-2016

 -----------------------------
 # opt freq b3lyp/6-31g(2df,p)
 -----------------------------

 -------------------
 Title Card Required
 -------------------
 Symbolic Z-matrix:
 Charge =  0 Multiplicity = 1

 SCF Done:  E(RB3LYP) =  -582.867978871     A.U. after   12 cycles
 SCF Done:  E(RB3LYP) =  -582.875577390     A.U. after   11 cycles
 SCF Done:  E(RB3LYP) =  -582.878815800     A.U. after   11 cycles
 SCF Done:  E(RB3LYP) =  -582.880048124     A.U. after   10 cycles
 SCF Done:  E(RB3LYP) =  -582.880392899     A.U. after   10 cycles
 SCF Done:  E(RB3LYP) =  -582.880509978     A.U. after   10 cycles
 SCF Done:  E(RB3LYP) =  -582.880561412     A.U. after    9 cycles
 SCF Done:  E(RB3LYP) =  -582.880601459     A.U. after    9 cycles
 SCF Done:  E(RB3LYP) =  -582.880631832     A.U. after    9 cycles
 SCF Done:  E(RB3LYP) =  -582.880654595     A.U. after   10 cycles
 SCF Done:  E(RB3LYP) =  -582.880658116     A.U. after    9 cycles
 SCF Done:  E(RB3LYP) =  -582.880659139     A.U. after    7 cycles
 SCF Done:  E(RB3LYP) =  -582.880659222     A.U. after    7 cycles
 SCF Done:  E(RB3LYP) =  -582.880659257     A.U. after    6 cycles
 Optimization completed.
    -- Stationary point found.
 Normal termination of Gaussian 16 at Mon May 22 15:36:47 2023.

 ----------------------------------------------------------------------
 #N Geom=AllCheck Guess=TCheck SCRF=Check GenChk RB3LYP/6-31G(2df,p) Fr
 eq
 ----------------------------------------------------------------------

 Structure from the checkpoint file:  "CCqCrCCOCC1qCrOCC1C.chk"
 -------------------
 Title Card Required
 -------------------
 Charge =  0 Multiplicity = 1

                         Standard orientation:
 ---------------------------------------------------------------------
 Center     Atomic      Atomic             Coordinates (Angstroms)
 Number     Number       Type             X           Y           Z
 ---------------------------------------------------------------------
      1          6           0        4.736350   -1.356989    0.129741
      2          6           0        3.854836   -0.120451    0.352607
      3          6           0        4.396089    1.076240   -0.444178
      4          6           0        2.389404   -0.443834    0.012782
      5          6           0        1.395540    0.652420    0.377090
      6          8           0        0.091958    0.173840    0.115889
      7          6           0       -0.920565    1.109893    0.398515
      8          6           0       -2.279219    0.555781   -0.023636
      9          6           0       -3.385830    1.522331    0.378022
     10          8           0       -2.295086    0.315789   -1.456223
     11          6           0       -2.433847   -1.106643   -1.273418
     12          6           0       -2.479979   -0.969013    0.262027
     13          6           0       -3.745290   -1.439109    0.965800
     14          1           0        5.777248   -1.155981    0.403941
     15          1           0        4.723719   -1.661048   -0.923793
     16          1           0        4.389301   -2.207961    0.725072
     17          1           0        3.902841    0.136033    1.421356
     18          1           0        4.336547    0.884601   -1.522419
     19          1           0        5.446671    1.264351   -0.199066
     20          1           0        3.841494    1.996683   -0.239095
     21          1           0        2.086236   -1.354986    0.542632
     22          1           0        2.295655   -0.661886   -1.058996
     23          1           0        1.579556    1.569040   -0.205685
     24          1           0        1.497013    0.922631    1.443534
     25          1           0       -0.742604    2.048380   -0.153133
     26          1           0       -0.934089    1.354741    1.475660
     27          1           0       -3.187068    2.514539   -0.041044
     28          1           0       -3.458778    1.618965    1.466366
     29          1           0       -4.350987    1.187533   -0.007029
     30          1           0       -1.572971   -1.653939   -1.674160
     31          1           0       -3.353083   -1.488537   -1.738081
     32          1           0       -1.599825   -1.396883    0.743474
     33          1           0       -4.651993   -1.065746    0.479559
     34          1           0       -3.767972   -1.117821    2.012822
     35          1           0       -3.796824   -2.533494    0.958646
 ---------------------------------------------------------------------

 SCF Done:  E(RB3LYP) =  -582.880659257     A.U. after    1 cycles

 The electronic state is 1-A.
 Alpha  occ. eigenvalues --  -19.13661 -19.11693 -10.23083 -10.22335 -10.22106
 Alpha  occ. eigenvalues --  -10.21432 -10.18766 -10.18107 -10.17541 -10.17466
 Alpha  occ. eigenvalues --  -10.17299 -10.17136 -10.17053  -1.03717  -1.01760
 Alpha  occ. eigenvalues --   -0.80910  -0.78028  -0.75592  -0.72816  -0.68056
 Alpha  occ. eigenvalues --   -0.67088  -0.65837  -0.61545  -0.60888  -0.55836
 Alpha  occ. eigenvalues --   -0.51017  -0.49142  -0.48938  -0.48451  -0.46412
 Alpha  occ. eigenvalues --   -0.44957  -0.44212  -0.42871  -0.42046  -0.40839
 Alpha  occ. eigenvalues --   -0.40264  -0.39371  -0.38513  -0.38137  -0.37831
 Alpha  occ. eigenvalues --   -0.37296  -0.35882  -0.35177  -0.34136  -0.33404
 Alpha  occ. eigenvalues --   -0.32361  -0.31957  -0.30953  -0.29234  -0.28342
 Alpha  occ. eigenvalues --   -0.25193  -0.23574
 Alpha virt. eigenvalues --    0.08140   0.08636   0.09400   0.10200   0.11718
 Alpha virt. eigenvalues --    0.12225   0.12808   0.13603   0.13985   0.14902
 Alpha virt. eigenvalues --    0.15284   0.15470   0.16245   0.16407   0.16935

 Mulliken charges:
               1
     1  C   -0.387923
     2  C    0.039564
     3  C   -0.381572
     4  C   -0.185815
     5  C   -0.058278
     6  O   -0.252388
     7  C   -0.092532
     8  C    0.380582
     9  C   -0.445742
    10  O   -0.324496
    11  C   -0.077050
    12  C   -0.062272
    13  C   -0.422486
    14  H    0.108476
    15  H    0.113138
    16  H    0.109773
    17  H    0.070458
    18  H    0.113948
    19  H    0.110095
    20  H    0.113761
    21  H    0.098291
    22  H    0.102538
    23  H    0.089933
    24  H    0.080142
    25  H    0.093142
    26  H    0.078213
    27  H    0.121734
    28  H    0.114206
    29  H    0.123374
    30  H    0.101709
    31  H    0.087962
    32  H    0.089897
    33  H    0.117860
    34  H    0.115043
    35  H    0.116714
 Sum of Mulliken charges =  -0.00000

 Dipole moment (field-independent basis, Debye):
    X=              0.4412    Y=             -0.0588    Z=              1.7535  Tot=              1.8091
 Quadrupole moment (field-independent basis, Debye-Ang):
   XX=            -79.2047   YY=            -80.5906   ZZ=            -84.6837
   XY=              1.8440   XZ=             -2.8670   YZ=              2.1588

  Exact polarizability: 148.932   0.194 122.816  -2.460   2.855 110.045
 Approx polarizability: 173.161   1.178 174.246   0.258   3.384 170.271

                      1                      2                      3
                      A                      A                      A
 Frequencies --     23.1765                32.0813                50.5837
 Red. masses --      2.6858                 3.2207                 2.8885
 Frc consts  --      0.0008                 0.0020                 0.0044
 IR Inten    --      0.1168                 0.2128                 0.7025

                      4                      5                      6
                      A                      A                      A
 Frequencies --     67.9479                98.8548               108.4438
 Red. masses --      3.3153                 1.9534                 2.8415
 Frc consts  --      0.0090                 0.0112                 0.0197
 IR Inten    --      0.3136                 1.0758                 2.3075

                      7                      8                      9
                      A                      A                      A
 Frequencies --    150.6843               164.2343               187.7888
 Red. masses --      3.2155                 2.5269                 1.2374
 Frc consts  --      0.0430                 0.0402                 0.0257
 IR Inten    --      0.0261                 2.6723                 0.7693

                     10                     11                     12
                      A                      A                      A
 Frequencies --    219.6657               225.0466               235.6393
 Red. masses --      1.2086                 1.0763                 2.2780
 Frc consts  --      0.0344                 0.0321                 0.0745
 IR Inten    --      0.0627                 0.0411                 0.2544

                     13                     14                     15
                      A                      A                      A
 Frequencies --    255.6919               265.1726               284.5429
 Red. masses --      1.3131                 2.1982                 1.8284
 Frc consts  --      0.0506                 0.0911                 0.0872
 IR Inten    --      0.4458                 1.2909                 0.5309

                     16                     17                     18
                      A                      A                      A
 Frequencies --    315.7456               363.1931               393.4487
 Red. masses --      3.1432                 2.5069                 2.3902
 Frc consts  --      0.1846                 0.1948                 0.2180
 IR Inten    --      0.4470                 0.8145                 1.6604

                     19                     20                     21
                      A                      A                      A
 Frequencies --    406.5646               416.0915               458.5649
 Red. masses --      2.2802                 2.2416                 2.8841
 Frc consts  --      0.2221                 0.2287                 0.3573
 IR Inten    --      1.2726                 0.8832                 0.4204

                     22                     23                     24
                      A                      A                      A
 Frequencies --    486.0336               582.1968               685.3022
 Red. masses --      2.6883                 4.0465                 3.3115
 Frc consts  --      0.3742                 0.8081                 0.9163
 IR Inten    --      1.6728                 7.3937                 2.4358

                     25                     26                     27
                      A                      A                      A
 Frequencies --    750.4552               794.3559               833.2327
 Red. masses --      2.6558                 1.2625                 2.2425
 Frc consts  --      0.8812                 0.4694                 0.9173
 IR Inten    --      0.4540                 0.3761                 1.3355

                     28                     29                     30
                      A                      A                      A
 Frequencies --    871.2654               897.0637               920.9378
 Red. masses --      3.1782                 2.1355                 1.2473
 Frc consts  --      1.4214                 1.0125                 0.6233
 IR Inten    --     25.6833                 0.5341                 1.4389

                     31                     32                     33
                      A                      A                      A
 Frequencies --    923.3440               927.9165               951.0717
 Red. masses --      1.7354                 1.1847                 1.6673
 Frc consts  --      0.8717                 0.6010                 0.8886
 IR Inten    --      0.1330                 1.0945                 2.4804

                     34                     35                     36
                      A                      A                      A
 Frequencies --    965.9839               980.9251               997.7290
 Red. masses --      1.4236                 1.4161                 1.4444
 Frc consts  --      0.7827                 0.8028                 0.8472
 IR Inten    --      0.0246                 1.5859                 0.6902

                     37                     38                     39
                      A                      A                      A
 Frequencies --   1023.5478              1036.3316              1046.4295
 Red. masses --      3.2453                 3.8855                 2.3461
 Frc consts  --      2.0032                 2.4586                 1.5136
 IR Inten    --     35.9485                90.5899                 6.3420

                     40                     41                     42
                      A                      A                      A
 Frequencies --   1065.1791              1115.9244              1146.0261
 Red. masses --      2.8125                 2.2530                 1.9925
 Frc consts  --      1.8801                 1.6530                 1.5419
 IR Inten    --      0.8115                 3.4527                 5.5235

                     43                     44                     45
                      A                      A                      A
 Frequencies --   1154.3075              1159.0725              1162.8448
 Red. masses --      2.3514                 1.9636                 3.8708
 Frc consts  --      1.8459                 1.5543                 3.0839
 IR Inten    --     29.4983                49.0533               211.0077

                     46                     47                     48
                      A                      A                      A
 Frequencies --   1182.2440              1192.7430              1196.4259
 Red. masses --      1.6418                 1.8818                 1.8618
 Frc consts  --      1.3520                 1.5773                 1.5702
 IR Inten    --      4.5124                 2.5451                 1.0756

                     49                     50                     51
                      A                      A                      A
 Frequencies --   1218.2839              1237.0940              1252.0394
 Red. masses --      2.3753                 2.1176                 1.3525
 Frc consts  --      2.0771                 1.9094                 1.2491
 IR Inten    --      2.7375                12.9366                 7.1520

                     52                     53                     54
                      A                      A                      A
 Frequencies --   1285.4423              1299.2800              1302.8579
 Red. masses --      1.1745                 1.5899                 1.2874
 Frc consts  --      1.1434                 1.5813                 1.2875
 IR Inten    --      6.0954                 7.5870                 2.0995

                     55                     56                     57
                      A                      A                      A
 Frequencies --   1314.2200              1345.8117              1364.1935
 Red. masses --      1.1158                 1.3280                 1.3775
 Frc consts  --      1.1355                 1.4171                 1.5104
 IR Inten    --      0.3002                 4.7440                 4.9525

                     58                     59                     60
                      A                      A                      A
 Frequencies --   1373.9383              1383.5098              1397.5150
 Red. masses --      1.3868                 1.5946                 1.4021
 Frc consts  --      1.5424                 1.7984                 1.6134
 IR Inten    --      0.5197                 7.4388                26.7367

                     61                     62                     63
                      A                      A                      A
 Frequencies --   1401.5056              1404.2971              1414.7777
 Red. masses --      1.2565                 1.3580                 1.2348
 Frc consts  --      1.4541                 1.5779                 1.4562
 IR Inten    --      4.3013                 6.0961                10.1612

                     64                     65                     66
                      A                      A                      A
 Frequencies --   1422.4575              1446.7892              1478.2366
 Red. masses --      1.2326                 1.4662                 1.0590
 Frc consts  --      1.4694                 1.8083                 1.3634
 IR Inten    --      1.4829                 7.1982                 2.8231

                     67                     68                     69
                      A                      A                      A
 Frequencies --   1483.2830              1487.4744              1489.6500
 Red. masses --      1.0708                 1.0542                 1.0496
 Frc consts  --      1.3880                 1.3742                 1.3723
 IR Inten    --      0.5626                 3.5093                 0.8598

                     70                     71                     72
                      A                      A                      A
 Frequencies --   1494.3433              1498.5911              1500.0659
 Red. masses --      1.0811                 1.0685                 1.0608
 Frc consts  --      1.4224                 1.4139                 1.4065
 IR Inten    --      6.8559                 0.6485                 4.3874

                     73                     74                     75
                      A                      A                      A
 Frequencies --   1505.6719              1507.5890              1510.9522
 Red. masses --      1.0568                 1.0488                 1.0505
 Frc consts  --      1.4116                 1.4044                 1.4130
 IR Inten    --      3.0031                11.1052                 6.3794

                     76                     77                     78
                      A                      A                      A
 Frequencies --   1520.6314              1531.5694              2938.4732
 Red. masses --      1.1020                 1.0948                 1.0584
 Frc consts  --      1.5014                 1.5131                 5.3843
 IR Inten    --      1.6456                 1.4150                20.1992

                     79                     80                     81
                      A                      A                      A
 Frequencies --   2948.7998              2981.8312              2986.0437
 Red. masses --      1.0625                 1.1005                 1.0946
 Frc consts  --      5.4436                 5.7653                 5.7504
 IR Inten    --     81.7145                47.1053                27.2621

                     82                     83                     84
                      A                      A                      A
 Frequencies --   2992.2171              3003.7361              3021.8612
 Red. masses --      1.0817                 1.0588                 1.0468
 Frc consts  --      5.7064                 5.6283                 5.6322
 IR Inten    --     19.5506                77.0800                12.6820

                     85                     86                     87
                      A                      A                      A
 Frequencies --   3024.1433              3029.1403              3029.8087
 Red. masses --      1.0428                 1.0356                 1.0417
 Frc consts  --      5.6187                 5.5988                 5.6341
 IR Inten    --     41.4865                25.6430                23.1531

                     88                     89                     90
                      A                      A                      A
 Frequencies --   3037.8418              3054.3778              3066.0751
 Red. masses --      1.0371                 1.1058                 1.1036
 Frc consts  --      5.6388                 6.0781                 6.1128
 IR Inten    --     18.5603                42.4802                29.6047

                     91                     92                     93
                      A                      A                      A
 Frequencies --   3088.0275              3090.0806              3092.6023
 Red. masses --      1.1006                 1.0969                 1.0973
 Frc consts  --      6.1837                 6.1710                 6.1834
 IR Inten    --      4.9896                12.6735                13.5012

                     94                     95                     96
                      A                      A                      A
 Frequencies --   3094.1762              3098.7442              3102.2494
 Red. masses --      1.1002                 1.1015                 1.1008
 Frc consts  --      6.2058                 6.2318                 6.2420
 IR Inten    --     64.6527                38.9835                21.9491

                     97                     98                     99
                      A                      A                      A
 Frequencies --   3103.9613              3112.1850              3129.5158
 Red. masses --      1.1002                 1.0934                 1.0995
 Frc consts  --      6.2456                 6.2394                 6.3444
 IR Inten    --     41.0714                33.0283                26.9608

 - Thermochemistry -
 -------------------
 Temperature   298.150 Kelvin.  Pressure   1.00000 Atm.
 Atom     1 has atomic number  6 and mass  12.00000

 Molecular mass:   186.16198 amu.
 Principal axes and moments of inertia in atomic units:
                           1         2         3
     Eigenvalues --  1059.680956278.273856620.65578
           X            0.99996   0.00099  -0.00861
           Y           -0.00085   0.99986   0.01661
           Z            0.00862  -0.01660   0.99982
 This molecule is an asymmetric top.
 Rotational symmetry number  1.
 Warning -- assumption of classical behavior for rotation
           may cause significant error
 Rotational temperatures (Kelvin)      0.08174     0.01380     0.01308
 Rotational constants (GHZ):           1.70310     0.28746     0.27259
 Zero-point vibrational energy     829430.9 (Joules/Mol)
                                  198.23874 (Kcal/Mol)
 Warning -- explicit consideration of  23 degrees of freedom as
           vibrations may cause significant error
 Vibrational temperatures:     33.35    46.16    72.78    97.76   142.23
          (Kelvin)            156.03   216.80   236.30   270.19   316.05
                              323.79   339.03   367.88   381.52   409.39
                              454.29   522.55   566.08   584.96   598.66
                              659.77   699.29   837.65   986.00  1079.74
                             1142.90  1198.84  1253.56  1290.67  1325.02
                             1328.49  1335.06  1368.38  1389.84  1411.33
                             1435.51  1472.66  1491.05  1505.58  1532.56
                             1605.57  1648.88  1660.79  1667.65  1673.07
                             1700.99  1716.09  1721.39  1752.84  1779.90
                             1801.41  1849.46  1869.37  1874.52  1890.87
                             1936.32  1962.77  1976.79  1990.56  2010.71
                             2016.45  2020.47  2035.55  2046.60  2081.61
                             2126.85  2134.11  2140.14  2143.27  2150.03
                             2156.14  2158.26  2166.33  2169.08  2173.92
                             2187.85  2203.59  4227.81  4242.67  4290.19
                             4296.25  4305.13  4321.71  4347.78  4351.07
                             4358.26  4359.22  4370.78  4394.57  4411.40
                             4442.98  4445.94  4449.56  4451.83  4458.40
                             4463.44  4465.91  4477.74  4502.68

 Zero-point correction=                           0.315914 (Hartree/Particle)
 Thermal correction to Energy=                    0.331998
 Thermal correction to Enthalpy=                  0.332942
 Thermal correction to Gibbs Free Energy=         0.271164
 Sum of electronic and zero-point Energies=           -582.564746
 Sum of electronic and thermal Energies=              -582.548662
 Sum of electronic and thermal Enthalpies=            -582.547717
 Sum of electronic and thermal Free Energies=         -582.609495

                     E (Thermal)             CV                S
                      KCal/Mol        Cal/Mol-Kelvin    Cal/Mol-Kelvin
 Total                  208.332             58.490            130.021
 Electronic               0.000              0.000              0.000
 Translational            0.889              2.981             41.570
 Rotational               0.889              2.981             32.155
 Vibrational            206.554             52.529             56.296
 Vibration     1          0.593              1.985              6.342
 Vibration     2          0.594              1.983              5.696
 Vibration     3          0.595              1.977              4.794
 Vibration     4          0.598              1.969              4.212
 Vibration     5          0.604              1.950              3.477
 Vibration     6          0.606              1.942              3.297
 Vibration     7          0.618              1.902              2.664
 Vibration     8          0.623              1.886              2.500
 Vibration     9          0.632              1.857              2.250
 Vibration    10          0.647              1.811              1.962
 Vibration    11          0.650              1.803              1.918
 Vibration    12          0.655              1.786              1.836
 Vibration    13          0.666              1.753              1.691
 Vibration    14          0.671              1.737              1.627
 Vibration    15          0.683              1.702              1.506
 Vibration    16          0.703              1.644              1.332
 Vibration    17          0.737              1.548              1.108
 Vibration    18          0.761              1.484              0.987
 Vibration    19          0.771              1.456              0.939
 Vibration    20          0.779              1.435              0.905
 Vibration    21          0.817              1.342              0.770
 Vibration    22          0.842              1.281              0.694
 Vibration    23          0.939              1.070              0.481

                           ! Non-Optimized Parameters !
 Normal termination of Gaussian 16 at Mon May 22 17:21:10 2023.
