 Gaussian 16, Revision A.03,
 Gaussian 16:  ES64L-G16RevA.03 25-Dec-2016

 -----------------------------
 # opt freq b3lyp/6-31g(2df,p)
 -----------------------------

 -------------------
 Title Card Required
 -------------------
 Symbolic Z-matrix:
 Charge =  0 Multiplicity = 1

 SCF Done:  E(RB3LYP) =  -352.458775532     A.U. after   12 cycles
 SCF Done:  E(RB3LYP) =  -352.493705266     A.U. after   11 cycles
 SCF Done:  E(RB3LYP) =  -352.514594536     A.U. after   11 cycles
 SCF Done:  E(RB3LYP) =  -352.519416138     A.U. after   10 cycles
 SCF Done:  E(RB3LYP) =  -352.521243788     A.U. after   11 cycles
 SCF Done:  E(RB3LYP) =  -352.528609186     A.U. after   11 cycles
 SCF Done:  E(RB3LYP) =  -352.532547104     A.U. after   10 cycles
 SCF Done:  E(RB3LYP) =  -352.533612759     A.U. after   10 cycles
 SCF Done:  E(RB3LYP) =  -352.533857664     A.U. after   10 cycles
 SCF Done:  E(RB3LYP) =  -352.534483985     A.U. after    9 cycles
 SCF Done:  E(RB3LYP) =  -352.534893489     A.U. after    8 cycles
 SCF Done:  E(RB3LYP) =  -352.534918583     A.U. after    8 cycles
 SCF Done:  E(RB3LYP) =  -352.534930378     A.U. after    8 cycles
 SCF Done:  E(RB3LYP) =  -352.534931488     A.U. after    7 cycles
 SCF Done:  E(RB3LYP) =  -352.534931738     A.U. after    8 cycles
 SCF Done:  E(RB3LYP) =  -352.534931715     A.U. after    6 cycles
 SCF Done:  E(RB3LYP) =  -352.534931697     A.U. after    5 cycles
 SCF Done:  E(RB3LYP) =  -352.534931693     A.U. after    5 cycles
 SCF Done:  E(RB3LYP) =  -352.534931707     A.U. after    5 cycles
 Optimization completed.
    -- Stationary point found.
 Normal termination of Gaussian 16 at Sun May 28 08:57:13 2023.

 ----------------------------------------------------------------------
 #N Geom=AllCheck Guess=TCheck SCRF=Check GenChk RB3LYP/6-31G(2df,p) Fr
 eq
 ----------------------------------------------------------------------

 Structure from the checkpoint file:  "CCqCrC1C2CC1C2C.chk"
 -------------------
 Title Card Required
 -------------------
 Charge =  0 Multiplicity = 1

                         Standard orientation:
 ---------------------------------------------------------------------
 Center     Atomic      Atomic             Coordinates (Angstroms)
 Number     Number       Type             X           Y           Z
 ---------------------------------------------------------------------
      1          6           0       -2.394327   -0.590498   -1.024013
      2          6           0       -1.422156    0.197886   -0.130524
      3          6           0       -2.098743    0.604775    1.186474
      4          6           0       -0.179066   -0.658440    0.135926
      5          6           0        1.055404   -0.723358   -0.820868
      6          6           0        1.776328   -1.486418    0.330834
      7          6           0        1.073139   -0.270000    1.005390
      8          6           0        1.645661    0.581533   -0.174228
      9          6           0        1.205585    2.014505   -0.473361
     10          1           0       -3.276401    0.009464   -1.271430
     11          1           0       -2.741228   -1.500897   -0.520450
     12          1           0       -1.918380   -0.891223   -1.963272
     13          1           0       -1.157672    1.104942   -0.677249
     14          1           0       -2.359492   -0.279971    1.779979
     15          1           0       -3.022392    1.163740    1.001879
     16          1           0       -1.442455    1.231051    1.799472
     17          1           0       -0.541647   -1.659992    0.408510
     18          1           0        1.057669   -0.989426   -1.880775
     19          1           0        2.869084   -1.471906    0.320312
     20          1           0        1.387994   -2.477498    0.577380
     21          1           0        1.088544   -0.017696    2.068138
     22          1           0        2.741818    0.560032   -0.199922
     23          1           0        0.234608    2.281750   -0.057339
     24          1           0        1.174734    2.205436   -1.552429
     25          1           0        1.934272    2.712283   -0.046586
 ---------------------------------------------------------------------

 SCF Done:  E(RB3LYP) =  -352.534931707     A.U. after    1 cycles

 The electronic state is 1-A.
 Alpha  occ. eigenvalues --  -10.19199 -10.19179 -10.18659 -10.18222 -10.17986
 Alpha  occ. eigenvalues --  -10.17906 -10.16941 -10.16815 -10.16753  -0.90226
 Alpha  occ. eigenvalues --   -0.78756  -0.72922  -0.67711  -0.65406  -0.61542
 Alpha  occ. eigenvalues --   -0.61488  -0.56628  -0.51842  -0.48818  -0.44569
 Alpha  occ. eigenvalues --   -0.44171  -0.42147  -0.40534  -0.40124  -0.38651
 Alpha  occ. eigenvalues --   -0.38072  -0.37447  -0.34050  -0.33599  -0.32110
 Alpha  occ. eigenvalues --   -0.30845  -0.30172  -0.29054  -0.28934  -0.28113
 Alpha virt. eigenvalues --    0.08734   0.11145   0.11424   0.11931   0.12938
 Alpha virt. eigenvalues --    0.13806   0.14215   0.14908   0.16157   0.16408
 Alpha virt. eigenvalues --    0.17418   0.17655   0.17936   0.18705   0.19426

 Mulliken charges:
               1
     1  C   -0.391524
     2  C   -0.031286
     3  C   -0.384194
     4  C    0.108706
     5  C   -0.097061
     6  C   -0.224895
     7  C   -0.104694
     8  C    0.080469
     9  C   -0.451012
    10  H    0.106603
    11  H    0.110441
    12  H    0.111835
    13  H    0.074698
    14  H    0.110066
    15  H    0.106903
    16  H    0.112477
    17  H    0.054070
    18  H    0.060839
    19  H    0.085574
    20  H    0.086167
    21  H    0.062200
    22  H    0.061392
    23  H    0.126468
    24  H    0.115073
    25  H    0.110686
 Sum of Mulliken charges =  -0.00000

 Dipole moment (field-independent basis, Debye):
    X=              0.0065    Y=              0.1944    Z=             -0.0646  Tot=              0.2049
 Quadrupole moment (field-independent basis, Debye-Ang):
   XX=            -58.3523   YY=            -58.2362   ZZ=            -58.3015
   XY=              0.2147   XZ=             -0.0458   YZ=             -0.2301

  Exact polarizability: 103.120  -0.166  92.815   0.462  -0.568  84.869
 Approx polarizability: 135.893   0.941 133.639   0.209  -0.937 130.159

                      1                      2                      3
                      A                      A                      A
 Frequencies --     41.1886                73.2403               146.2975
 Red. masses --      2.0753                 1.4229                 2.6451
 Frc consts  --      0.0021                 0.0045                 0.0334
 IR Inten    --      0.0331                 0.0170                 0.0043

                      4                      5                      6
                      A                      A                      A
 Frequencies --    212.5040               230.9979               250.3221
 Red. masses --      1.5325                 1.1688                 1.2227
 Frc consts  --      0.0408                 0.0367                 0.0451
 IR Inten    --      0.0904                 0.0240                 0.0127

                      7                      8                      9
                      A                      A                      A
 Frequencies --    289.3977               303.6493               331.8946
 Red. masses --      2.2405                 2.3144                 2.4285
 Frc consts  --      0.1106                 0.1257                 0.1576
 IR Inten    --      0.1451                 0.0163                 0.4389

                     10                     11                     12
                      A                      A                      A
 Frequencies --    431.4556               441.1867               541.2280
 Red. masses --      2.8951                 2.5216                 2.2540
 Frc consts  --      0.3175                 0.2892                 0.3890
 IR Inten    --      0.4564                 0.1146                 0.0057

                     13                     14                     15
                      A                      A                      A
 Frequencies --    606.7265               746.9680               791.9560
 Red. masses --      3.4304                 3.0017                 2.1050
 Frc consts  --      0.7440                 0.9868                 0.7779
 IR Inten    --      0.0802                 0.0349                 0.3035

                     16                     17                     18
                      A                      A                      A
 Frequencies --    809.5889               848.0421               882.0804
 Red. masses --      2.6989                 2.0554                 2.3347
 Frc consts  --      1.0422                 0.8709                 1.0703
 IR Inten    --      0.0107                 1.7191                 0.3054

                     19                     20                     21
                      A                      A                      A
 Frequencies --    886.9506               890.4378               929.4083
 Red. masses --      2.1854                 2.3746                 1.1970
 Frc consts  --      1.0129                 1.1093                 0.6092
 IR Inten    --      0.7007                 0.0344                 0.8716

                     22                     23                     24
                      A                      A                      A
 Frequencies --    968.2716              1009.2964              1015.0563
 Red. masses --      1.4515                 1.2369                 1.4617
 Frc consts  --      0.8018                 0.7424                 0.8873
 IR Inten    --      0.0006                 3.1464                 3.1672

                     25                     26                     27
                      A                      A                      A
 Frequencies --   1030.2917              1046.3687              1059.7105
 Red. masses --      1.0607                 1.9378                 1.6241
 Frc consts  --      0.6634                 1.2501                 1.0746
 IR Inten    --      0.2122                 2.6726                 3.7282

                     28                     29                     30
                      A                      A                      A
 Frequencies --   1075.6772              1113.6486              1133.3047
 Red. masses --      1.4726                 1.5080                 2.1727
 Frc consts  --      1.0039                 1.1019                 1.6442
 IR Inten    --      0.6022                 0.1295                 0.3100

                     31                     32                     33
                      A                      A                      A
 Frequencies --   1138.8691              1167.4275              1173.7751
 Red. masses --      2.0869                 2.4666                 2.3288
 Frc consts  --      1.5948                 1.9807                 1.8904
 IR Inten    --      1.0259                 2.5829                 0.3799

                     34                     35                     36
                      A                      A                      A
 Frequencies --   1177.4869              1201.1863              1224.5490
 Red. masses --      1.4176                 1.9213                 1.4498
 Frc consts  --      1.1580                 1.6333                 1.2809
 IR Inten    --      0.3013                 2.6019                 0.2450

                     37                     38                     39
                      A                      A                      A
 Frequencies --   1234.0395              1252.0335              1284.1783
 Red. masses --      1.8009                 1.6630                 1.9023
 Frc consts  --      1.6159                 1.5360                 1.8483
 IR Inten    --      1.8983                 9.9042                 1.2299

                     40                     41                     42
                      A                      A                      A
 Frequencies --   1334.0814              1351.7052              1396.6129
 Red. masses --      1.4587                 1.3187                 1.2365
 Frc consts  --      1.5296                 1.4195                 1.4210
 IR Inten    --      3.6243                 3.1561                 4.2820

                     43                     44                     45
                      A                      A                      A
 Frequencies --   1412.4716              1415.8798              1432.4430
 Red. masses --      1.2133                 1.2303                 1.2334
 Frc consts  --      1.4261                 1.4532                 1.4911
 IR Inten    --      0.2559                 0.8129                 7.4363

                     46                     47                     48
                      A                      A                      A
 Frequencies --   1459.5499              1486.8941              1490.5379
 Red. masses --      1.1999                 1.0448                 1.0485
 Frc consts  --      1.5060                 1.3609                 1.3724
 IR Inten    --      3.2639                 0.1239                 2.6003

                     49                     50                     51
                      A                      A                      A
 Frequencies --   1495.0047              1504.1885              1508.1416
 Red. masses --      1.0485                 1.0527                 1.0567
 Frc consts  --      1.3807                 1.4033                 1.4160
 IR Inten    --      3.6545                 5.0226                 4.0069

                     52                     53                     54
                      A                      A                      A
 Frequencies --   1513.4871              1527.7679              2990.0692
 Red. masses --      1.0502                 1.1435                 1.0817
 Frc consts  --      1.4174                 1.5725                 5.6978
 IR Inten    --      5.5747                 1.3279                41.1539

                     55                     56                     57
                      A                      A                      A
 Frequencies --   3017.2678              3020.7643              3025.0339
 Red. masses --      1.0801                 1.0352                 1.0363
 Frc consts  --      5.7933                 5.5653                 5.5874
 IR Inten    --     35.0638                25.5861                27.2238

                     58                     59                     60
                      A                      A                      A
 Frequencies --   3035.2570              3051.8453              3074.6848
 Red. masses --      1.0449                 1.0545                 1.0893
 Frc consts  --      5.6719                 5.7868                 6.0675
 IR Inten    --     36.3004                51.9034                 8.1582

                     61                     62                     63
                      A                      A                      A
 Frequencies --   3076.7155              3084.4307              3085.5239
 Red. masses --      1.0894                 1.0978                 1.1004
 Frc consts  --      6.0758                 6.1534                 6.1726
 IR Inten    --    103.0557                12.5796                 5.8738

                     64                     65                     66
                      A                      A                      A
 Frequencies --   3086.1677              3096.4967              3098.7760
 Red. masses --      1.0937                 1.1016                 1.1013
 Frc consts  --      6.1376                 6.2232                 6.2307
 IR Inten    --     25.4506                26.2624                53.4396

                     67                     68                     69
                      A                      A                      A
 Frequencies --   3103.8627              3118.8943              3145.6534
 Red. masses --      1.0941                 1.1107                 1.0930
 Frc consts  --      6.2105                 6.3660                 6.3720
 IR Inten    --     66.6396                53.7086                24.2531

 - Thermochemistry -
 -------------------
 Temperature   298.150 Kelvin.  Pressure   1.00000 Atm.
 Atom     1 has atomic number  6 and mass  12.00000

 Molecular mass:   124.12520 amu.
 Principal axes and moments of inertia in atomic units:
                           1         2         3
     Eigenvalues --   775.148081451.143401660.93384
           X            0.99995   0.00995  -0.00154
           Y           -0.00995   0.99995   0.00166
           Z            0.00156  -0.00164   1.00000
 This molecule is an asymmetric top.
 Rotational symmetry number  1.
 Warning -- assumption of classical behavior for rotation
           may cause significant error
 Rotational temperatures (Kelvin)      0.11174     0.05969     0.05215
 Rotational constants (GHZ):           2.32825     1.24367     1.08658
 Zero-point vibrational energy     600710.2 (Joules/Mol)
                                  143.57318 (Kcal/Mol)
 Warning -- explicit consideration of  13 degrees of freedom as
           vibrations may cause significant error
 Vibrational temperatures:     59.26   105.38   210.49   305.75   332.35
          (Kelvin)            360.16   416.38   436.88   477.52   620.77
                              634.77   778.71   872.94  1074.72  1139.45
                             1164.82  1220.14  1269.12  1276.12  1281.14
                             1337.21  1393.13  1452.15  1460.44  1482.36
                             1505.49  1524.69  1547.66  1602.29  1630.57
                             1638.58  1679.67  1688.80  1694.14  1728.24
                             1761.85  1775.51  1801.40  1847.65  1919.45
                             1944.80  2009.41  2032.23  2037.14  2060.97
                             2099.97  2139.31  2144.55  2150.98  2164.19
                             2169.88  2177.57  2198.12  4302.04  4341.18
                             4346.21  4352.35  4367.06  4390.92  4423.79
                             4426.71  4437.81  4439.38  4440.31  4455.17
                             4458.45  4465.77  4487.39  4525.89

 Zero-point correction=                           0.228798 (Hartree/Particle)
 Thermal correction to Energy=                    0.238646
 Thermal correction to Enthalpy=                  0.239590
 Thermal correction to Gibbs Free Energy=         0.193754
 Sum of electronic and zero-point Energies=           -352.306133
 Sum of electronic and thermal Energies=              -352.296286
 Sum of electronic and thermal Enthalpies=            -352.295341
 Sum of electronic and thermal Free Energies=         -352.341178

                     E (Thermal)             CV                S
                      KCal/Mol        Cal/Mol-Kelvin    Cal/Mol-Kelvin
 Total                  149.753             37.804             96.471
 Electronic               0.000              0.000              0.000
 Translational            0.889              2.981             40.362
 Rotational               0.889              2.981             29.015
 Vibrational            147.975             31.842             27.094
 Vibration     1          0.594              1.981              5.201
 Vibration     2          0.599              1.967              4.064
 Vibration     3          0.617              1.907              2.720
 Vibration     4          0.644              1.822              2.022
 Vibration     5          0.653              1.794              1.871
 Vibration     6          0.663              1.762              1.728
 Vibration     7          0.686              1.693              1.477
 Vibration     8          0.695              1.667              1.397
 Vibration     9          0.714              1.612              1.251
 Vibration    10          0.792              1.402              0.854
 Vibration    11          0.801              1.380              0.823
 Vibration    12          0.896              1.159              0.563
 Vibration    13          0.965              1.018              0.438

                           ! Non-Optimized Parameters !
 Normal termination of Gaussian 16 at Sun May 28 09:39:44 2023.
