 Gaussian 16, Revision A.03,
 Gaussian 16:  ES64L-G16RevA.03 25-Dec-2016

 -----------------------------
 # opt freq b3lyp/6-31g(2df,p)
 -----------------------------

 -------------------
 Title Card Required
 -------------------
 Symbolic Z-matrix:
 Charge =  0 Multiplicity = 1

 SCF Done:  E(RB3LYP) =  -664.896545409     A.U. after   12 cycles
 SCF Done:  E(RB3LYP) =  -664.927286917     A.U. after   11 cycles
 SCF Done:  E(RB3LYP) =  -664.945374942     A.U. after   10 cycles
 SCF Done:  E(RB3LYP) =  -664.950510391     A.U. after   10 cycles
 SCF Done:  E(RB3LYP) =  -664.952505229     A.U. after   10 cycles
 SCF Done:  E(RB3LYP) =  -664.953217424     A.U. after   10 cycles
 SCF Done:  E(RB3LYP) =  -664.953803022     A.U. after   10 cycles
 SCF Done:  E(RB3LYP) =  -664.954038903     A.U. after    9 cycles
 SCF Done:  E(RB3LYP) =  -664.954287812     A.U. after   10 cycles
 SCF Done:  E(RB3LYP) =  -664.954604757     A.U. after   10 cycles
 SCF Done:  E(RB3LYP) =  -664.956115892     A.U. after   10 cycles
 SCF Done:  E(RB3LYP) =  -664.956111012     A.U. after   10 cycles
 SCF Done:  E(RB3LYP) =  -664.956177478     A.U. after   10 cycles
 SCF Done:  E(RB3LYP) =  -664.956281084     A.U. after   10 cycles
 SCF Done:  E(RB3LYP) =  -664.956300065     A.U. after    9 cycles
 SCF Done:  E(RB3LYP) =  -664.956310394     A.U. after    8 cycles
 SCF Done:  E(RB3LYP) =  -664.956310677     A.U. after    7 cycles
 SCF Done:  E(RB3LYP) =  -664.956311529     A.U. after    8 cycles
 SCF Done:  E(RB3LYP) =  -664.956311547     A.U. after    5 cycles
 Optimization completed.
    -- Stationary point found.
 Normal termination of Gaussian 16 at Wed May 24 10:09:00 2023.

 ----------------------------------------------------------------------
 #N Geom=AllCheck Guess=TCheck SCRF=Check GenChk RB3LYP/6-31G(2df,p) Fr
 eq
 ----------------------------------------------------------------------

 Structure from the checkpoint file:  "CCqCrOCqCrCC1CCCCqCqCrCrC1.chk"
 -------------------
 Title Card Required
 -------------------
 Charge =  0 Multiplicity = 1

                         Standard orientation:
 ---------------------------------------------------------------------
 Center     Atomic      Atomic             Coordinates (Angstroms)
 Number     Number       Type             X           Y           Z
 ---------------------------------------------------------------------
      1          6           0       -4.933544    0.278697   -1.330490
      2          6           0       -3.825372    0.470596   -0.299514
      3          6           0       -4.352580    1.080556    1.003502
      4          8           0       -3.255062   -0.813354   -0.068168
      5          6           0       -1.906904   -0.828518    0.403830
      6          6           0       -1.765283   -2.127908    1.192680
      7          6           0       -0.920502   -0.723403   -0.784953
      8          6           0        0.431026   -0.013004   -0.547965
      9          6           0        0.274450    1.499915   -0.304389
     10          6           0        1.632958    2.196519   -0.139465
     11          6           0        2.478814    1.526233    0.953735
     12          6           0        2.684970    0.014435    0.706318
     13          6           0        3.659176   -0.303618   -0.462733
     14          6           0        5.055379    0.292609   -0.216087
     15          6           0        3.792282   -1.815659   -0.709259
     16          6           0        1.289246   -0.638999    0.567893
     17          1           0       -5.426382    1.229363   -1.556054
     18          1           0       -5.685907   -0.418703   -0.948108
     19          1           0       -4.527406   -0.135032   -2.257387
     20          1           0       -3.061858    1.143050   -0.723093
     21          1           0       -5.130136    0.439324    1.430937
     22          1           0       -4.780198    2.072345    0.822682
     23          1           0       -3.556846    1.192005    1.746249
     24          1           0       -1.752092    0.019603    1.086492
     25          1           0       -2.001616   -2.978111    0.544520
     26          1           0       -2.462361   -2.139833    2.035081
     27          1           0       -0.750101   -2.258208    1.574356
     28          1           0       -1.434796   -0.190326   -1.593197
     29          1           0       -0.734146   -1.735847   -1.166162
     30          1           0        0.985444   -0.124732   -1.491011
     31          1           0       -0.320444    1.667753    0.604183
     32          1           0       -0.286573    1.954708   -1.130316
     33          1           0        1.484760    3.255310    0.102480
     34          1           0        2.171629    2.175490   -1.095765
     35          1           0        1.961803    1.644511    1.915976
     36          1           0        3.436533    2.043108    1.062954
     37          1           0        3.151238   -0.407962    1.608745
     38          1           0        3.268821    0.146386   -1.384839
     39          1           0        5.481115   -0.083358    0.722513
     40          1           0        5.043730    1.384142   -0.162619
     41          1           0        5.740805    0.013710   -1.023135
     42          1           0        4.103794   -2.336923    0.204496
     43          1           0        4.549029   -2.014673   -1.475183
     44          1           0        2.858308   -2.269862   -1.049926
     45          1           0        0.770907   -0.512264    1.527767
     46          1           0        1.378732   -1.718854    0.414093
 ---------------------------------------------------------------------

 SCF Done:  E(RB3LYP) =  -664.956311547     A.U. after    1 cycles

 The electronic state is 1-A.
 Alpha  occ. eigenvalues --  -19.12250 -10.22558 -10.22318 -10.18246 -10.18052
 Alpha  occ. eigenvalues --  -10.17902 -10.17450 -10.17351 -10.17203 -10.17109
 Alpha  occ. eigenvalues --  -10.16992 -10.16860 -10.16843 -10.16830 -10.16716
 Alpha  occ. eigenvalues --  -10.16517  -1.01607  -0.83726  -0.79692  -0.78123
 Alpha  occ. eigenvalues --   -0.75454  -0.72494  -0.72266  -0.68246  -0.68007
 Alpha  occ. eigenvalues --   -0.66759  -0.61366  -0.60124  -0.58523  -0.57571
 Alpha  occ. eigenvalues --   -0.55292  -0.51870  -0.49626  -0.47323  -0.45659
 Alpha  occ. eigenvalues --   -0.45384  -0.44593  -0.43883  -0.42950  -0.41893
 Alpha  occ. eigenvalues --   -0.41617  -0.40284  -0.39786  -0.39063  -0.38834
 Alpha  occ. eigenvalues --   -0.38047  -0.37921  -0.37074  -0.36750  -0.36370
 Alpha  occ. eigenvalues --   -0.36140  -0.35448  -0.34564  -0.34025  -0.33615
 Alpha  occ. eigenvalues --   -0.32932  -0.32291  -0.32225  -0.31348  -0.29546
 Alpha  occ. eigenvalues --   -0.29456  -0.28642  -0.28256  -0.23841
 Alpha virt. eigenvalues --    0.07075   0.07999   0.09026   0.10475   0.10978
 Alpha virt. eigenvalues --    0.11636   0.12359   0.12661   0.13529   0.13880
 Alpha virt. eigenvalues --    0.14599   0.14662   0.15123   0.15740   0.16280

 Mulliken charges:
               1
     1  C   -0.388703
     2  C    0.148928
     3  C   -0.386601
     4  O   -0.276753
     5  C    0.145258
     6  C   -0.402253
     7  C   -0.247726
     8  C    0.031893
     9  C   -0.188133
    10  C   -0.206651
    11  C   -0.215714
    12  C    0.025135
    13  C    0.048466
    14  C   -0.397119
    15  C   -0.397002
    16  C   -0.229579
    17  H    0.108184
    18  H    0.121925
    19  H    0.117367
    20  H    0.065368
    21  H    0.119864
    22  H    0.109349
    23  H    0.112935
    24  H    0.065407
    25  H    0.121883
    26  H    0.113849
    27  H    0.116483
    28  H    0.096157
    29  H    0.088294
    30  H    0.068973
    31  H    0.090697
    32  H    0.085507
    33  H    0.087697
    34  H    0.095849
    35  H    0.086484
    36  H    0.090256
    37  H    0.057225
    38  H    0.072970
    39  H    0.109919
    40  H    0.114273
    41  H    0.107292
    42  H    0.109958
    43  H    0.107004
    44  H    0.115016
    45  H    0.089355
    46  H    0.091010
 Sum of Mulliken charges =  -0.00000

 Dipole moment (field-independent basis, Debye):
    X=              0.7259    Y=              0.9427    Z=              0.0474  Tot=              1.1908
 Quadrupole moment (field-independent basis, Debye-Ang):
   XX=           -106.8477   YY=           -105.0980   ZZ=           -103.4874
   XY=             -3.9711   XZ=             -0.4410   YZ=             -0.4970

  Exact polarizability: 198.046  -4.012 157.801   0.438   0.226 142.787
 Approx polarizability: 235.158  -2.494 229.300  -0.623  -0.201 225.336

                      1                      2                      3
                      A                      A                      A
 Frequencies --     19.1371                29.9185                38.6092
 Red. masses --      3.3302                 2.5725                 3.0000
 Frc consts  --      0.0007                 0.0014                 0.0026
 IR Inten    --      0.0465                 0.0027                 0.1659

                      4                      5                      6
                      A                      A                      A
 Frequencies --     48.5592                74.8051                94.8005
 Red. masses --      2.8065                 3.2188                 3.4354
 Frc consts  --      0.0039                 0.0106                 0.0182
 IR Inten    --      0.0622                 0.0656                 0.7850

                      7                      8                      9
                      A                      A                      A
 Frequencies --    118.7177               149.8910               192.7796
 Red. masses --      3.0229                 2.9915                 1.6681
 Frc consts  --      0.0251                 0.0396                 0.0365
 IR Inten    --      0.0256                 0.0812                 0.1604

                     10                     11                     12
                      A                      A                      A
 Frequencies --    208.2199               210.3425               226.7711
 Red. masses --      1.1613                 1.0661                 1.2098
 Frc consts  --      0.0297                 0.0278                 0.0367
 IR Inten    --      0.0230                 0.0128                 0.3844

                     13                     14                     15
                      A                      A                      A
 Frequencies --    229.6036               235.3653               243.1719
 Red. masses --      1.1630                 1.9538                 1.7105
 Frc consts  --      0.0361                 0.0638                 0.0596
 IR Inten    --      0.0500                 0.4349                 0.0164

                     16                     17                     18
                      A                      A                      A
 Frequencies --    272.1971               310.6429               317.8713
 Red. masses --      1.7112                 2.2342                 2.2870
 Frc consts  --      0.0747                 0.1270                 0.1362
 IR Inten    --      0.4735                 0.2345                 0.0938

                     19                     20                     21
                      A                      A                      A
 Frequencies --    345.3956               362.2748               385.1070
 Red. masses --      2.4950                 2.3290                 2.0614
 Frc consts  --      0.1754                 0.1801                 0.1801
 IR Inten    --      0.6519                 0.3012                 0.3476

                     22                     23                     24
                      A                      A                      A
 Frequencies --    403.8972               406.1440               419.5464
 Red. masses --      2.3054                 2.3917                 2.1767
 Frc consts  --      0.2216                 0.2324                 0.2257
 IR Inten    --      1.0739                 0.5586                 0.2590

                     25                     26                     27
                      A                      A                      A
 Frequencies --    433.5573               465.7496               484.2593
 Red. masses --      3.0088                 2.1045                 2.4400
 Frc consts  --      0.3332                 0.2690                 0.3371
 IR Inten    --      5.5924                 1.0782                 1.5665

                     28                     29                     30
                      A                      A                      A
 Frequencies --    491.8117               504.8602               589.4541
 Red. masses --      2.6561                 2.1399                 3.4346
 Frc consts  --      0.3785                 0.3214                 0.7031
 IR Inten    --      0.1533                 0.4520                 0.5246

                     31                     32                     33
                      A                      A                      A
 Frequencies --    668.4626               757.5363               788.3298
 Red. masses --      2.5930                 2.7252                 1.8732
 Frc consts  --      0.6827                 0.9214                 0.6859
 IR Inten    --      1.8497                 0.8256                 0.0270

                     34                     35                     36
                      A                      A                      A
 Frequencies --    818.0367               833.3495               852.0342
 Red. masses --      2.1947                 2.3707                 2.1788
 Frc consts  --      0.8653                 0.9700                 0.9319
 IR Inten    --      2.0288                 1.2768                 3.8847

                     37                     38                     39
                      A                      A                      A
 Frequencies --    863.2074               872.9675               895.0329
 Red. masses --      1.7622                 1.6346                 2.0517
 Frc consts  --      0.7736                 0.7340                 0.9684
 IR Inten    --      0.2456                 2.2290                 5.3728

                     40                     41                     42
                      A                      A                      A
 Frequencies --    906.9401               920.7850               924.0383
 Red. masses --      2.0145                 1.7830                 1.2469
 Frc consts  --      0.9763                 0.8907                 0.6273
 IR Inten    --      0.6425                 0.9079                 0.1178

                     43                     44                     45
                      A                      A                      A
 Frequencies --    927.8420               940.9432               960.1999
 Red. masses --      1.2223                 1.4304                 1.9392
 Frc consts  --      0.6200                 0.7462                 1.0534
 IR Inten    --      0.7463                 0.2247                 1.4402

                     46                     47                     48
                      A                      A                      A
 Frequencies --    967.3477               977.8105              1004.6016
 Red. masses --      1.4772                 1.9923                 1.9612
 Frc consts  --      0.8144                 1.1223                 1.1661
 IR Inten    --      0.0147                 0.8307                 6.5270

                     49                     50                     51
                      A                      A                      A
 Frequencies --   1030.9738              1040.2226              1052.9556
 Red. masses --      1.8997                 1.7622                 1.6718
 Frc consts  --      1.1897                 1.1235                 1.0921
 IR Inten    --     19.0351                15.2528                 6.0957

                     52                     53                     54
                      A                      A                      A
 Frequencies --   1077.5053              1083.8784              1104.3579
 Red. masses --      2.1790                 1.7981                 1.6898
 Frc consts  --      1.4905                 1.2446                 1.2142
 IR Inten    --     35.7984                 3.7126                15.2778

                     55                     56                     57
                      A                      A                      A
 Frequencies --   1113.1199              1125.1645              1133.2353
 Red. masses --      2.6275                 1.5297                 1.9474
 Frc consts  --      1.9181                 1.1410                 1.4735
 IR Inten    --     44.1089                 1.6717                67.7171

                     58                     59                     60
                      A                      A                      A
 Frequencies --   1143.9954              1166.5945              1177.3681
 Red. masses --      2.0464                 1.9122                 1.9311
 Frc consts  --      1.5779                 1.5332                 1.5772
 IR Inten    --     26.6385                 7.4685                13.9682

                     61                     62                     63
                      A                      A                      A
 Frequencies --   1183.2575              1187.0464              1201.5106
 Red. masses --      2.1047                 1.8463                 1.9636
 Frc consts  --      1.7362                 1.5328                 1.6702
 IR Inten    --     24.2043                 0.8798                33.7888

                     64                     65                     66
                      A                      A                      A
 Frequencies --   1216.9515              1256.8256              1280.5918
 Red. masses --      1.7366                 1.3037                 1.3285
 Frc consts  --      1.5153                 1.2133                 1.2836
 IR Inten    --      1.3738                 0.7699                 2.5920

                     67                     68                     69
                      A                      A                      A
 Frequencies --   1292.7039              1294.2204              1310.1562
 Red. masses --      1.2994                 1.3257                 1.3964
 Frc consts  --      1.2793                 1.3083                 1.4123
 IR Inten    --      1.0119                 0.5800                 9.9816

                     70                     71                     72
                      A                      A                      A
 Frequencies --   1325.9520              1336.0309              1343.8224
 Red. masses --      1.3675                 1.2962                 1.2706
 Frc consts  --      1.4165                 1.3632                 1.3519
 IR Inten    --      1.3725                 1.7123                 6.2407

                     73                     74                     75
                      A                      A                      A
 Frequencies --   1354.8352              1356.1476              1365.7259
 Red. masses --      1.2662                 1.3569                 1.3004
 Frc consts  --      1.3694                 1.4703                 1.4291
 IR Inten    --     30.8751                 2.9803                 9.8080

                     76                     77                     78
                      A                      A                      A
 Frequencies --   1374.1841              1378.4932              1383.6262
 Red. masses --      1.4419                 1.4459                 1.3822
 Frc consts  --      1.6042                 1.6188                 1.5590
 IR Inten    --      1.9187                 1.4773                 4.6044

                     79                     80                     81
                      A                      A                      A
 Frequencies --   1387.7418              1395.0553              1399.3810
 Red. masses --      1.3875                 1.3101                 1.2481
 Frc consts  --      1.5743                 1.5023                 1.4401
 IR Inten    --      0.4221                13.3670                 3.4043

                     82                     83                     84
                      A                      A                      A
 Frequencies --   1402.0325              1403.0939              1407.1850
 Red. masses --      1.2572                 1.3872                 1.4122
 Frc consts  --      1.4560                 1.6090                 1.6476
 IR Inten    --      7.7969                 0.7494                 0.8076

                     85                     86                     87
                      A                      A                      A
 Frequencies --   1413.0681              1420.6492              1423.9580
 Red. masses --      1.2655                 1.3573                 1.2367
 Frc consts  --      1.4888                 1.6139                 1.4775
 IR Inten    --     10.6717                 9.4056                 7.4437

                     88                     89                     90
                      A                      A                      A
 Frequencies --   1478.2768              1479.5163              1480.5847
 Red. masses --      1.0775                 1.0467                 1.0746
 Frc consts  --      1.3874                 1.3499                 1.3879
 IR Inten    --      4.7704                 0.8658                 0.4006

                     91                     92                     93
                      A                      A                      A
 Frequencies --   1484.4595              1484.5457              1486.2480
 Red. masses --      1.0743                 1.0569                 1.0548
 Frc consts  --      1.3948                 1.3724                 1.3728
 IR Inten    --      3.2054                 0.1624                 0.7013

                     94                     95                     96
                      A                      A                      A
 Frequencies --   1487.1508              1492.2559              1494.1807
 Red. masses --      1.0523                 1.0774                 1.0520
 Frc consts  --      1.3712                 1.4136                 1.3838
 IR Inten    --      0.7325                11.8641                 2.1515

                     97                     98                     99
                      A                      A                      A
 Frequencies --   1498.8439              1501.0338              1504.8590
 Red. masses --      1.0714                 1.0666                 1.0583
 Frc consts  --      1.4181                 1.4159                 1.4120
 IR Inten    --      4.6932                 1.5890                 6.3687

                    100                    101                    102
                      A                      A                      A
 Frequencies --   1506.3998              1508.5723              1522.9825
 Red. masses --      1.0643                 1.0553                 1.0605
 Frc consts  --      1.4230                 1.4150                 1.4493
 IR Inten    --      5.8480                 4.3442                 2.4936

                    103                    104                    105
                      A                      A                      A
 Frequencies --   2967.9645              2982.9083              2988.1612
 Red. masses --      1.0817                 1.0799                 1.0793
 Frc consts  --      5.6138                 5.6615                 5.6779
 IR Inten    --     30.2291                12.1248                 9.9781

                    106                    107                    108
                      A                      A                      A
 Frequencies --   2994.2632              3008.8333              3011.3590
 Red. masses --      1.0807                 1.0633                 1.0714
 Frc consts  --      5.7089                 5.6715                 5.7244
 IR Inten    --     43.9386                20.3800                30.5406

                    109                    110                    111
                      A                      A                      A
 Frequencies --   3015.6117              3020.9277              3021.9137
 Red. masses --      1.0729                 1.0651                 1.0657
 Frc consts  --      5.7488                 5.7270                 5.7341
 IR Inten    --      4.2474                17.5958                22.7712

                    112                    113                    114
                      A                      A                      A
 Frequencies --   3022.9266              3024.0554              3031.2349
 Red. masses --      1.0606                 1.0415                 1.0484
 Frc consts  --      5.7104                 5.6115                 5.6754
 IR Inten    --     56.0448                25.5245                45.8854

                    115                    116                    117
                      A                      A                      A
 Frequencies --   3032.9899              3039.6444              3043.6569
 Red. masses --      1.0349                 1.0350                 1.0365
 Frc consts  --      5.6089                 5.6344                 5.6572
 IR Inten    --     19.9098                18.2127                23.9182

                    118                    119                    120
                      A                      A                      A
 Frequencies --   3048.4521              3059.4298              3062.3998
 Red. masses --      1.0959                 1.1000                 1.1010
 Frc consts  --      6.0006                 6.0661                 6.0834
 IR Inten    --     37.0149                41.1225                58.0496

                    121                    122                    123
                      A                      A                      A
 Frequencies --   3071.3714              3078.2113              3085.7656
 Red. masses --      1.0951                 1.0930                 1.0998
 Frc consts  --      6.0864                 6.1017                 6.1702
 IR Inten    --     40.7222                49.7906                 0.5787

                    124                    125                    126
                      A                      A                      A
 Frequencies --   3093.6580              3102.9650              3107.8283
 Red. masses --      1.0989                 1.1010                 1.1020
 Frc consts  --      6.1967                 6.2458                 6.2714
 IR Inten    --     70.8588                19.2085                18.0335

                    127                    128                    129
                      A                      A                      A
 Frequencies --   3109.9722              3112.6560              3112.9280
 Red. masses --      1.0984                 1.0980                 1.1012
 Frc consts  --      6.2595                 6.2677                 6.2872
 IR Inten    --     40.9480                32.4581                23.7025

                    130                    131                    132
                      A                      A                      A
 Frequencies --   3113.5844              3118.7146              3131.5581
 Red. masses --      1.1014                 1.1020                 1.1005
 Frc consts  --      6.2911                 6.3151                 6.3586
 IR Inten    --     46.4774                29.1863                27.3185

 - Thermochemistry -
 -------------------
 Temperature   298.150 Kelvin.  Pressure   1.00000 Atm.
 Atom     1 has atomic number  6 and mass  12.00000

 Molecular mass:   226.22967 amu.
 Principal axes and moments of inertia in atomic units:
                           1         2         3
     Eigenvalues --  1717.767668246.026608930.52399
           X            0.99998  -0.00691  -0.00133
           Y            0.00691   0.99997  -0.00158
           Z            0.00134   0.00157   1.00000
 This molecule is an asymmetric top.
 Rotational symmetry number  1.
 Warning -- assumption of classical behavior for rotation
           may cause significant error
 Rotational temperatures (Kelvin)      0.05042     0.01050     0.00970
 Rotational constants (GHZ):           1.05063     0.21886     0.20209
 Zero-point vibrational energy    1121872.3 (Joules/Mol)
                                  268.13391 (Kcal/Mol)
 Warning -- explicit consideration of  30 degrees of freedom as
           vibrations may cause significant error
 Vibrational temperatures:     27.53    43.05    55.55    69.87   107.63
          (Kelvin)            136.40   170.81   215.66   277.37   299.58
                              302.64   326.27   330.35   338.64   349.87
                              391.63   446.95   457.35   496.95   521.23
                              554.08   581.12   584.35   603.63   623.79
                              670.11   696.74   707.61   726.38   848.09
                              961.77  1089.93  1134.23  1176.97  1199.00
                             1225.89  1241.96  1256.01  1287.75  1304.88
                             1324.80  1329.48  1334.96  1353.81  1381.51
                             1391.80  1406.85  1445.40  1483.34  1496.65
                             1514.97  1550.29  1559.46  1588.92  1601.53
                             1618.86  1630.47  1645.95  1678.47  1693.97
                             1702.44  1707.89  1728.71  1750.92  1808.29
                             1842.49  1859.91  1862.09  1885.02  1907.75
                             1922.25  1933.46  1949.31  1951.19  1964.98
                             1977.14  1983.34  1990.73  1996.65  2007.17
                             2013.40  2017.21  2018.74  2024.63  2033.09
                             2044.00  2048.76  2126.91  2128.69  2130.23
                             2135.81  2135.93  2138.38  2139.68  2147.02
                             2149.79  2156.50  2159.65  2165.16  2167.37
                             2170.50  2191.23  4270.24  4291.74  4299.30
                             4308.08  4329.04  4332.67  4338.79  4346.44
                             4347.86  4349.32  4350.94  4361.27  4363.80
                             4373.37  4379.14  4386.04  4401.84  4406.11
                             4419.02  4428.86  4439.73  4451.08  4464.47
                             4471.47  4474.56  4478.42  4478.81  4479.75
                             4487.13  4505.61

 Zero-point correction=                           0.427299 (Hartree/Particle)
 Thermal correction to Energy=                    0.446502
 Thermal correction to Enthalpy=                  0.447446
 Thermal correction to Gibbs Free Energy=         0.378981
 Sum of electronic and zero-point Energies=           -664.529013
 Sum of electronic and thermal Energies=              -664.509810
 Sum of electronic and thermal Enthalpies=            -664.508865
 Sum of electronic and thermal Free Energies=         -664.577331

                     E (Thermal)             CV                S
                      KCal/Mol        Cal/Mol-Kelvin    Cal/Mol-Kelvin
 Total                  280.184             73.633            144.097
 Electronic               0.000              0.000              0.000
 Translational            0.889              2.981             42.151
 Rotational               0.889              2.981             33.203
 Vibrational            278.407             67.672             68.743
 Vibration     1          0.593              1.986              6.722
 Vibration     2          0.594              1.984              5.835
 Vibration     3          0.594              1.981              5.329
 Vibration     4          0.595              1.978              4.875
 Vibration     5          0.599              1.966              4.023
 Vibration     6          0.603              1.953              3.558
 Vibration     7          0.609              1.934              3.121
 Vibration     8          0.618              1.903              2.674
 Vibration     9          0.635              1.850              2.201
 Vibration    10          0.642              1.828              2.059
 Vibration    11          0.643              1.825              2.041
 Vibration    12          0.650              1.800              1.904
 Vibration    13          0.652              1.796              1.882
 Vibration    14          0.655              1.787              1.838
 Vibration    15          0.659              1.774              1.780
 Vibration    16          0.675              1.725              1.582
 Vibration    17          0.699              1.653              1.359
 Vibration    18          0.704              1.639              1.321
 Vibration    19          0.724              1.585              1.187
 Vibration    20          0.736              1.550              1.112
 Vibration    21          0.754              1.502              1.019
 Vibration    22          0.769              1.462              0.948
 Vibration    23          0.771              1.457              0.940
 Vibration    24          0.782              1.428              0.894
 Vibration    25          0.794              1.397              0.847
 Vibration    26          0.823              1.326              0.750
 Vibration    27          0.840              1.285              0.699
 Vibration    28          0.848              1.268              0.679
 Vibration    29          0.860              1.239              0.646
 Vibration    30          0.947              1.054              0.468

                           ! Non-Optimized Parameters !
 Normal termination of Gaussian 16 at Wed May 24 15:42:19 2023.
