 Gaussian 16, Revision A.03,
 Gaussian 16:  ES64L-G16RevA.03 25-Dec-2016

 -----------------------------
 # opt freq b3lyp/6-31g(2df,p)
 -----------------------------

 -------------------
 Title Card Required
 -------------------
 Symbolic Z-matrix:
 Charge =  0 Multiplicity = 1

 SCF Done:  E(RB3LYP) =  -375.648726245     A.U. after   12 cycles
 SCF Done:  E(RB3LYP) =  -375.650133383     A.U. after   10 cycles
 SCF Done:  E(RB3LYP) =  -375.650316098     A.U. after    9 cycles
 SCF Done:  E(RB3LYP) =  -375.650312453     A.U. after    9 cycles
 SCF Done:  E(RB3LYP) =  -375.650355684     A.U. after    8 cycles
 SCF Done:  E(RB3LYP) =  -375.650360475     A.U. after    8 cycles
 SCF Done:  E(RB3LYP) =  -375.650363130     A.U. after    8 cycles
 SCF Done:  E(RB3LYP) =  -375.650364565     A.U. after    8 cycles
 SCF Done:  E(RB3LYP) =  -375.650365190     A.U. after    7 cycles
 SCF Done:  E(RB3LYP) =  -375.650365312     A.U. after    6 cycles
 Optimization completed.
    -- Stationary point found.
 Normal termination of Gaussian 16 at Sun May 28 17:25:42 2023.

 ----------------------------------------------------------------------
 #N Geom=AllCheck Guess=TCheck SCRF=Check GenChk RB3LYP/6-31G(2df,p) Fr
 eq
 ----------------------------------------------------------------------

 Structure from the checkpoint file:  "CCqCrCqCrqCrCF.chk"
 -------------------
 Title Card Required
 -------------------
 Charge =  0 Multiplicity = 1

                         Standard orientation:
 ---------------------------------------------------------------------
 Center     Atomic      Atomic             Coordinates (Angstroms)
 Number     Number       Type             X           Y           Z
 ---------------------------------------------------------------------
      1          6           0        2.256464    0.838381   -0.086285
      2          6           0        1.165259   -0.178733   -0.459998
      3          6           0        1.610835   -1.583315   -0.013010
      4          6           0       -0.258915    0.237789    0.035321
      5          6           0       -0.345122    0.382077    1.567096
      6          6           0       -0.682028    1.567156   -0.624231
      7          6           0       -1.265364   -0.837076   -0.407295
      8          9           0       -2.560231   -0.441990   -0.104744
      9          1           0        3.209760    0.546300   -0.538631
     10          1           0        2.411336    0.881907    0.996940
     11          1           0        2.024825    1.847829   -0.434418
     12          1           0        1.105361   -0.195966   -1.558357
     13          1           0        1.663256   -1.665787    1.077761
     14          1           0        2.612450   -1.795561   -0.400941
     15          1           0        0.951470   -2.375350   -0.378126
     16          1           0        0.267113    1.212657    1.928670
     17          1           0       -0.020730   -0.527050    2.083379
     18          1           0       -1.380337    0.575734    1.860797
     19          1           0       -0.100986    2.410639   -0.243597
     20          1           0       -1.736354    1.767523   -0.421129
     21          1           0       -0.550528    1.529274   -1.711920
     22          1           0       -1.092206   -1.789386    0.104435
     23          1           0       -1.209127   -1.002529   -1.491759
 ---------------------------------------------------------------------

 SCF Done:  E(RB3LYP) =  -375.650365312     A.U. after    1 cycles

 The electronic state is 1-A.
 Alpha  occ. eigenvalues --  -24.66312 -10.24432 -10.19525 -10.19103 -10.17526
 Alpha  occ. eigenvalues --  -10.17284 -10.16933 -10.16795  -1.17552  -0.83070
 Alpha  occ. eigenvalues --   -0.75556  -0.69451  -0.68337  -0.66956  -0.60312
 Alpha  occ. eigenvalues --   -0.53023  -0.48943  -0.48021  -0.47284  -0.44809
 Alpha  occ. eigenvalues --   -0.43198  -0.40861  -0.39524  -0.39250  -0.38006
 Alpha  occ. eigenvalues --   -0.37173  -0.36940  -0.34833  -0.34583  -0.32593
 Alpha  occ. eigenvalues --   -0.31199  -0.31005  -0.29892
 Alpha virt. eigenvalues --    0.07400   0.10553   0.11357   0.12462   0.12975
 Alpha virt. eigenvalues --    0.13843   0.14842   0.15534   0.16513   0.17326
 Alpha virt. eigenvalues --    0.18046   0.18865   0.19749   0.20993   0.21816

 Mulliken charges:
               1
     1  C   -0.405054
     2  C    0.024483
     3  C   -0.411576
     4  C    0.235674
     5  C   -0.424282
     6  C   -0.425129
     7  C   -0.078232
     8  F   -0.167102
     9  H    0.111731
    10  H    0.117243
    11  H    0.115872
    12  H    0.069827
    13  H    0.119065
    14  H    0.113232
    15  H    0.114271
    16  H    0.113009
    17  H    0.109669
    18  H    0.127533
    19  H    0.113064
    20  H    0.128485
    21  H    0.105077
    22  H    0.099321
    23  H    0.093821
 Sum of Mulliken charges =  -0.00000

 Dipole moment (field-independent basis, Debye):
    X=              1.5463    Y=             -0.2455    Z=             -0.2593  Tot=              1.5870
 Quadrupole moment (field-independent basis, Debye-Ang):
   XX=            -56.9684   YY=            -51.0803   ZZ=            -51.0897
   XY=             -0.3147   XZ=             -0.0000   YZ=              0.4025

  Exact polarizability:  81.967  -1.443  77.557  -0.437  -0.071  72.436
 Approx polarizability: 110.215  -1.303 107.117  -0.926   0.290 107.230

                      1                      2                      3
                      A                      A                      A
 Frequencies --     36.4646               124.4567               192.4680
 Red. masses --      2.1779                 2.9160                 1.5417
 Frc consts  --      0.0017                 0.0266                 0.0336
 IR Inten    --      0.0313                 2.4274                 0.7054

                      4                      5                      6
                      A                      A                      A
 Frequencies --    209.6757               237.4870               239.4914
 Red. masses --      1.5226                 1.2599                 1.2249
 Frc consts  --      0.0394                 0.0419                 0.0414
 IR Inten    --      0.6523                 0.1483                 0.6352

                      7                      8                      9
                      A                      A                      A
 Frequencies --    255.8861               287.3262               316.7864
 Red. masses --      1.0508                 2.2806                 2.9250
 Frc consts  --      0.0405                 0.1109                 0.1729
 IR Inten    --      0.1403                 0.0746                 2.0599

                     10                     11                     12
                      A                      A                      A
 Frequencies --    353.0859               362.7397               377.9128
 Red. masses --      2.2447                 2.6021                 2.2112
 Frc consts  --      0.1649                 0.2017                 0.1861
 IR Inten    --      0.3961                 0.8761                 0.6356

                     13                     14                     15
                      A                      A                      A
 Frequencies --    435.6506               472.5651               564.2083
 Red. masses --      2.5353                 2.5601                 2.3541
 Frc consts  --      0.2835                 0.3368                 0.4415
 IR Inten    --      0.4556                 1.0134                 1.9096

                     16                     17                     18
                      A                      A                      A
 Frequencies --    717.7106               837.6664               920.9274
 Red. masses --      3.0033                 2.4771                 1.7063
 Frc consts  --      0.9115                 1.0241                 0.8526
 IR Inten    --      1.5620                 2.8193                 1.5541

                     19                     20                     21
                      A                      A                      A
 Frequencies --    927.5461               929.5312               957.8908
 Red. masses --      1.4036                 1.7070                 1.2700
 Frc consts  --      0.7115                 0.8690                 0.6866
 IR Inten    --      0.6874                 0.1153                 0.4593

                     22                     23                     24
                      A                      A                      A
 Frequencies --    964.9666               979.7594              1019.9354
 Red. masses --      1.4533                 1.8298                 1.3925
 Frc consts  --      0.7973                 1.0349                 0.8535
 IR Inten    --      1.4780                 5.6537                 1.8705

                     25                     26                     27
                      A                      A                      A
 Frequencies --   1061.6850              1103.9195              1124.9573
 Red. masses --      5.1490                 1.4803                 2.3986
 Frc consts  --      3.4195                 1.0629                 1.7885
 IR Inten    --     84.8661                 8.7642                12.2172

                     28                     29                     30
                      A                      A                      A
 Frequencies --   1178.8226              1218.0824              1239.7099
 Red. masses --      1.9443                 2.1100                 1.9975
 Frc consts  --      1.5918                 1.8445                 1.8087
 IR Inten    --      3.7482                 0.7649                 1.2276

                     31                     32                     33
                      A                      A                      A
 Frequencies --   1262.8118              1300.5790              1354.7136
 Red. masses --      2.9115                 1.2779                 1.3735
 Frc consts  --      2.7355                 1.2736                 1.4852
 IR Inten    --      0.8076                 3.5061                 2.0781

                     34                     35                     36
                      A                      A                      A
 Frequencies --   1368.8473              1394.2773              1398.6466
 Red. masses --      1.3687                 1.2538                 1.2632
 Frc consts  --      1.5110                 1.4361                 1.4559
 IR Inten    --      0.9226                 4.0237                 6.9778

                     37                     38                     39
                      A                      A                      A
 Frequencies --   1405.8204              1421.7889              1437.9519
 Red. masses --      1.2276                 1.2358                 1.2401
 Frc consts  --      1.4294                 1.4719                 1.5108
 IR Inten    --      5.2583                 3.8851                 5.4143

                     40                     41                     42
                      A                      A                      A
 Frequencies --   1481.9418              1488.7599              1489.5714
 Red. masses --      1.0466                 1.0477                 1.0448
 Frc consts  --      1.3542                 1.3681                 1.3659
 IR Inten    --      0.4908                 0.7178                 1.6099

                     43                     44                     45
                      A                      A                      A
 Frequencies --   1499.9019              1507.3973              1510.6156
 Red. masses --      1.0633                 1.0466                 1.0536
 Frc consts  --      1.4094                 1.4012                 1.4165
 IR Inten    --      4.8031                 7.0378                 2.7086

                     46                     47                     48
                      A                      A                      A
 Frequencies --   1511.9579              1517.4982              1522.6198
 Red. masses --      1.0595                 1.0679                 1.0537
 Frc consts  --      1.4270                 1.4489                 1.4393
 IR Inten    --      2.9655                 4.2624                 6.1394

                     49                     50                     51
                      A                      A                      A
 Frequencies --   2989.0310              3014.7578              3034.2938
 Red. masses --      1.0822                 1.0592                 1.0378
 Frc consts  --      5.6968                 5.6719                 5.6298
 IR Inten    --     18.0969                39.4582                16.5272

                     52                     53                     54
                      A                      A                      A
 Frequencies --   3035.6724              3038.2380              3044.6527
 Red. masses --      1.0385                 1.0365                 1.0377
 Frc consts  --      5.6387                 5.6371                 5.6677
 IR Inten    --     34.7593                10.5631                11.1110

                     55                     56                     57
                      A                      A                      A
 Frequencies --   3075.5804              3094.2650              3100.9825
 Red. masses --      1.1034                 1.1012                 1.0999
 Frc consts  --      6.1494                 6.2119                 6.2316
 IR Inten    --     39.3399                 0.4879                50.2791

                     58                     59                     60
                      A                      A                      A
 Frequencies --   3104.6409              3109.0371              3111.5460
 Red. masses --      1.0974                 1.0986                 1.1005
 Frc consts  --      6.2320                 6.2569                 6.2777
 IR Inten    --     35.1809                50.9141                13.9025

                     61                     62                     63
                      A                      A                      A
 Frequencies --   3116.9948              3120.2227              3129.9648
 Red. masses --      1.0997                 1.1003                 1.1005
 Frc consts  --      6.2949                 6.3115                 6.3520
 IR Inten    --     17.7597                28.6833                20.2226

 - Thermochemistry -
 -------------------
 Temperature   298.150 Kelvin.  Pressure   1.00000 Atm.
 Atom     1 has atomic number  6 and mass  12.00000

 Molecular mass:   118.11578 amu.
 Principal axes and moments of inertia in atomic units:
                           1         2         3
     Eigenvalues --   636.421421288.817661486.38925
           X            0.99967  -0.02574  -0.00165
           Y            0.02573   0.99964  -0.00791
           Z            0.00185   0.00786   0.99997
 This molecule is an asymmetric top.
 Rotational symmetry number  1.
 Warning -- assumption of classical behavior for rotation
           may cause significant error
 Rotational temperatures (Kelvin)      0.13610     0.06720     0.05827
 Rotational constants (GHZ):           2.83576     1.40031     1.21418
 Zero-point vibrational energy     548158.2 (Joules/Mol)
                                  131.01296 (Kcal/Mol)
 Warning -- explicit consideration of  15 degrees of freedom as
           vibrations may cause significant error
 Vibrational temperatures:     52.46   179.07   276.92   301.68   341.69
          (Kelvin)            344.57   368.16   413.40   455.78   508.01
                              521.90   543.73   626.80   679.92   811.77
                             1032.63  1205.22  1325.01  1334.53  1337.39
                             1378.19  1388.37  1409.66  1467.46  1527.53
                             1588.29  1618.56  1696.06  1752.55  1783.67
                             1816.90  1871.24  1949.13  1969.47  2006.05
                             2012.34  2022.66  2045.64  2068.89  2132.18
                             2141.99  2143.16  2158.02  2168.81  2173.44
                             2175.37  2183.34  2190.71  4300.55  4337.56
                             4365.67  4367.66  4371.35  4380.58  4425.07
                             4451.96  4461.62  4466.89  4473.21  4476.82
                             4484.66  4489.30  4503.32

 Zero-point correction=                           0.208782 (Hartree/Particle)
 Thermal correction to Energy=                    0.219070
 Thermal correction to Enthalpy=                  0.220014
 Thermal correction to Gibbs Free Energy=         0.173970
 Sum of electronic and zero-point Energies=           -375.441583
 Sum of electronic and thermal Energies=              -375.431296
 Sum of electronic and thermal Enthalpies=            -375.430351
 Sum of electronic and thermal Free Energies=         -375.476395

                     E (Thermal)             CV                S
                      KCal/Mol        Cal/Mol-Kelvin    Cal/Mol-Kelvin
 Total                  137.468             38.210             96.908
 Electronic               0.000              0.000              0.000
 Translational            0.889              2.981             40.214
 Rotational               0.889              2.981             28.590
 Vibrational            135.691             32.248             28.103
 Vibration     1          0.594              1.982              5.442
 Vibration     2          0.610              1.929              3.030
 Vibration     3          0.634              1.850              2.204
 Vibration     4          0.642              1.826              2.046
 Vibration     5          0.656              1.783              1.822
 Vibration     6          0.657              1.780              1.807
 Vibration     7          0.666              1.753              1.690
 Vibration     8          0.684              1.697              1.490
 Vibration     9          0.704              1.642              1.327
 Vibration    10          0.729              1.569              1.152
 Vibration    11          0.737              1.549              1.110
 Vibration    12          0.748              1.517              1.048
 Vibration    13          0.796              1.393              0.840
 Vibration    14          0.829              1.311              0.730
 Vibration    15          0.920              1.109              0.515

 Optimization completed.
    -- Stationary point found.
 Normal termination of Gaussian 16 at Sun May 28 17:57:27 2023.
