 Gaussian 16, Revision A.03,
 Gaussian 16:  ES64L-G16RevA.03 25-Dec-2016

 -----------------------------
 # opt freq b3lyp/6-31g(2df,p)
 -----------------------------

 -------------------
 Title Card Required
 -------------------
 Symbolic Z-matrix:
 Charge =  0 Multiplicity = 1

 SCF Done:  E(RB3LYP) =  -695.143995714     A.U. after   13 cycles
 SCF Done:  E(RB3LYP) =  -695.150040915     A.U. after   12 cycles
 SCF Done:  E(RB3LYP) =  -695.152846857     A.U. after   11 cycles
 SCF Done:  E(RB3LYP) =  -695.154297081     A.U. after   11 cycles
 SCF Done:  E(RB3LYP) =  -695.155043487     A.U. after   12 cycles
 SCF Done:  E(RB3LYP) =  -695.155546981     A.U. after   12 cycles
 SCF Done:  E(RB3LYP) =  -695.155822101     A.U. after   12 cycles
 SCF Done:  E(RB3LYP) =  -695.155976500     A.U. after   11 cycles
 SCF Done:  E(RB3LYP) =  -695.156019224     A.U. after   10 cycles
 SCF Done:  E(RB3LYP) =  -695.156032982     A.U. after    9 cycles
 SCF Done:  E(RB3LYP) =  -695.156038522     A.U. after    9 cycles
 SCF Done:  E(RB3LYP) =  -695.156043497     A.U. after    9 cycles
 SCF Done:  E(RB3LYP) =  -695.156046541     A.U. after    9 cycles
 SCF Done:  E(RB3LYP) =  -695.156046840     A.U. after    7 cycles
 SCF Done:  E(RB3LYP) =  -695.156046855     A.U. after    6 cycles
 Optimization completed.
    -- Stationary point found.
 Normal termination of Gaussian 16 at Mon May 22 08:23:39 2023.

 ----------------------------------------------------------------------
 #N Geom=AllCheck Guess=TCheck SCRF=Check GenChk RB3LYP/6-31G(2df,p) Fr
 eq
 ----------------------------------------------------------------------

 Structure from the checkpoint file:  "CCqCrCCCOCqCOOrCqCrO.chk"
 -------------------
 Title Card Required
 -------------------
 Charge =  0 Multiplicity = 1

                         Standard orientation:
 ---------------------------------------------------------------------
 Center     Atomic      Atomic             Coordinates (Angstroms)
 Number     Number       Type             X           Y           Z
 ---------------------------------------------------------------------
      1          6           0        5.355802    0.893774    0.366754
      2          6           0        4.241314    0.081061   -0.306217
      3          6           0        4.596238   -1.412566   -0.317741
      4          6           0        2.887766    0.360537    0.373120
      5          6           0        1.672347   -0.255476   -0.329068
      6          6           0        0.359993    0.156218    0.324352
      7          8           0       -0.703289   -0.478650   -0.373610
      8          6           0       -2.002365   -0.259352    0.142853
      9          6           0       -2.631559    1.031881   -0.386346
     10          8           0       -2.022294    2.122222    0.296191
     11          8           0       -2.726968    3.320138   -0.098776
     12          6           0       -2.858845   -1.482174   -0.258873
     13          6           0       -2.259569   -2.790682    0.248428
     14          8           0       -4.207365   -1.320551    0.167585
     15          1           0        6.318310    0.736671   -0.131258
     16          1           0        5.474941    0.599934    1.416733
     17          1           0        5.137506    1.966773    0.345457
     18          1           0        4.163313    0.417590   -1.350558
     19          1           0        4.658797   -1.805705    0.704543
     20          1           0        5.567456   -1.579256   -0.795329
     21          1           0        3.856452   -2.008566   -0.859706
     22          1           0        2.747686    1.448504    0.433632
     23          1           0        2.931396    0.004504    1.412862
     24          1           0        1.731773   -1.349372   -0.324933
     25          1           0        1.650687    0.053047   -1.381981
     26          1           0        0.237410    1.246912    0.301073
     27          1           0        0.346282   -0.150288    1.383950
     28          1           0       -1.969979   -0.202695    1.245058
     29          1           0       -3.707856    1.025153   -0.192511
     30          1           0       -2.455400    1.107282   -1.468934
     31          1           0       -2.098369    3.704808   -0.726980
     32          1           0       -2.910404   -1.509065   -1.354119
     33          1           0       -2.208710   -2.791496    1.345419
     34          1           0       -1.247179   -2.926133   -0.135230
     35          1           0       -2.881699   -3.632930   -0.065642
     36          1           0       -4.229817   -1.440274    1.123776
 ---------------------------------------------------------------------

 SCF Done:  E(RB3LYP) =  -695.156046855     A.U. after    1 cycles

 The electronic state is 1-A.
 Alpha  occ. eigenvalues --  -19.19030 -19.18707 -19.14063 -19.13928 -10.23556
 Alpha  occ. eigenvalues --  -10.23503 -10.22165 -10.22164 -10.18562 -10.17794
 Alpha  occ. eigenvalues --  -10.17654 -10.17559 -10.17006 -10.17005  -1.11219
 Alpha  occ. eigenvalues --   -1.03495  -1.02031  -0.90626  -0.81263  -0.78256
 Alpha  occ. eigenvalues --   -0.74816  -0.71536  -0.67970  -0.66435  -0.62697
 Alpha  occ. eigenvalues --   -0.59501  -0.59138  -0.55606  -0.52912  -0.50834
 Alpha  occ. eigenvalues --   -0.48763  -0.47721  -0.46888  -0.45782  -0.44967
 Alpha  occ. eigenvalues --   -0.44058  -0.42989  -0.42370  -0.41504  -0.40682
 Alpha  occ. eigenvalues --   -0.39322  -0.38255  -0.37899  -0.37417  -0.36905
 Alpha  occ. eigenvalues --   -0.35807  -0.35462  -0.33790  -0.33001  -0.31890
 Alpha  occ. eigenvalues --   -0.31831  -0.31574  -0.30711  -0.28887  -0.27905
 Alpha  occ. eigenvalues --   -0.26700  -0.24593
 Alpha virt. eigenvalues --    0.03307   0.07142   0.08004   0.08347   0.09753
 Alpha virt. eigenvalues --    0.11373   0.11986   0.12315   0.12731   0.14031
 Alpha virt. eigenvalues --    0.14720   0.15253   0.15446   0.15905   0.16500

 Mulliken charges:
               1
     1  C   -0.388577
     2  C    0.042096
     3  C   -0.380871
     4  C   -0.167795
     5  C   -0.210234
     6  C   -0.068126
     7  O   -0.270241
     8  C    0.065167
     9  C   -0.020731
    10  O   -0.201166
    11  O   -0.318139
    12  C    0.108606
    13  C   -0.411404
    14  O   -0.425394
    15  H    0.108653
    16  H    0.110858
    17  H    0.108389
    18  H    0.070269
    19  H    0.109385
    20  H    0.109525
    21  H    0.115242
    22  H    0.090508
    23  H    0.090282
    24  H    0.104612
    25  H    0.100427
    26  H    0.109021
    27  H    0.083684
    28  H    0.068220
    29  H    0.125418
    30  H    0.090006
    31  H    0.309467
    32  H    0.099636
    33  H    0.101349
    34  H    0.139277
    35  H    0.122295
    36  H    0.280283
 Sum of Mulliken charges =  -0.00000

 Dipole moment (field-independent basis, Debye):
    X=              1.5360    Y=             -0.4771    Z=              0.0451  Tot=              1.6090
 Quadrupole moment (field-independent basis, Debye-Ang):
   XX=            -95.0868   YY=            -86.2546   ZZ=            -84.3815
   XY=              4.1649   XZ=             -2.2716   YZ=             -7.2780

  Exact polarizability: 150.098   0.433 134.854  -0.455  -1.874 107.013
 Approx polarizability: 177.389  -3.052 180.612  -1.069  -2.755 171.368

                      1                      2                      3
                      A                      A                      A
 Frequencies --     19.7956                28.6872                49.6525
 Red. masses --      2.5460                 4.1672                 3.7434
 Frc consts  --      0.0006                 0.0020                 0.0054
 IR Inten    --      0.1404                 0.0455                 0.9334

                      4                      5                      6
                      A                      A                      A
 Frequencies --     63.5719                73.7354                84.3233
 Red. masses --      3.5731                 3.2262                 2.8246
 Frc consts  --      0.0085                 0.0103                 0.0118
 IR Inten    --      1.4097                 1.5209                 0.8840

                      7                      8                      9
                      A                      A                      A
 Frequencies --     96.3889               105.3599               137.4505
 Red. masses --      2.2171                 3.9949                 3.4019
 Frc consts  --      0.0121                 0.0261                 0.0379
 IR Inten    --      2.0369                10.4180                 3.0912

                     10                     11                     12
                      A                      A                      A
 Frequencies --    152.7691               188.3748               220.9321
 Red. masses --      2.2618                 3.4731                 2.4656
 Frc consts  --      0.0311                 0.0726                 0.0709
 IR Inten    --      1.7826                 3.5904                 1.8218

                     13                     14                     15
                      A                      A                      A
 Frequencies --    228.0028               231.5111               238.5969
 Red. masses --      1.2567                 1.0952                 1.1880
 Frc consts  --      0.0385                 0.0346                 0.0398
 IR Inten    --      4.6212                38.8251                41.5368

                     16                     17                     18
                      A                      A                      A
 Frequencies --    251.2537               271.4757               306.0315
 Red. masses --      1.2015                 2.6968                 1.1569
 Frc consts  --      0.0447                 0.1171                 0.0638
 IR Inten    --      0.0805                 2.1162               103.2745

                     19                     20                     21
                      A                      A                      A
 Frequencies --    320.0883               346.0178               372.6615
 Red. masses --      3.5091                 3.5795                 4.3906
 Frc consts  --      0.2118                 0.2525                 0.3593
 IR Inten    --      0.3253                 0.2972                 5.4293

                     22                     23                     24
                      A                      A                      A
 Frequencies --    383.2924               417.0111               450.1749
 Red. masses --      2.3476                 2.2066                 2.4516
 Frc consts  --      0.2032                 0.2261                 0.2927
 IR Inten    --      1.9598                 0.7290                 4.6193

                     25                     26                     27
                      A                      A                      A
 Frequencies --    455.4782               505.4470               544.5512
 Red. masses --      3.2897                 3.3435                 3.6800
 Frc consts  --      0.4021                 0.5033                 0.6429
 IR Inten    --      7.7921                15.2046                 1.3910

                     28                     29                     30
                      A                      A                      A
 Frequencies --    582.0365               757.3032               819.1699
 Red. masses --      2.5507                 1.1257                 2.4935
 Frc consts  --      0.5091                 0.3804                 0.9858
 IR Inten    --     11.2257                 0.7889                 1.4181

                     31                     32                     33
                      A                      A                      A
 Frequencies --    861.8348               875.0518               900.1286
 Red. masses --      1.2530                 2.4439                 2.6129
 Frc consts  --      0.5483                 1.1026                 1.2473
 IR Inten    --      0.9298                10.7590                27.9628

                     34                     35                     36
                      A                      A                      A
 Frequencies --    927.6625               936.9640               952.4458
 Red. masses --      1.2006                 3.0370                 2.4380
 Frc consts  --      0.6087                 1.5709                 1.3031
 IR Inten    --      1.2265                 3.8619                 2.5561

                     37                     38                     39
                      A                      A                      A
 Frequencies --    953.6079               965.7740              1019.7097
 Red. masses --      1.9179                 1.4557                 1.3454
 Frc consts  --      1.0276                 0.8000                 0.8242
 IR Inten    --      0.3527                 0.1791                 1.2198

                     40                     41                     42
                      A                      A                      A
 Frequencies --   1028.4136              1044.8681              1055.5813
 Red. masses --      2.7200                 3.2274                 3.9895
 Frc consts  --      1.6949                 2.0760                 2.6191
 IR Inten    --     12.0925                 2.5804                20.3671

                     43                     44                     45
                      A                      A                      A
 Frequencies --   1063.6915              1076.5729              1099.5180
 Red. masses --      2.4663                 2.2406                 2.3253
 Frc consts  --      1.6441                 1.5300                 1.6563
 IR Inten    --      4.9447                19.8003                80.0319

                     46                     47                     48
                      A                      A                      A
 Frequencies --   1131.8274              1144.2247              1157.2171
 Red. masses --      2.5757                 4.5769                 2.7297
 Frc consts  --      1.9440                 3.5306                 2.1538
 IR Inten    --      0.7503               264.1938                17.6916

                     49                     50                     51
                      A                      A                      A
 Frequencies --   1174.2750              1191.6325              1195.6792
 Red. masses --      2.5595                 1.8078                 1.7978
 Frc consts  --      2.0794                 1.5125                 1.5143
 IR Inten    --      6.4125                 5.6035                 1.4605

                     52                     53                     54
                      A                      A                      A
 Frequencies --   1236.2866              1243.9310              1253.0756
 Red. masses --      1.3709                 1.2236                 1.2920
 Frc consts  --      1.2345                 1.1155                 1.1953
 IR Inten    --      2.7531                12.6335                11.3895

                     55                     56                     57
                      A                      A                      A
 Frequencies --   1279.7639              1305.2189              1317.3146
 Red. masses --      1.3127                 1.1955                 1.3192
 Frc consts  --      1.2668                 1.2000                 1.3487
 IR Inten    --      4.1458                 0.1069                 2.0433

                     58                     59                     60
                      A                      A                      A
 Frequencies --   1318.9232              1343.8861              1355.3526
 Red. masses --      1.1038                 1.2800                 1.3054
 Frc consts  --      1.1313                 1.3620                 1.4128
 IR Inten    --      0.4977                 7.3527                38.5772

                     61                     62                     63
                      A                      A                      A
 Frequencies --   1371.6845              1381.9358              1385.0417
 Red. masses --      1.3270                 1.3458                 1.1277
 Frc consts  --      1.4711                 1.5143                 1.2746
 IR Inten    --      4.3100                 6.2061                58.3115

                     64                     65                     66
                      A                      A                      A
 Frequencies --   1392.5341              1394.0743              1396.2737
 Red. masses --      1.3639                 1.4582                 1.3215
 Frc consts  --      1.5583                 1.6697                 1.5180
 IR Inten    --     12.4374                 5.3514                 5.9306

                     67                     68                     69
                      A                      A                      A
 Frequencies --   1401.1125              1416.1521              1422.8427
 Red. masses --      1.2688                 1.2803                 1.2450
 Frc consts  --      1.4675                 1.5128                 1.4850
 IR Inten    --      4.8379                35.0188                 3.2913

                     70                     71                     72
                      A                      A                      A
 Frequencies --   1441.4178              1479.8095              1489.2419
 Red. masses --      1.4322                 1.0730                 1.0453
 Frc consts  --      1.7532                 1.3844                 1.3659
 IR Inten    --      5.4944                 0.0899                 0.8764

                     73                     74                     75
                      A                      A                      A
 Frequencies --   1489.8976              1495.5412              1497.9286
 Red. masses --      1.0525                 1.0589                 1.0569
 Frc consts  --      1.3766                 1.3954                 1.3972
 IR Inten    --      5.3695                 1.8440                 2.9145

                     76                     77                     78
                      A                      A                      A
 Frequencies --   1501.6598              1505.5220              1511.5597
 Red. masses --      1.0887                 1.0550                 1.0513
 Frc consts  --      1.4465                 1.4089                 1.4153
 IR Inten    --      1.2381                 2.7930                 8.6166

                     79                     80                     81
                      A                      A                      A
 Frequencies --   1513.4695              1530.7584              2955.0022
 Red. masses --      1.0851                 1.0869                 1.0790
 Frc consts  --      1.4644                 1.5005                 5.5513
 IR Inten    --      9.8992                 3.6493                11.0014

                     82                     83                     84
                      A                      A                      A
 Frequencies --   2963.9505              2991.9127              3000.7622
 Red. masses --      1.0693                 1.0779                 1.0628
 Frc consts  --      5.5349                 5.6850                 5.6386
 IR Inten    --     46.4744                 4.3837                27.3971

                     85                     86                     87
                      A                      A                      A
 Frequencies --   3005.3233              3021.7829              3022.5674
 Red. masses --      1.0646                 1.0360                 1.0482
 Frc consts  --      5.6654                 5.5737                 5.6420
 IR Inten    --     31.7660                26.1083                12.0879

                     88                     89                     90
                      A                      A                      A
 Frequencies --   3027.3991              3029.7419              3034.3509
 Red. masses --      1.0383                 1.0698                 1.0895
 Frc consts  --      5.6067                 5.7860                 5.9101
 IR Inten    --     25.0613                29.6874                22.7961

                     91                     92                     93
                      A                      A                      A
 Frequencies --   3035.9302              3045.7350              3079.9253
 Red. masses --      1.0916                 1.0809                 1.1031
 Frc consts  --      5.9279                 5.9077                 6.1650
 IR Inten    --     13.2334                33.7452                43.5225

                     94                     95                     96
                      A                      A                      A
 Frequencies --   3086.1321              3092.0382              3095.4299
 Red. masses --      1.1001                 1.0998                 1.0976
 Frc consts  --      6.1730                 6.1950                 6.1966
 IR Inten    --     10.3729                64.8829                19.6380

                     97                     98                     99
                      A                      A                      A
 Frequencies --   3097.4416              3103.0595              3107.0285
 Red. masses --      1.1013                 1.0918                 1.0997
 Frc consts  --      6.2252                 6.1939                 6.2550
 IR Inten    --     43.5422                29.6581                38.1113

                    100                    101                    102
                      A                      A                      A
 Frequencies --   3145.1167              3742.6411              3795.8968
 Red. masses --      1.1003                 1.0687                 1.0659
 Frc consts  --      6.4125                 8.8199                 9.0487
 IR Inten    --     13.1067                23.8130                16.4789

 - Thermochemistry -
 -------------------
 Temperature   298.150 Kelvin.  Pressure   1.00000 Atm.
 Atom     1 has atomic number  6 and mass  12.00000

 Molecular mass:   206.15181 amu.
 Principal axes and moments of inertia in atomic units:
                           1         2         3
     Eigenvalues --  1990.329517230.152228953.49775
           X            0.99996   0.00876   0.00082
           Y           -0.00875   0.99993  -0.00769
           Z           -0.00089   0.00768   0.99997
 This molecule is an asymmetric top.
 Rotational symmetry number  1.
 Warning -- assumption of classical behavior for rotation
           may cause significant error
 Rotational temperatures (Kelvin)      0.04352     0.01198     0.00967
 Rotational constants (GHZ):           0.90675     0.24961     0.20157
 Zero-point vibrational energy     835048.5 (Joules/Mol)
                                  199.58138 (Kcal/Mol)
 Warning -- explicit consideration of  28 degrees of freedom as
           vibrations may cause significant error
 Vibrational temperatures:     28.48    41.27    71.44    91.47   106.09
          (Kelvin)            121.32   138.68   151.59   197.76   219.80
                              271.03   317.87   328.05   333.09   343.29
                              361.50   390.59   440.31   460.54   497.84
                              536.18   551.47   599.99   647.70   655.33
                              727.23   783.49   837.42  1089.59  1178.60
                             1239.99  1259.00  1295.08  1334.70  1348.08
                             1370.36  1372.03  1389.53  1467.13  1479.66
                             1503.33  1518.75  1530.41  1548.95  1581.96
                             1628.45  1646.28  1664.98  1689.52  1714.49
                             1720.32  1778.74  1789.74  1802.90  1841.29
                             1877.92  1895.32  1897.64  1933.55  1950.05
                             1973.55  1988.30  1992.77  2003.55  2005.76
                             2008.93  2015.89  2037.53  2047.15  2073.88
                             2129.12  2142.69  2143.63  2151.75  2155.19
                             2160.55  2166.11  2174.80  2177.55  2202.42
                             4251.59  4264.46  4304.70  4317.43  4323.99
                             4347.67  4348.80  4355.75  4359.12  4365.75
                             4368.03  4382.13  4431.33  4440.26  4448.75
                             4453.63  4456.53  4464.61  4470.32  4525.12
                             5384.83  5461.45

 Zero-point correction=                           0.318053 (Hartree/Particle)
 Thermal correction to Energy=                    0.336568
 Thermal correction to Enthalpy=                  0.337512
 Thermal correction to Gibbs Free Energy=         0.269528
 Sum of electronic and zero-point Energies=           -694.837994
 Sum of electronic and thermal Energies=              -694.819479
 Sum of electronic and thermal Enthalpies=            -694.818535
 Sum of electronic and thermal Free Energies=         -694.886519

                     E (Thermal)             CV                S
                      KCal/Mol        Cal/Mol-Kelvin    Cal/Mol-Kelvin
 Total                  211.199             65.483            143.084
 Electronic               0.000              0.000              0.000
 Translational            0.889              2.981             41.874
 Rotational               0.889              2.981             33.221
 Vibrational            209.422             59.521             67.988
 Vibration     1          0.593              1.986              6.655
 Vibration     2          0.593              1.984              5.918
 Vibration     3          0.595              1.978              4.831
 Vibration     4          0.597              1.972              4.343
 Vibration     5          0.599              1.966              4.051
 Vibration     6          0.601              1.960              3.788
 Vibration     7          0.603              1.952              3.526
 Vibration     8          0.605              1.945              3.353
 Vibration     9          0.614              1.916              2.839
 Vibration    10          0.619              1.900              2.637
 Vibration    11          0.633              1.856              2.244
 Vibration    12          0.648              1.809              1.951
 Vibration    13          0.651              1.798              1.895
 Vibration    14          0.653              1.793              1.867
 Vibration    15          0.657              1.781              1.813
 Vibration    16          0.663              1.761              1.722
 Vibration    17          0.675              1.726              1.587
 Vibration    18          0.696              1.662              1.384
 Vibration    19          0.706              1.635              1.310
 Vibration    20          0.724              1.583              1.184
 Vibration    21          0.744              1.528              1.069
 Vibration    22          0.752              1.506              1.026
 Vibration    23          0.780              1.433              0.902
 Vibration    24          0.809              1.361              0.795
 Vibration    25          0.814              1.349              0.779
 Vibration    26          0.861              1.238              0.645
 Vibration    27          0.900              1.152              0.556
 Vibration    28          0.939              1.070              0.482

 Optimization completed.
    -- Stationary point found.
 Normal termination of Gaussian 16 at Mon May 22 10:16:20 2023.
