 Gaussian 16, Revision A.03,
 Gaussian 16:  ES64L-G16RevA.03 25-Dec-2016

 -----------------------------
 # opt freq b3lyp/6-31g(2df,p)
 -----------------------------

 -------------------
 Title Card Required
 -------------------
 Symbolic Z-matrix:
 Charge =  0 Multiplicity = 1

 SCF Done:  E(RB3LYP) =  -1425.93344698     A.U. after   15 cycles
 SCF Done:  E(RB3LYP) =  -1425.94888638     A.U. after   12 cycles
 SCF Done:  E(RB3LYP) =  -1425.95290522     A.U. after   12 cycles
 SCF Done:  E(RB3LYP) =  -1425.95675866     A.U. after   12 cycles
 SCF Done:  E(RB3LYP) =  -1425.96001113     A.U. after   13 cycles
 SCF Done:  E(RB3LYP) =  -1425.96179216     A.U. after   11 cycles
 SCF Done:  E(RB3LYP) =  -1425.96453031     A.U. after   12 cycles
 SCF Done:  E(RB3LYP) =  -1425.96561871     A.U. after   11 cycles
 SCF Done:  E(RB3LYP) =  -1425.96673252     A.U. after   12 cycles
 SCF Done:  E(RB3LYP) =  -1425.96697351     A.U. after   11 cycles
 SCF Done:  E(RB3LYP) =  -1425.96726297     A.U. after   10 cycles
 SCF Done:  E(RB3LYP) =  -1425.96727552     A.U. after    9 cycles
 SCF Done:  E(RB3LYP) =  -1425.96727985     A.U. after    9 cycles
 SCF Done:  E(RB3LYP) =  -1425.96728288     A.U. after    9 cycles
 SCF Done:  E(RB3LYP) =  -1425.96728495     A.U. after    8 cycles
 SCF Done:  E(RB3LYP) =  -1425.96728551     A.U. after    7 cycles
 SCF Done:  E(RB3LYP) =  -1425.96728569     A.U. after    7 cycles
 SCF Done:  E(RB3LYP) =  -1425.96728584     A.U. after    7 cycles
 SCF Done:  E(RB3LYP) =  -1425.96728590     A.U. after    7 cycles
 Optimization completed.
    -- Stationary point found.
 Normal termination of Gaussian 16 at Mon May 29 17:42:21 2023.

 ----------------------------------------------------------------------
 #N Geom=AllCheck Guess=TCheck SCRF=Check GenChk RB3LYP/6-31G(2df,p) Fr
 eq
 ----------------------------------------------------------------------

 Structure from the checkpoint file:  "CCqCrNC1Sc2cqcsc2NrNdC1CO.chk"
 -------------------
 Title Card Required
 -------------------
 Charge =  0 Multiplicity = 1

                         Standard orientation:
 ---------------------------------------------------------------------
 Center     Atomic      Atomic             Coordinates (Angstroms)
 Number     Number       Type             X           Y           Z
 ---------------------------------------------------------------------
      1          6           0        3.123681   -1.558373    2.033546
      2          6           0        2.841226   -1.194549    0.575373
      3          6           0        2.966648   -2.422673   -0.333079
      4          7           0        1.489796   -0.628030    0.489856
      5          6           0        1.128705    0.102441   -0.696699
      6         16           0       -0.311898   -0.628441   -1.637865
      7          6           0       -1.531581   -0.121142   -0.478988
      8          6           0       -1.383367    1.110456    0.256581
      9          6           0       -2.436753    1.356087    1.095071
     10         16           0       -3.623460    0.098300    0.999791
     11          6           0       -2.686805   -0.789601   -0.181187
     12          7           0       -3.174883   -1.962263   -0.750437
     13          7           0       -0.304489    1.979597    0.122971
     14          6           0        0.795735    1.557604   -0.385672
     15          6           0        1.891406    2.566592   -0.650540
     16          8           0        3.162278    2.158103   -0.153403
     17          1           0        4.122043   -1.992510    2.135289
     18          1           0        2.392355   -2.287936    2.397341
     19          1           0        3.076129   -0.675640    2.681897
     20          1           0        3.585993   -0.448034    0.253644
     21          1           0        2.269215   -3.204585   -0.016647
     22          1           0        3.985853   -2.820970   -0.296885
     23          1           0        2.744261   -2.178958   -1.376307
     24          1           0        1.214082   -0.144789    1.333107
     25          1           0        1.946845    0.071468   -1.419120
     26          1           0       -2.567476    2.189567    1.766000
     27          1           0       -3.714533   -2.535547   -0.114761
     28          1           0       -2.432028   -2.508105   -1.174619
     29          1           0        1.574541    3.536659   -0.249839
     30          1           0        2.027082    2.675247   -1.733948
     31          1           0        3.116797    2.175401    0.808098
 ---------------------------------------------------------------------

 SCF Done:  E(RB3LYP) =  -1425.96728590     A.U. after    1 cycles

 The electronic state is 1-A.
 Alpha  occ. eigenvalues --  -88.90375 -88.87422 -19.15258 -14.34603 -14.33070
 Alpha  occ. eigenvalues --  -14.32629 -10.25089 -10.24520 -10.23788 -10.23551
 Alpha  occ. eigenvalues --  -10.21906 -10.21420 -10.20004 -10.19833 -10.18289
 Alpha  occ. eigenvalues --  -10.17396  -7.96542  -7.93635  -5.92948  -5.92603
 Alpha  occ. eigenvalues --   -5.92283  -5.90079  -5.89778  -5.89234  -1.03138
 Alpha  occ. eigenvalues --   -0.95064  -0.92744  -0.91295  -0.84966  -0.79667
 Alpha  occ. eigenvalues --   -0.76475  -0.74536  -0.69975  -0.68977  -0.68756
 Alpha  occ. eigenvalues --   -0.63642  -0.59290  -0.58633  -0.56899  -0.52962
 Alpha  occ. eigenvalues --   -0.52621  -0.49864  -0.49289  -0.47713  -0.47101
 Alpha  occ. eigenvalues --   -0.45952  -0.45536  -0.44096  -0.42166  -0.40367
 Alpha  occ. eigenvalues --   -0.40049  -0.39626  -0.38776  -0.38463  -0.37270
 Alpha  occ. eigenvalues --   -0.36297  -0.35148  -0.34513  -0.34322  -0.33708
 Alpha  occ. eigenvalues --   -0.32986  -0.30173  -0.28981  -0.27969  -0.25468
 Alpha  occ. eigenvalues --   -0.22468  -0.21737  -0.18348
 Alpha virt. eigenvalues --   -0.03989   0.01247   0.01894   0.03394   0.05749
 Alpha virt. eigenvalues --    0.07688   0.08297   0.09492   0.10283   0.10595
 Alpha virt. eigenvalues --    0.11635   0.12290   0.13307   0.14025   0.14765

 Mulliken charges:
               1
     1  C   -0.406149
     2  C    0.063702
     3  C   -0.364888
     4  N   -0.291233
     5  C   -0.065604
     6  S   -0.193978
     7  C    0.064073
     8  C    0.303692
     9  C   -0.259922
    10  S   -0.051589
    11  C    0.143721
    12  N   -0.586487
    13  N   -0.333669
    14  C    0.220484
    15  C   -0.160874
    16  O   -0.405590
    17  H    0.122180
    18  H    0.126778
    19  H    0.104154
    20  H    0.082936
    21  H    0.121050
    22  H    0.109457
    23  H    0.117837
    24  H    0.226847
    25  H    0.122295
    26  H    0.131823
    27  H    0.257706
    28  H    0.265849
    29  H    0.117795
    30  H    0.129446
    31  H    0.288157
 Sum of Mulliken charges =  -0.00000

 Dipole moment (field-independent basis, Debye):
    X=              1.5050    Y=             -1.4746    Z=              2.1948  Tot=              3.0425
 Quadrupole moment (field-independent basis, Debye-Ang):
   XX=           -108.3020   YY=           -103.4082   ZZ=           -107.9317
   XY=              4.3991   XZ=             -0.1296   YZ=              2.0801

  Exact polarizability: 227.280  11.110 158.917 -19.623  12.995 137.707
 Approx polarizability: 351.894  24.917 257.107 -51.560  32.891 241.573

                      1                      2                      3
                      A                      A                      A
 Frequencies --     36.2856                39.2807                53.0838
 Red. masses --      3.3318                 4.6770                 3.6613
 Frc consts  --      0.0026                 0.0043                 0.0061
 IR Inten    --      0.7069                 0.0868                 0.0938

                      4                      5                      6
                      A                      A                      A
 Frequencies --     58.5215                92.6345               143.1697
 Red. masses --      4.5292                 3.7419                 5.0549
 Frc consts  --      0.0091                 0.0189                 0.0610
 IR Inten    --      0.6198                 2.7053                 0.6359

                      7                      8                      9
                      A                      A                      A
 Frequencies --    159.2140               187.2364               206.5564
 Red. masses --      3.3163                 5.4503                 3.8100
 Frc consts  --      0.0495                 0.1126                 0.0958
 IR Inten    --      3.0942                 4.9887                 1.0195

                     10                     11                     12
                      A                      A                      A
 Frequencies --    210.5380               226.5918               242.3560
 Red. masses --      1.1629                 1.0335                 3.6976
 Frc consts  --      0.0304                 0.0313                 0.1280
 IR Inten    --     30.0228                 0.0961                 1.8235

                     13                     14                     15
                      A                      A                      A
 Frequencies --    258.4948               273.4208               291.1541
 Red. masses --      1.4062                 3.8199                 3.2801
 Frc consts  --      0.0554                 0.1683                 0.1638
 IR Inten    --      3.1016                 5.5350                 3.5545

                     16                     17                     18
                      A                      A                      A
 Frequencies --    310.1332               348.9748               360.8351
 Red. masses --      3.1512                 5.7121                 1.4861
 Frc consts  --      0.1786                 0.4099                 0.1140
 IR Inten    --     17.9051                 0.7012               121.0192

                     19                     20                     21
                      A                      A                      A
 Frequencies --    373.0060               409.0195               421.4982
 Red. masses --      2.6734                 2.3165                 5.2171
 Frc consts  --      0.2192                 0.2283                 0.5461
 IR Inten    --     35.1914                10.4700                 2.4039

                     22                     23                     24
                      A                      A                      A
 Frequencies --    442.8411               449.6929               461.4570
 Red. masses --      5.0001                 2.5806                 4.6349
 Frc consts  --      0.5777                 0.3075                 0.5815
 IR Inten    --      8.6278                 3.2921                29.3345

                     25                     26                     27
                      A                      A                      A
 Frequencies --    533.6335               550.0428               555.0544
 Red. masses --      3.3949                 3.0099                 2.6745
 Frc consts  --      0.5696                 0.5365                 0.4855
 IR Inten    --     29.0461                16.0751                11.4661

                     28                     29                     30
                      A                      A                      A
 Frequencies --    614.4561               651.6796               662.5728
 Red. masses --      5.8942                 6.6831                 4.7000
 Frc consts  --      1.3112                 1.6722                 1.2157
 IR Inten    --      3.2182                22.5392                29.7270

                     31                     32                     33
                      A                      A                      A
 Frequencies --    684.4732               727.6772               750.1746
 Red. masses --      1.5918                 1.5784                 4.2986
 Frc consts  --      0.4394                 0.4924                 1.4253
 IR Inten    --     28.9369               265.3154                15.9294

                     34                     35                     36
                      A                      A                      A
 Frequencies --    785.5585               813.5738               828.7089
 Red. masses --      5.3888                 4.8003                 3.1969
 Frc consts  --      1.9593                 1.8720                 1.2935
 IR Inten    --     11.1988                 9.3327                 9.4237

                     37                     38                     39
                      A                      A                      A
 Frequencies --    857.2030               909.1811               932.0513
 Red. masses --      3.5612                 2.9214                 1.2168
 Frc consts  --      1.5417                 1.4228                 0.6228
 IR Inten    --     20.6446                 3.4829                 0.4371

                     40                     41                     42
                      A                      A                      A
 Frequencies --    947.6291               961.1735               990.5578
 Red. masses --      1.7282                 1.5362                 2.1251
 Frc consts  --      0.9144                 0.8362                 1.2286
 IR Inten    --      7.5998                 3.5645                 9.4950

                     43                     44                     45
                      A                      A                      A
 Frequencies --   1047.5556              1077.5333              1097.8178
 Red. masses --      6.9530                 3.8512                 2.8751
 Frc consts  --      4.4955                 2.6346                 2.0416
 IR Inten    --     63.2338                 5.4328                86.4504

                     46                     47                     48
                      A                      A                      A
 Frequencies --   1149.3801              1155.0358              1159.0886
 Red. masses --      1.7025                 2.0799                 2.3117
 Frc consts  --      1.3252                 1.6349                 1.8298
 IR Inten    --     20.5561                20.2207                42.6220

                     49                     50                     51
                      A                      A                      A
 Frequencies --   1162.7754              1183.9730              1200.9880
 Red. masses --      1.5422                 2.0041                 2.1255
 Frc consts  --      1.2285                 1.6552                 1.8063
 IR Inten    --      7.5173                 2.4153                61.9410

                     52                     53                     54
                      A                      A                      A
 Frequencies --   1213.3708              1271.9610              1292.0074
 Red. masses --      1.3746                 1.8679                 2.7732
 Frc consts  --      1.1924                 1.7805                 2.7275
 IR Inten    --      5.9642                19.5333                10.3716

                     55                     56                     57
                      A                      A                      A
 Frequencies --   1323.9499              1358.4652              1374.1200
 Red. masses --      1.2849                 1.4220                 1.9021
 Frc consts  --      1.3270                 1.5461                 2.1160
 IR Inten    --      7.6074                 0.9995                44.7843

                     58                     59                     60
                      A                      A                      A
 Frequencies --   1380.0556              1381.9061              1400.8529
 Red. masses --      1.6345                 1.3822                 1.3080
 Frc consts  --      1.8341                 1.5551                 1.5123
 IR Inten    --     12.7562                 4.4619                17.2991

                     61                     62                     63
                      A                      A                      A
 Frequencies --   1404.3517              1416.6231              1476.5094
 Red. masses --      1.2485                 1.2429                 1.0992
 Frc consts  --      1.4508                 1.4696                 1.4119
 IR Inten    --     72.0490                 9.3461                15.2926

                     64                     65                     66
                      A                      A                      A
 Frequencies --   1484.6982              1485.4633              1496.3022
 Red. masses --      1.0714                 1.0512                 1.0678
 Frc consts  --      1.3915                 1.3666                 1.4086
 IR Inten    --      1.6699                 0.8370                10.7109

                     67                     68                     69
                      A                      A                      A
 Frequencies --   1502.8383              1511.4802              1529.7725
 Red. masses --      1.1611                 1.0908                 7.5580
 Frc consts  --      1.5450                 1.4683                10.4211
 IR Inten    --     12.1310                 3.6506                46.3727

                     70                     71                     72
                      A                      A                      A
 Frequencies --   1593.5183              1648.0857              1667.6001
 Red. masses --      4.7687                 1.2635                 9.4272
 Frc consts  --      7.1346                 2.0220                15.4460
 IR Inten    --     37.1763                94.4186                26.0913

                     73                     74                     75
                      A                      A                      A
 Frequencies --   2964.9489              3024.0890              3027.7949
 Red. masses --      1.0821                 1.0563                 1.0366
 Frc consts  --      5.6046                 5.6915                 5.5993
 IR Inten    --     37.3759                29.4354                25.0530

                     76                     77                     78
                      A                      A                      A
 Frequencies --   3035.7191              3072.0820              3089.5022
 Red. masses --      1.0354                 1.1070                 1.0861
 Frc consts  --      5.6217                 6.1552                 6.1078
 IR Inten    --     11.9187                16.9035                 8.7514

                     79                     80                     81
                      A                      A                      A
 Frequencies --   3093.4569              3105.3524              3111.3418
 Red. masses --      1.0994                 1.1006                 1.1019
 Frc consts  --      6.1987                 6.2534                 6.2849
 IR Inten    --     25.9353                29.2455                14.2835

                     82                     83                     84
                      A                      A                      A
 Frequencies --   3117.8036              3269.2855              3511.0510
 Red. masses --      1.1010                 1.0939                 1.0484
 Frc consts  --      6.3055                 6.8888                 7.6147
 IR Inten    --     42.7432                 2.8894                 9.5376

                     85                     86                     87
                      A                      A                      A
 Frequencies --   3580.3654              3614.4535              3815.5648
 Red. masses --      1.0756                 1.0954                 1.0664
 Frc consts  --      8.1235                 8.4316                 9.1471
 IR Inten    --      2.9095                16.1473                19.2614

 - Thermochemistry -
 -------------------
 Temperature   298.150 Kelvin.  Pressure   1.00000 Atm.
 Atom     1 has atomic number  6 and mass  12.00000

 Molecular mass:   257.06566 amu.
 Principal axes and moments of inertia in atomic units:
                           1         2         3
     Eigenvalues --  2832.446216136.795207205.44659
           X            0.99980  -0.01576   0.01257
           Y            0.01597   0.99973  -0.01673
           Z           -0.01230   0.01693   0.99978
 This molecule is an asymmetric top.
 Rotational symmetry number  1.
 Warning -- assumption of classical behavior for rotation
           may cause significant error
 Rotational temperatures (Kelvin)      0.03058     0.01411     0.01202
 Rotational constants (GHZ):           0.63717     0.29409     0.25047
 Zero-point vibrational energy     650124.3 (Joules/Mol)
                                  155.38343 (Kcal/Mol)
 Warning -- explicit consideration of  28 degrees of freedom as
           vibrations may cause significant error
 Vibrational temperatures:     52.21    56.52    76.38    84.20   133.28
          (Kelvin)            205.99   229.07   269.39   297.19   302.92
                              326.02   348.70   371.92   393.39   418.91
                              446.21   502.10   519.16   536.67   588.49
                              606.44   637.15   647.01   663.93   767.78
                              791.39   798.60   884.07   937.62   953.29
                              984.80  1046.97  1079.33  1130.24  1170.55
                             1192.33  1233.32  1308.11  1341.01  1363.43
                             1382.91  1425.19  1507.20  1550.33  1579.52
                             1653.70  1661.84  1667.67  1672.97  1703.47
                             1727.95  1745.77  1830.07  1858.91  1904.87
                             1954.53  1977.05  1985.59  1988.25  2015.51
                             2020.55  2038.20  2124.37  2136.15  2137.25
                             2152.85  2162.25  2174.68  2201.00  2292.72
                             2371.23  2399.30  4265.90  4350.99  4356.32
                             4367.72  4420.04  4445.10  4450.79  4467.91
                             4476.53  4485.82  4703.77  5051.62  5151.35
                             5200.39  5489.75

 Zero-point correction=                           0.247619 (Hartree/Particle)
 Thermal correction to Energy=                    0.264907
 Thermal correction to Enthalpy=                  0.265851
 Thermal correction to Gibbs Free Energy=         0.202117
 Sum of electronic and zero-point Energies=          -1425.719667
 Sum of electronic and thermal Energies=             -1425.702379
 Sum of electronic and thermal Enthalpies=           -1425.701435
 Sum of electronic and thermal Free Energies=        -1425.765169

                     E (Thermal)             CV                S
                      KCal/Mol        Cal/Mol-Kelvin    Cal/Mol-Kelvin
 Total                  166.232             64.808            134.139
 Electronic               0.000              0.000              0.000
 Translational            0.889              2.981             42.532
 Rotational               0.889              2.981             33.193
 Vibrational            164.454             58.846             58.414
 Vibration     1          0.594              1.982              5.452
 Vibration     2          0.594              1.981              5.295
 Vibration     3          0.596              1.976              4.699
 Vibration     4          0.596              1.974              4.506
 Vibration     5          0.602              1.954              3.604
 Vibration     6          0.616              1.910              2.761
 Vibration     7          0.621              1.892              2.559
 Vibration     8          0.632              1.857              2.255
 Vibration     9          0.641              1.831              2.074
 Vibration    10          0.643              1.825              2.039
 Vibration    11          0.650              1.801              1.906
 Vibration    12          0.659              1.775              1.786
 Vibration    13          0.667              1.748              1.672
 Vibration    14          0.676              1.722              1.574
 Vibration    15          0.687              1.690              1.467
 Vibration    16          0.699              1.654              1.362
 Vibration    17          0.726              1.577              1.171
 Vibration    18          0.735              1.553              1.119
 Vibration    19          0.744              1.528              1.067
 Vibration    20          0.773              1.451              0.930
 Vibration    21          0.784              1.424              0.887
 Vibration    22          0.802              1.377              0.818
 Vibration    23          0.809              1.362              0.797
 Vibration    24          0.819              1.336              0.762
 Vibration    25          0.889              1.176              0.579
 Vibration    26          0.905              1.140              0.544
 Vibration    27          0.910              1.129              0.534
 Vibration    28          0.974              1.001              0.425

                           ! Non-Optimized Parameters !
 Normal termination of Gaussian 16 at Mon May 29 20:36:13 2023.
