 Gaussian 16, Revision A.03,
 Gaussian 16:  ES64L-G16RevA.03 25-Dec-2016

 -----------------------------
 # opt freq b3lyp/6-31g(2df,p)
 -----------------------------

 -------------------
 Title Card Required
 -------------------
 Symbolic Z-matrix:
 Charge =  0 Multiplicity = 1

 SCF Done:  E(RB3LYP) =  -352.317949259     A.U. after   13 cycles
 SCF Done:  E(RB3LYP) =  -352.367478995     A.U. after   11 cycles
 SCF Done:  E(RB3LYP) =  -352.403205415     A.U. after   11 cycles
 SCF Done:  E(RB3LYP) =  -352.432752266     A.U. after   11 cycles
 SCF Done:  E(RB3LYP) =  -352.445240995     A.U. after   11 cycles
 SCF Done:  E(RB3LYP) =  -352.451527196     A.U. after   10 cycles
 SCF Done:  E(RB3LYP) =  -352.457725481     A.U. after   10 cycles
 SCF Done:  E(RB3LYP) =  -352.464363436     A.U. after   11 cycles
 SCF Done:  E(RB3LYP) =  -352.474593566     A.U. after   10 cycles
 SCF Done:  E(RB3LYP) =  -352.497525038     A.U. after   10 cycles
 SCF Done:  E(RB3LYP) =  -352.541094306     A.U. after   10 cycles
 SCF Done:  E(RB3LYP) =  -352.541884146     A.U. after   10 cycles
 SCF Done:  E(RB3LYP) =  -352.542211050     A.U. after    8 cycles
 SCF Done:  E(RB3LYP) =  -352.542490064     A.U. after   10 cycles
 SCF Done:  E(RB3LYP) =  -352.542540420     A.U. after    8 cycles
 SCF Done:  E(RB3LYP) =  -352.542559500     A.U. after    8 cycles
 SCF Done:  E(RB3LYP) =  -352.542562606     A.U. after    7 cycles
 SCF Done:  E(RB3LYP) =  -352.542563583     A.U. after    7 cycles
 SCF Done:  E(RB3LYP) =  -352.542563952     A.U. after    6 cycles
 Optimization completed.
    -- Stationary point found.
 Normal termination of Gaussian 16 at Mon May 29 03:50:57 2023.

 ----------------------------------------------------------------------
 #N Geom=AllCheck Guess=TCheck SCRF=Check GenChk RB3LYP/6-31G(2df,p) Fr
 eq
 ----------------------------------------------------------------------

 Structure from the checkpoint file:  "CCqCrCC1C2CC1C2.chk"
 -------------------
 Title Card Required
 -------------------
 Charge =  0 Multiplicity = 1

                         Standard orientation:
 ---------------------------------------------------------------------
 Center     Atomic      Atomic             Coordinates (Angstroms)
 Number     Number       Type             X           Y           Z
 ---------------------------------------------------------------------
      1          6           0       -2.599028   -0.750893   -0.571325
      2          6           0       -1.496454    0.310730   -0.405043
      3          6           0       -1.811806    1.199392    0.807875
      4          6           0       -0.123050   -0.376489   -0.507171
      5          6           0        0.534355   -1.301741    0.570504
      6          6           0        1.016442   -0.039246    1.338895
      7          6           0        1.269963    0.273080   -0.173002
      8          6           0        1.867892    1.522137   -0.767330
      9          6           0        1.843313   -1.178436   -0.261147
     10          1           0       -3.587714   -0.285281   -0.641468
     11          1           0       -2.613552   -1.435154    0.284932
     12          1           0       -2.445929   -1.351882   -1.473672
     13          1           0       -1.546968    0.966432   -1.287859
     14          1           0       -1.864945    0.624100    1.738016
     15          1           0       -2.790249    1.671792    0.665648
     16          1           0       -1.079064    2.000096    0.941514
     17          1           0       -0.108416   -0.851724   -1.498135
     18          1           0        0.122002   -2.215778    1.000198
     19          1           0        0.280092    0.555095    1.872311
     20          1           0        1.916927   -0.170050    1.948033
     21          1           0        1.954464    1.437538   -1.856579
     22          1           0        2.870409    1.707895   -0.365744
     23          1           0        1.253683    2.402939   -0.549075
     24          1           0        2.777708   -1.359897    0.278100
     25          1           0        1.851793   -1.647327   -1.249754
 ---------------------------------------------------------------------

 SCF Done:  E(RB3LYP) =  -352.542563952     A.U. after    1 cycles

 The electronic state is 1-A.
 Alpha  occ. eigenvalues --  -10.19734 -10.19042 -10.18363 -10.18113 -10.17654
 Alpha  occ. eigenvalues --  -10.17332 -10.17121 -10.16920 -10.16808  -0.90175
 Alpha  occ. eigenvalues --   -0.78636  -0.72011  -0.68161  -0.65998  -0.64995
 Alpha  occ. eigenvalues --   -0.58370  -0.57045  -0.51149  -0.45731  -0.45431
 Alpha  occ. eigenvalues --   -0.44463  -0.43388  -0.40583  -0.40287  -0.38959
 Alpha  occ. eigenvalues --   -0.38343  -0.37438  -0.34187  -0.34111  -0.32574
 Alpha  occ. eigenvalues --   -0.30436  -0.29835  -0.29354  -0.28411  -0.28004
 Alpha virt. eigenvalues --    0.08088   0.09845   0.12560   0.12874   0.14188
 Alpha virt. eigenvalues --    0.14517   0.14880   0.15612   0.15755   0.16103
 Alpha virt. eigenvalues --    0.16752   0.17053   0.17967   0.18900   0.19373

 Mulliken charges:
               1
     1  C   -0.378949
     2  C   -0.021600
     3  C   -0.399989
     4  C    0.044825
     5  C   -0.070805
     6  C   -0.255465
     7  C    0.302154
     8  C   -0.517353
     9  C   -0.250443
    10  H    0.106327
    11  H    0.114591
    12  H    0.109024
    13  H    0.073802
    14  H    0.119110
    15  H    0.104343
    16  H    0.116657
    17  H    0.054095
    18  H    0.063728
    19  H    0.092398
    20  H    0.078775
    21  H    0.115793
    22  H    0.117066
    23  H    0.117895
    24  H    0.082089
    25  H    0.081933
 Sum of Mulliken charges =  -0.00000

 Dipole moment (field-independent basis, Debye):
    X=             -0.0941    Y=              0.2548    Z=             -0.1633  Tot=              0.3170
 Quadrupole moment (field-independent basis, Debye-Ang):
   XX=            -58.1084   YY=            -58.5235   ZZ=            -58.1033
   XY=             -0.0686   XZ=              0.0703   YZ=             -0.1268

  Exact polarizability: 104.001  -1.028  89.948   1.055   0.859  86.597
 Approx polarizability: 136.200  -1.443 130.992   1.561   0.597 132.998

                      1                      2                      3
                      A                      A                      A
 Frequencies --     52.0354               134.0197               193.4976
 Red. masses --      2.6978                 2.7574                 1.0426
 Frc consts  --      0.0043                 0.0292                 0.0230
 IR Inten    --      0.0016                 0.0255                 0.0081

                      4                      5                      6
                      A                      A                      A
 Frequencies --    228.3416               258.1522               266.5313
 Red. masses --      1.1614                 2.5303                 2.2828
 Frc consts  --      0.0357                 0.0994                 0.0955
 IR Inten    --      0.0019                 0.0024                 0.0673

                      7                      8                      9
                      A                      A                      A
 Frequencies --    287.7217               339.5855               346.0092
 Red. masses --      2.0805                 2.3904                 1.1143
 Frc consts  --      0.1015                 0.1624                 0.0786
 IR Inten    --      0.0197                 0.2708                 0.0127

                     10                     11                     12
                      A                      A                      A
 Frequencies --    393.8730               464.4871               554.1940
 Red. masses --      2.4357                 2.4959                 2.2099
 Frc consts  --      0.2226                 0.3173                 0.3999
 IR Inten    --      0.4629                 0.1357                 0.4854

                     13                     14                     15
                      A                      A                      A
 Frequencies --    620.1114               642.5771               755.5794
 Red. masses --      2.2265                 2.7654                 2.8922
 Frc consts  --      0.5044                 0.6728                 0.9728
 IR Inten    --      0.9445                 0.1467                 0.0886

                     16                     17                     18
                      A                      A                      A
 Frequencies --    801.6699               814.4270               889.5768
 Red. masses --      2.9374                 2.6998                 2.5040
 Frc consts  --      1.1122                 1.0551                 1.1675
 IR Inten    --      0.0658                 0.8596                 0.1157

                     19                     20                     21
                      A                      A                      A
 Frequencies --    895.0534               903.7508               927.5966
 Red. masses --      2.4489                 1.9851                 1.1730
 Frc consts  --      1.1559                 0.9553                 0.5946
 IR Inten    --      0.2784                 0.1151                 0.7900

                     22                     23                     24
                      A                      A                      A
 Frequencies --    949.4935               966.5595              1005.6381
 Red. masses --      2.0750                 1.5358                 1.0729
 Frc consts  --      1.1022                 0.8454                 0.6393
 IR Inten    --      1.0695                 0.0151                 0.6227

                     25                     26                     27
                      A                      A                      A
 Frequencies --   1014.8279              1025.9066              1041.9509
 Red. masses --      1.5027                 1.1806                 1.6723
 Frc consts  --      0.9118                 0.7321                 1.0697
 IR Inten    --      4.7842                 0.6137                 2.6874

                     28                     29                     30
                      A                      A                      A
 Frequencies --   1067.6654              1104.7335              1129.0645
 Red. masses --      1.3379                 1.6274                 1.9242
 Frc consts  --      0.8985                 1.1702                 1.4452
 IR Inten    --      0.0613                 4.1554                 1.1024

                     31                     32                     33
                      A                      A                      A
 Frequencies --   1144.0241              1163.1334              1177.0647
 Red. masses --      1.4129                 1.7924                 1.6222
 Frc consts  --      1.0895                 1.4287                 1.3242
 IR Inten    --      0.2484                 0.4686                 0.5076

                     34                     35                     36
                      A                      A                      A
 Frequencies --   1205.4990              1209.4829              1225.1519
 Red. masses --      1.6737                 1.7869                 1.8858
 Frc consts  --      1.4331                 1.5401                 1.6677
 IR Inten    --      1.0149                 0.9094                 1.3807

                     37                     38                     39
                      A                      A                      A
 Frequencies --   1239.3812              1266.0235              1318.1868
 Red. masses --      1.7796                 2.2422                 2.8103
 Frc consts  --      1.6106                 2.1174                 2.8771
 IR Inten    --      2.7220                 0.5632                16.7294

                     40                     41                     42
                      A                      A                      A
 Frequencies --   1336.6114              1368.4350              1397.6809
 Red. masses --      1.3819                 1.4375                 1.2310
 Frc consts  --      1.4546                 1.5860                 1.4168
 IR Inten    --      8.9839                 4.9404                 2.5299

                     43                     44                     45
                      A                      A                      A
 Frequencies --   1408.4401              1415.3068              1446.6911
 Red. masses --      1.3657                 1.2185                 1.2385
 Frc consts  --      1.5962                 1.4380                 1.5272
 IR Inten    --      4.8517                 1.0024                 7.8092

                     46                     47                     48
                      A                      A                      A
 Frequencies --   1487.7287              1489.0595              1490.5510
 Red. masses --      1.0515                 1.0485                 1.0467
 Frc consts  --      1.3713                 1.3698                 1.3701
 IR Inten    --      2.5483                 3.0479                 3.0544

                     49                     50                     51
                      A                      A                      A
 Frequencies --   1496.3515              1501.8920              1509.0436
 Red. masses --      1.0578                 1.0830                 1.0466
 Frc consts  --      1.3955                 1.4393                 1.4042
 IR Inten    --      2.8136                 1.4406                 6.3128

                     52                     53                     54
                      A                      A                      A
 Frequencies --   1515.8268              1551.2236              2978.2514
 Red. masses --      1.0745                 1.1654                 1.0816
 Frc consts  --      1.4547                 1.6522                 5.6524
 IR Inten    --      6.4111                 2.9307                13.6875

                     55                     56                     57
                      A                      A                      A
 Frequencies --   2997.5446              3022.1864              3024.6875
 Red. masses --      1.0831                 1.0353                 1.0349
 Frc consts  --      5.7341                 5.5714                 5.5787
 IR Inten    --     53.4307                31.7493                28.3065

                     58                     59                     60
                      A                      A                      A
 Frequencies --   3030.6874              3039.3088              3052.3411
 Red. masses --      1.0363                 1.0545                 1.0674
 Frc consts  --      5.6081                 5.7391                 5.8594
 IR Inten    --     21.0415                53.6497                51.4672

                     61                     62                     63
                      A                      A                      A
 Frequencies --   3087.2095              3088.5921              3089.3533
 Red. masses --      1.1008                 1.1007                 1.1008
 Frc consts  --      6.1815                 6.1862                 6.1902
 IR Inten    --     13.2846                18.4124                18.9148

                     64                     65                     66
                      A                      A                      A
 Frequencies --   3093.6201              3097.9015              3099.0440
 Red. masses --      1.1002                 1.1015                 1.0921
 Frc consts  --      6.2035                 6.2285                 6.1799
 IR Inten    --     47.1880                40.6261                63.7108

                     67                     68                     69
                      A                      A                      A
 Frequencies --   3104.7200              3109.2278              3175.8074
 Red. masses --      1.1101                 1.1013                 1.0938
 Frc consts  --      6.3047                 6.2726                 6.4995
 IR Inten    --     58.2894                34.9770                23.9788

 - Thermochemistry -
 -------------------
 Temperature   298.150 Kelvin.  Pressure   1.00000 Atm.
 Atom     1 has atomic number  6 and mass  12.00000

 Molecular mass:   124.12520 amu.
 Principal axes and moments of inertia in atomic units:
                           1         2         3
     Eigenvalues --   719.860401464.973601646.66121
           X            0.99994   0.01015  -0.00483
           Y           -0.01001   0.99956   0.02778
           Z            0.00511  -0.02773   0.99960
 This molecule is an asymmetric top.
 Rotational symmetry number  1.
 Warning -- assumption of classical behavior for rotation
           may cause significant error
 Rotational temperatures (Kelvin)      0.12032     0.05912     0.05260
 Rotational constants (GHZ):           2.50707     1.23193     1.09600
 Zero-point vibrational energy     601290.4 (Joules/Mol)
                                  143.71185 (Kcal/Mol)
 Warning -- explicit consideration of  13 degrees of freedom as
           vibrations may cause significant error
 Vibrational temperatures:     74.87   192.82   278.40   328.53   371.42
          (Kelvin)            383.48   413.97   488.59   497.83   566.70
                              668.29   797.36   892.20   924.53  1087.11
                             1153.42  1171.78  1279.90  1287.78  1300.30
                             1334.60  1366.11  1390.66  1446.89  1460.11
                             1476.05  1499.13  1536.13  1589.47  1624.47
                             1646.00  1673.49  1693.53  1734.44  1740.18
                             1762.72  1783.19  1821.53  1896.58  1923.09
                             1968.87  2010.95  2026.43  2036.31  2081.47
                             2140.51  2142.42  2144.57  2152.92  2160.89
                             2171.18  2180.94  2231.86  4285.04  4312.80
                             4348.25  4351.85  4360.48  4372.89  4391.64
                             4441.81  4443.80  4444.89  4451.03  4457.19
                             4458.83  4467.00  4473.49  4569.28

 Zero-point correction=                           0.229019 (Hartree/Particle)
 Thermal correction to Energy=                    0.238580
 Thermal correction to Enthalpy=                  0.239525
 Thermal correction to Gibbs Free Energy=         0.194968
 Sum of electronic and zero-point Energies=           -352.313545
 Sum of electronic and thermal Energies=              -352.303983
 Sum of electronic and thermal Enthalpies=            -352.303039
 Sum of electronic and thermal Free Energies=         -352.347596

                     E (Thermal)             CV                S
                      KCal/Mol        Cal/Mol-Kelvin    Cal/Mol-Kelvin
 Total                  149.711             37.839             93.777
 Electronic               0.000              0.000              0.000
 Translational            0.889              2.981             40.362
 Rotational               0.889              2.981             28.942
 Vibrational            147.934             31.877             24.473
 Vibration     1          0.596              1.977              4.738
 Vibration     2          0.613              1.919              2.888
 Vibration     3          0.635              1.849              2.194
 Vibration     4          0.651              1.798              1.892
 Vibration     5          0.667              1.749              1.674
 Vibration     6          0.672              1.735              1.619
 Vibration     7          0.685              1.697              1.487
 Vibration     8          0.719              1.596              1.214
 Vibration     9          0.724              1.583              1.184
 Vibration    10          0.761              1.483              0.985
 Vibration    11          0.822              1.329              0.753
 Vibration    12          0.910              1.131              0.536
 Vibration    13          0.980              0.989              0.416

 Optimization completed.
    -- Stationary point found.
 Normal termination of Gaussian 16 at Mon May 29 04:33:48 2023.
