 Gaussian 16, Revision A.03,
 Gaussian 16:  ES64L-G16RevA.03 25-Dec-2016

 -----------------------------
 # opt freq b3lyp/6-31g(2df,p)
 -----------------------------

 -------------------
 Title Card Required
 -------------------
 Symbolic Z-matrix:
 Charge =  0 Multiplicity = 1

 SCF Done:  E(RB3LYP) =  -674.199059250     A.U. after   13 cycles
 SCF Done:  E(RB3LYP) =  -674.205168520     A.U. after   11 cycles
 SCF Done:  E(RB3LYP) =  -674.205991920     A.U. after   10 cycles
 SCF Done:  E(RB3LYP) =  -674.206113444     A.U. after   10 cycles
 SCF Done:  E(RB3LYP) =  -674.206123544     A.U. after    9 cycles
 SCF Done:  E(RB3LYP) =  -674.206146708     A.U. after    9 cycles
 SCF Done:  E(RB3LYP) =  -674.206154732     A.U. after    9 cycles
 SCF Done:  E(RB3LYP) =  -674.206160853     A.U. after    9 cycles
 SCF Done:  E(RB3LYP) =  -674.206165280     A.U. after    9 cycles
 SCF Done:  E(RB3LYP) =  -674.206168583     A.U. after    9 cycles
 SCF Done:  E(RB3LYP) =  -674.206170802     A.U. after    9 cycles
 SCF Done:  E(RB3LYP) =  -674.206172254     A.U. after    8 cycles
 SCF Done:  E(RB3LYP) =  -674.206173667     A.U. after    8 cycles
 SCF Done:  E(RB3LYP) =  -674.206176162     A.U. after    9 cycles
 SCF Done:  E(RB3LYP) =  -674.206178251     A.U. after    9 cycles
 SCF Done:  E(RB3LYP) =  -674.206178750     A.U. after    7 cycles
 SCF Done:  E(RB3LYP) =  -674.206178798     A.U. after    6 cycles
 SCF Done:  E(RB3LYP) =  -674.206178816     A.U. after    6 cycles
 Optimization completed.
    -- Stationary point found.
 Normal termination of Gaussian 16 at Mon May 22 12:55:24 2023.

 ----------------------------------------------------------------------
 #N Geom=AllCheck Guess=TCheck SCRF=Check GenChk RB3LYP/6-31G(2df,p) Fr
 eq
 ----------------------------------------------------------------------

 Structure from the checkpoint file:  "CCqCCCCOrCOCqdOrNqCrC.chk"
 -------------------
 Title Card Required
 -------------------
 Charge =  0 Multiplicity = 1

                         Standard orientation:
 ---------------------------------------------------------------------
 Center     Atomic      Atomic             Coordinates (Angstroms)
 Number     Number       Type             X           Y           Z
 ---------------------------------------------------------------------
      1          6           0       -0.878445    3.089695    0.303023
      2          6           0       -0.345939    1.656654    0.446001
      3          6           0       -1.220253    0.620862   -0.284778
      4          6           0       -2.609984    0.406642    0.326586
      5          6           0       -3.413599   -0.686138   -0.387395
      6          6           0       -4.803105   -0.898814    0.213802
      7          8           0       -5.523527   -1.952168   -0.407098
      8          6           0        1.096375    1.609034   -0.054148
      9          8           0        1.648440    0.324507    0.275925
     10          6           0        2.877947    0.073546   -0.245454
     11          8           0        3.466226    0.851903   -0.968313
     12          7           0        3.356385   -1.144515    0.147608
     13          6           0        2.635817   -2.075614    0.994446
     14          6           0        4.635576   -1.590640   -0.370258
     15          1           0       -1.891864    3.182384    0.701569
     16          1           0       -0.905271    3.395294   -0.749705
     17          1           0       -0.246350    3.803795    0.840953
     18          1           0       -0.326854    1.397852    1.514218
     19          1           0       -0.687358   -0.336520   -0.294631
     20          1           0       -1.325907    0.924364   -1.336589
     21          1           0       -3.181575    1.343343    0.306596
     22          1           0       -2.500397    0.140128    1.387221
     23          1           0       -2.870173   -1.638563   -0.355813
     24          1           0       -3.520511   -0.425185   -1.450925
     25          1           0       -5.372281    0.045392    0.185900
     26          1           0       -4.715075   -1.185698    1.267896
     27          1           0       -5.642260   -1.718422   -1.333191
     28          1           0        1.704441    2.388699    0.417528
     29          1           0        1.152491    1.759019   -1.137397
     30          1           0        1.752172   -1.598658    1.409679
     31          1           0        3.280174   -2.407157    1.818511
     32          1           0        2.327482   -2.967364    0.430936
     33          1           0        5.060485   -0.795355   -0.979839
     34          1           0        4.516250   -2.493804   -0.983666
     35          1           0        5.322235   -1.827241    0.452432
 ---------------------------------------------------------------------

 SCF Done:  E(RB3LYP) =  -674.206178816     A.U. after    1 cycles

 The electronic state is 1-A.
 Alpha  occ. eigenvalues --  -19.17003 -19.13050 -19.09692 -14.35454 -10.31089
 Alpha  occ. eigenvalues --  -10.22953 -10.22318 -10.21584 -10.20961 -10.19118
 Alpha  occ. eigenvalues --  -10.18305 -10.17985 -10.17885 -10.17837  -1.09334
 Alpha  occ. eigenvalues --   -1.01138  -0.99831  -0.93373  -0.81910  -0.77973
 Alpha  occ. eigenvalues --   -0.72536  -0.71557  -0.70366  -0.66707  -0.63401
 Alpha  occ. eigenvalues --   -0.59075  -0.56692  -0.55579  -0.52530  -0.50279
 Alpha  occ. eigenvalues --   -0.48874  -0.47602  -0.46850  -0.46509  -0.44441
 Alpha  occ. eigenvalues --   -0.43879  -0.42894  -0.41977  -0.40621  -0.40052
 Alpha  occ. eigenvalues --   -0.39941  -0.39120  -0.38717  -0.37764  -0.37127
 Alpha  occ. eigenvalues --   -0.36276  -0.35122  -0.34723  -0.32873  -0.32454
 Alpha  occ. eigenvalues --   -0.32208  -0.31054  -0.28705  -0.26206  -0.26181
 Alpha  occ. eigenvalues --   -0.23583
 Alpha virt. eigenvalues --    0.06305   0.07787   0.08164   0.08813   0.10144
 Alpha virt. eigenvalues --    0.10873   0.11248   0.13060   0.13560   0.14366
 Alpha virt. eigenvalues --    0.14603   0.15504   0.15889   0.16300   0.16843

 Mulliken charges:
               1
     1  C   -0.403622
     2  C   -0.007720
     3  C   -0.176609
     4  C   -0.192660
     5  C   -0.197656
     6  C   -0.057396
     7  O   -0.418935
     8  C   -0.061123
     9  O   -0.279482
    10  C    0.528181
    11  O   -0.427477
    12  N   -0.145316
    13  C   -0.339337
    14  C   -0.338553
    15  H    0.120149
    16  H    0.117526
    17  H    0.116351
    18  H    0.077820
    19  H    0.105797
    20  H    0.089476
    21  H    0.096694
    22  H    0.095853
    23  H    0.104815
    24  H    0.083980
    25  H    0.083232
    26  H    0.109437
    27  H    0.279078
    28  H    0.109991
    29  H    0.119934
    30  H    0.158950
    31  H    0.121839
    32  H    0.120551
    33  H    0.168617
    34  H    0.118459
    35  H    0.119155
 Sum of Mulliken charges =  -0.00000

 Dipole moment (field-independent basis, Debye):
    X=             -0.4072    Y=             -0.3849    Z=              0.6371  Tot=              0.8484
 Quadrupole moment (field-independent basis, Debye-Ang):
   XX=            -95.9127   YY=            -87.1101   ZZ=            -84.6019
   XY=            -16.7931   XZ=             10.1007   YZ=              2.0134

  Exact polarizability: 148.422  -5.305 134.565  -2.501  -3.516 107.101
 Approx polarizability: 174.313  -2.591 185.216  -4.550 -10.714 168.634

                      1                      2                      3
                      A                      A                      A
 Frequencies --     16.9023                28.3547                41.4896
 Red. masses --      4.2320                 4.1312                 1.6812
 Frc consts  --      0.0007                 0.0020                 0.0017
 IR Inten    --      1.4348                 1.4702                 3.3014

                      4                      5                      6
                      A                      A                      A
 Frequencies --     57.0270                72.7714                86.1885
 Red. masses --      1.9764                 1.9324                 3.4420
 Frc consts  --      0.0038                 0.0060                 0.0151
 IR Inten    --      0.0179                 0.1719                 0.9707

                      7                      8                      9
                      A                      A                      A
 Frequencies --    102.4120               115.4660               134.7166
 Red. masses --      3.2219                 2.8292                 1.9864
 Frc consts  --      0.0199                 0.0222                 0.0212
 IR Inten    --      0.4679                 0.5188                 3.4997

                     10                     11                     12
                      A                      A                      A
 Frequencies --    141.2921               147.1477               170.1833
 Red. masses --      1.7750                 1.7921                 2.3324
 Frc consts  --      0.0209                 0.0229                 0.0398
 IR Inten    --      3.4763                 0.1882                 1.4930

                     13                     14                     15
                      A                      A                      A
 Frequencies --    201.7166               222.7639               229.4202
 Red. masses --      1.9058                 2.2161                 1.6335
 Frc consts  --      0.0457                 0.0648                 0.0507
 IR Inten    --      1.9450                 1.5213                 0.5923

                     16                     17                     18
                      A                      A                      A
 Frequencies --    239.4579               280.1405               308.2679
 Red. masses --      2.5346                 2.9281                 1.2303
 Frc consts  --      0.0856                 0.1354                 0.0689
 IR Inten    --      1.8729                10.7339               100.1190

                     19                     20                     21
                      A                      A                      A
 Frequencies --    326.9336               381.4568               408.0613
 Red. masses --      3.1833                 2.9892                 3.0702
 Frc consts  --      0.2005                 0.2563                 0.3012
 IR Inten    --      3.4782                 7.9228                13.0989

                     22                     23                     24
                      A                      A                      A
 Frequencies --    433.2208               452.3885               525.9361
 Red. masses --      2.9952                 2.3818                 3.3218
 Frc consts  --      0.3312                 0.2872                 0.5414
 IR Inten    --      4.5337                 8.1625                 2.5366

                     25                     26                     27
                      A                      A                      A
 Frequencies --    574.6569               626.9279               740.5898
 Red. masses --      4.0932                 5.4245                 1.0891
 Frc consts  --      0.7964                 1.2562                 0.3519
 IR Inten    --      3.8549                 4.7277                 3.2560

                     28                     29                     30
                      A                      A                      A
 Frequencies --    770.4316               785.6195               831.9680
 Red. masses --     11.6322                 1.2059                 3.0701
 Frc consts  --      4.0680                 0.4385                 1.2520
 IR Inten    --     16.1052                 0.2177                 2.9770

                     31                     32                     33
                      A                      A                      A
 Frequencies --    874.0918               902.0783               921.1547
 Red. masses --      3.7612                 1.2931                 1.3829
 Frc consts  --      1.6932                 0.6200                 0.6914
 IR Inten    --     12.1791                 5.5822                 4.4738

                     34                     35                     36
                      A                      A                      A
 Frequencies --    961.2619               999.6415              1007.3219
 Red. masses --      1.7322                 3.4590                 2.3758
 Frc consts  --      0.9431                 2.0365                 1.4204
 IR Inten    --      5.7834                33.6759                23.2599

                     37                     38                     39
                      A                      A                      A
 Frequencies --   1026.9980              1040.8788              1065.7413
 Red. masses --      1.7362                 3.3742                 2.3952
 Frc consts  --      1.0789                 2.1539                 1.6029
 IR Inten    --     13.9466                 7.3307                 3.1015

                     40                     41                     42
                      A                      A                      A
 Frequencies --   1080.7807              1084.7095              1086.7518
 Red. masses --      3.9373                 2.7413                 1.4188
 Frc consts  --      2.7097                 1.9004                 0.9872
 IR Inten    --    110.0072                23.5995                13.8554

                     43                     44                     45
                      A                      A                      A
 Frequencies --   1126.2482              1136.3343              1142.0030
 Red. masses --      1.4781                 1.2236                 2.1991
 Frc consts  --      1.1046                 0.9309                 1.6898
 IR Inten    --      4.2685                 0.2045                 3.6993

                     46                     47                     48
                      A                      A                      A
 Frequencies --   1175.3210              1182.7955              1203.8502
 Red. masses --      2.0677                 1.3721                 1.6996
 Frc consts  --      1.6829                 1.1309                 1.4513
 IR Inten    --      0.9520                13.0915                11.5768

                     49                     50                     51
                      A                      A                      A
 Frequencies --   1211.6416              1246.4404              1264.3722
 Red. masses --      3.4786                 1.2314                 1.2743
 Frc consts  --      3.0089                 1.1272                 1.2002
 IR Inten    --    557.2039                 0.6853                 4.4942

                     52                     53                     54
                      A                      A                      A
 Frequencies --   1286.6681              1293.9838              1314.5376
 Red. masses --      1.2985                 6.0800                 1.2220
 Frc consts  --      1.2666                 5.9980                 1.2442
 IR Inten    --     12.8421                60.5292                 2.9101

                     55                     56                     57
                      A                      A                      A
 Frequencies --   1324.3311              1333.8838              1345.8626
 Red. masses --      1.0899                 1.2028                 1.2652
 Frc consts  --      1.1263                 1.2609                 1.3503
 IR Inten    --      0.1006                 0.2732                13.3379

                     58                     59                     60
                      A                      A                      A
 Frequencies --   1377.8806              1393.5896              1398.7549
 Red. masses --      1.3362                 1.5380                 1.4872
 Frc consts  --      1.4947                 1.7598                 1.7144
 IR Inten    --      0.5080                52.8569                17.5271

                     61                     62                     63
                      A                      A                      A
 Frequencies --   1402.4191              1413.9998              1424.6384
 Red. masses --      1.4860                 1.2659                 1.2971
 Frc consts  --      1.7220                 1.4912                 1.5510
 IR Inten    --      3.2399                31.8755                50.9817

                     64                     65                     66
                      A                      A                      A
 Frequencies --   1434.3921              1439.0791              1471.9385
 Red. masses --      1.3598                 1.4685                 1.2543
 Frc consts  --      1.6484                 1.7918                 1.6012
 IR Inten    --     53.8854                72.9314                77.5218

                     67                     68                     69
                      A                      A                      A
 Frequencies --   1482.9315              1486.8969              1489.9924
 Red. masses --      1.0741                 1.0820                 1.0434
 Frc consts  --      1.3916                 1.4094                 1.3648
 IR Inten    --      0.7185                 0.3873                 1.9953

                     70                     71                     72
                      A                      A                      A
 Frequencies --   1498.5856              1501.0698              1501.6301
 Red. masses --      1.0703                 1.0522                 1.0502
 Frc consts  --      1.4162                 1.3969                 1.3953
 IR Inten    --      0.7759                 4.5019                12.5613

                     73                     74                     75
                      A                      A                      A
 Frequencies --   1504.2094              1506.0165              1514.3249
 Red. masses --      1.0508                 1.0723                 1.0832
 Frc consts  --      1.4009                 1.4329                 1.4636
 IR Inten    --     11.2788                 4.7514                 8.2405

                     76                     77                     78
                      A                      A                      A
 Frequencies --   1517.8893              1548.0826              1791.5049
 Red. masses --      1.0961                 1.3473                10.7421
 Frc consts  --      1.4879                 1.9024                20.3130
 IR Inten    --      0.7556                78.3055               353.0511

                     79                     80                     81
                      A                      A                      A
 Frequencies --   2965.0045              2997.5068              3000.6878
 Red. masses --      1.0709                 1.0656                 1.0696
 Frc consts  --      5.5471                 5.6411                 5.6745
 IR Inten    --     53.8008                 8.5404                 1.2744

                     82                     83                     84
                      A                      A                      A
 Frequencies --   3002.1660              3007.0268              3010.3384
 Red. masses --      1.0425                 1.0711                 1.0423
 Frc consts  --      5.5362                 5.7061                 5.5652
 IR Inten    --     33.3405                 4.4822                99.8120

                     85                     86                     87
                      A                      A                      A
 Frequencies --   3016.6093              3030.1997              3037.9316
 Red. masses --      1.0678                 1.0411                 1.0884
 Frc consts  --      5.7251                 5.6323                 5.9183
 IR Inten    --     67.6736                 9.2305                 6.3809

                     88                     89                     90
                      A                      A                      A
 Frequencies --   3040.9887              3048.4771              3052.1005
 Red. masses --      1.0583                 1.0991                 1.0904
 Frc consts  --      5.7665                 6.0180                 5.9847
 IR Inten    --     37.4361                61.5419                 9.8861

                     91                     92                     93
                      A                      A                      A
 Frequencies --   3053.4779              3067.1761              3076.8302
 Red. masses --      1.1023                 1.0962                 1.1005
 Frc consts  --      6.0556                 6.0759                 6.1386
 IR Inten    --     11.7123                12.3447               101.4885

                     94                     95                     96
                      A                      A                      A
 Frequencies --   3084.8700              3095.9155              3114.9720
 Red. masses --      1.1060                 1.1010                 1.0993
 Frc consts  --      6.2012                 6.2176                 6.2843
 IR Inten    --      8.2275                51.8263                30.0100

                     97                     98                     99
                      A                      A                      A
 Frequencies --   3170.9427              3186.1749              3814.3824
 Red. masses --      1.0948                 1.0930                 1.0661
 Frc consts  --      6.4857                 6.5374                 9.1387
 IR Inten    --      1.1213                 3.4821                14.8589

 - Thermochemistry -
 -------------------
 Temperature   298.150 Kelvin.  Pressure   1.00000 Atm.
 Atom     1 has atomic number  6 and mass  12.00000

 Molecular mass:   203.15214 amu.
 Principal axes and moments of inertia in atomic units:
                           1         2         3
     Eigenvalues --  1870.831767693.327719104.52150
           X            0.99982  -0.01907   0.00226
           Y            0.01907   0.99982  -0.00025
           Z           -0.00226   0.00029   1.00000
 This molecule is an asymmetric top.
 Rotational symmetry number  1.
 Warning -- assumption of classical behavior for rotation
           may cause significant error
 Rotational temperatures (Kelvin)      0.04630     0.01126     0.00951
 Rotational constants (GHZ):           0.96467     0.23459     0.19822
 Zero-point vibrational energy     813862.6 (Joules/Mol)
                                  194.51782 (Kcal/Mol)
 Warning -- explicit consideration of  25 degrees of freedom as
           vibrations may cause significant error
 Vibrational temperatures:     24.32    40.80    59.69    82.05   104.70
          (Kelvin)            124.01   147.35   166.13   193.83   203.29
                              211.71   244.86   290.23   320.51   330.08
                              344.53   403.06   443.53   470.38   548.83
                              587.11   623.31   650.89   756.70   826.80
                              902.01  1065.54  1108.48  1130.33  1197.02
                             1257.62  1297.89  1325.34  1383.04  1438.26
                             1449.31  1477.62  1497.59  1533.36  1555.00
                             1560.66  1563.59  1620.42  1634.93  1643.09
                             1691.02  1701.78  1732.07  1743.28  1793.35
                             1819.15  1851.23  1861.75  1891.33  1905.42
                             1919.16  1936.40  1982.46  2005.06  2012.50
                             2017.77  2034.43  2049.74  2063.77  2070.51
                             2117.79  2133.61  2139.31  2143.77  2156.13
                             2159.70  2160.51  2164.22  2166.82  2178.78
                             2183.90  2227.35  2577.58  4265.98  4312.74
                             4317.32  4319.45  4326.44  4331.21  4340.23
                             4359.78  4370.91  4375.30  4386.08  4391.29
                             4393.27  4412.98  4426.87  4438.44  4454.33
                             4481.75  4562.28  4584.19  5488.05

 Zero-point correction=                           0.309984 (Hartree/Particle)
 Thermal correction to Energy=                    0.328017
 Thermal correction to Enthalpy=                  0.328962
 Thermal correction to Gibbs Free Energy=         0.261095
 Sum of electronic and zero-point Energies=           -673.896195
 Sum of electronic and thermal Energies=              -673.878161
 Sum of electronic and thermal Enthalpies=            -673.877217
 Sum of electronic and thermal Free Energies=         -673.945084

                     E (Thermal)             CV                S
                      KCal/Mol        Cal/Mol-Kelvin    Cal/Mol-Kelvin
 Total                  205.834             62.290            142.838
 Electronic               0.000              0.000              0.000
 Translational            0.889              2.981             41.831
 Rotational               0.889              2.981             33.238
 Vibrational            204.057             56.328             67.769
 Vibration     1          0.593              1.986              6.968
 Vibration     2          0.593              1.984              5.941
 Vibration     3          0.594              1.981              5.187
 Vibration     4          0.596              1.975              4.558
 Vibration     5          0.599              1.967              4.077
 Vibration     6          0.601              1.959              3.745
 Vibration     7          0.604              1.947              3.408
 Vibration     8          0.608              1.937              3.175
 Vibration     9          0.613              1.919              2.878
 Vibration    10          0.615              1.912              2.786
 Vibration    11          0.617              1.906              2.709
 Vibration    12          0.625              1.879              2.433
 Vibration    13          0.639              1.837              2.117
 Vibration    14          0.648              1.806              1.937
 Vibration    15          0.652              1.796              1.883
 Vibration    16          0.657              1.780              1.807
 Vibration    17          0.680              1.710              1.533
 Vibration    18          0.698              1.658              1.372
 Vibration    19          0.711              1.622              1.275
 Vibration    20          0.751              1.510              1.033
 Vibration    21          0.773              1.453              0.933
 Vibration    22          0.794              1.398              0.848
 Vibration    23          0.811              1.356              0.789
 Vibration    24          0.881              1.193              0.596
 Vibration    25          0.931              1.086              0.495

                           ! Non-Optimized Parameters !
 Normal termination of Gaussian 16 at Mon May 22 14:45:29 2023.
