 Gaussian 16, Revision A.03,
 Gaussian 16:  ES64L-G16RevA.03 25-Dec-2016

 -----------------------------
 # opt freq b3lyp/6-31g(2df,p)
 -----------------------------

 -------------------
 Title Card Required
 -------------------
 Symbolic Z-matrix:
 Charge =  0 Multiplicity = 1

 SCF Done:  E(RB3LYP) =  -542.320456470     A.U. after   12 cycles
 SCF Done:  E(RB3LYP) =  -542.327600391     A.U. after   10 cycles
 SCF Done:  E(RB3LYP) =  -542.328283536     A.U. after   10 cycles
 SCF Done:  E(RB3LYP) =  -542.328542061     A.U. after   10 cycles
 SCF Done:  E(RB3LYP) =  -542.328631673     A.U. after    9 cycles
 SCF Done:  E(RB3LYP) =  -542.328656497     A.U. after    9 cycles
 SCF Done:  E(RB3LYP) =  -542.328676695     A.U. after    9 cycles
 SCF Done:  E(RB3LYP) =  -542.328680824     A.U. after    8 cycles
 SCF Done:  E(RB3LYP) =  -542.328686170     A.U. after    9 cycles
 SCF Done:  E(RB3LYP) =  -542.328687253     A.U. after    7 cycles
 SCF Done:  E(RB3LYP) =  -542.328687510     A.U. after    7 cycles
 SCF Done:  E(RB3LYP) =  -542.328687624     A.U. after    7 cycles
 SCF Done:  E(RB3LYP) =  -542.328687657     A.U. after    6 cycles
 Optimization completed.
    -- Stationary point found.
 Normal termination of Gaussian 16 at Sat May 27 17:44:15 2023.

 ----------------------------------------------------------------------
 #N Geom=AllCheck Guess=TCheck SCRF=Check GenChk RB3LYP/6-31G(2df,p) Fr
 eq
 ----------------------------------------------------------------------

 Structure from the checkpoint file:  "CCqdCCqOrCCOrCC1CC1.chk"
 -------------------
 Title Card Required
 -------------------
 Charge =  0 Multiplicity = 1

                         Standard orientation:
 ---------------------------------------------------------------------
 Center     Atomic      Atomic             Coordinates (Angstroms)
 Number     Number       Type             X           Y           Z
 ---------------------------------------------------------------------
      1          6           0       -0.919065    2.537345   -0.521249
      2          6           0       -1.110751    1.092803   -0.129937
      3          6           0       -0.097294    0.232755    0.027103
      4          6           0        1.373838    0.554277   -0.132689
      5          8           0        1.814504    1.571836    0.784226
      6          6           0        2.240360   -0.704497   -0.001844
      7          6           0        3.726602   -0.438573   -0.240421
      8          8           0        4.517534   -1.615872   -0.146552
      9          6           0       -2.561164    0.690860    0.054696
     10          6           0       -2.835339   -0.726554    0.504683
     11          6           0       -4.167966   -1.365054    0.204129
     12          6           0       -2.924823   -1.849927   -0.499219
     13          1           0        0.129420    2.833335   -0.520918
     14          1           0       -1.454232    3.198094    0.172335
     15          1           0       -1.345885    2.726420   -1.515131
     16          1           0       -0.325497   -0.796831    0.288717
     17          1           0        1.554886    0.994643   -1.122767
     18          1           0        1.352696    1.415087    1.614952
     19          1           0        1.891728   -1.463165   -0.713269
     20          1           0        2.099067   -1.126400    1.005207
     21          1           0        4.076399    0.343332    0.446756
     22          1           0        3.877539   -0.064409   -1.259646
     23          1           0        4.482881   -1.917824    0.766460
     24          1           0       -3.088757    0.873994   -0.894383
     25          1           0       -3.022732    1.393486    0.765607
     26          1           0       -2.398333   -0.984640    1.465807
     27          1           0       -4.886449   -0.791105   -0.372394
     28          1           0       -4.615463   -2.003251    0.957976
     29          1           0       -2.804147   -1.597189   -1.547600
     30          1           0       -2.525798   -2.821896   -0.230608
 ---------------------------------------------------------------------

 SCF Done:  E(RB3LYP) =  -542.328687657     A.U. after    1 cycles

 The electronic state is 1-A.
 Alpha  occ. eigenvalues --  -19.13202 -19.12547 -10.23091 -10.21546 -10.19309
 Alpha  occ. eigenvalues --  -10.19170 -10.18891 -10.18452 -10.18426 -10.17545
 Alpha  occ. eigenvalues --  -10.17492 -10.17055  -1.01177  -1.00516  -0.86011
 Alpha  occ. eigenvalues --   -0.80834  -0.76838  -0.70650  -0.69459  -0.63931
 Alpha  occ. eigenvalues --   -0.59978  -0.59428  -0.57717  -0.53118  -0.49673
 Alpha  occ. eigenvalues --   -0.49232  -0.47294  -0.46461  -0.45861  -0.43922
 Alpha  occ. eigenvalues --   -0.42851  -0.41121  -0.40093  -0.39306  -0.38705
 Alpha  occ. eigenvalues --   -0.37304  -0.36617  -0.36265  -0.35429  -0.34119
 Alpha  occ. eigenvalues --   -0.31395  -0.31349  -0.28829  -0.28226  -0.27706
 Alpha  occ. eigenvalues --   -0.25251  -0.23780
 Alpha virt. eigenvalues --    0.01054   0.08280   0.08775   0.09781   0.09886
 Alpha virt. eigenvalues --    0.11562   0.12073   0.12788   0.13929   0.14784
 Alpha virt. eigenvalues --    0.15269   0.16271   0.16534   0.17225   0.17520

 Mulliken charges:
               1
     1  C   -0.487903
     2  C    0.272654
     3  C   -0.177057
     4  C    0.064313
     5  O   -0.432189
     6  C   -0.207040
     7  C   -0.071721
     8  O   -0.422038
     9  C   -0.277799
    10  C    0.027818
    11  C   -0.289035
    12  C   -0.248139
    13  H    0.150635
    14  H    0.120031
    15  H    0.121711
    16  H    0.084985
    17  H    0.091273
    18  H    0.273523
    19  H    0.105552
    20  H    0.075956
    21  H    0.104354
    22  H    0.107148
    23  H    0.277669
    24  H    0.102784
    25  H    0.104872
    26  H    0.083630
    27  H    0.109829
    28  H    0.110684
    29  H    0.112969
    30  H    0.110533
 Sum of Mulliken charges =  -0.00000

 Dipole moment (field-independent basis, Debye):
    X=             -2.4182    Y=             -0.0962    Z=              1.4583  Tot=              2.8256
 Quadrupole moment (field-independent basis, Debye-Ang):
   XX=            -83.7112   YY=            -76.4656   ZZ=            -69.8267
   XY=             -0.6352   XZ=              5.1963   YZ=             -4.0360

  Exact polarizability: 140.403  -5.733 115.545   1.200  -3.447  92.419
 Approx polarizability: 174.673 -14.069 164.238   2.960  -3.773 147.156

                      1                      2                      3
                      A                      A                      A
 Frequencies --     34.5101                54.2404                60.8291
 Red. masses --      3.5733                 3.9677                 2.5928
 Frc consts  --      0.0025                 0.0069                 0.0057
 IR Inten    --      0.7224                 0.1023                 1.0417

                      4                      5                      6
                      A                      A                      A
 Frequencies --     82.6815               101.2572               103.5353
 Red. masses --      2.1976                 2.7007                 2.7801
 Frc consts  --      0.0089                 0.0163                 0.0176
 IR Inten    --      1.1897                 4.1566                 2.7117

                      7                      8                      9
                      A                      A                      A
 Frequencies --    127.8562               146.3662               188.0936
 Red. masses --      1.1670                 2.7695                 3.1786
 Frc consts  --      0.0112                 0.0350                 0.0663
 IR Inten    --      0.3811                 0.6868                 0.5749

                     10                     11                     12
                      A                      A                      A
 Frequencies --    237.3271               263.5847               276.8661
 Red. masses --      2.9282                 1.4120                 2.0717
 Frc consts  --      0.0972                 0.0578                 0.0936
 IR Inten    --      4.8535                77.3945                26.6508

                     13                     14                     15
                      A                      A                      A
 Frequencies --    291.3710               313.6334               339.4460
 Red. masses --      1.1816                 2.5345                 4.2590
 Frc consts  --      0.0591                 0.1469                 0.2891
 IR Inten    --    107.7642                 2.7722                 3.8475

                     16                     17                     18
                      A                      A                      A
 Frequencies --    388.1176               424.9331               442.7134
 Red. masses --      3.5360                 2.2132                 2.6838
 Frc consts  --      0.3138                 0.2355                 0.3099
 IR Inten    --      6.5348                 1.6190                 5.4853

                     19                     20                     21
                      A                      A                      A
 Frequencies --    494.2313               540.5381               661.5329
 Red. masses --      3.2812                 2.1582                 3.0756
 Frc consts  --      0.4722                 0.3715                 0.7930
 IR Inten    --      7.2472                 1.9712                19.9284

                     22                     23                     24
                      A                      A                      A
 Frequencies --    772.9661               786.9557               796.1162
 Red. masses --      1.1297                 1.2790                 1.6505
 Frc consts  --      0.3977                 0.4667                 0.6163
 IR Inten    --      0.6360                 0.1166                 1.9965

                     25                     26                     27
                      A                      A                      A
 Frequencies --    829.3861               845.6526               849.2075
 Red. masses --      1.5425                 1.8044                 2.6343
 Frc consts  --      0.6251                 0.7603                 1.1193
 IR Inten    --      7.6160                 6.6990                 1.3622

                     28                     29                     30
                      A                      A                      A
 Frequencies --    902.8956               914.9949               957.1173
 Red. masses --      2.4715                 1.8616                 2.3998
 Frc consts  --      1.1871                 0.9183                 1.2952
 IR Inten    --     20.3078                27.0722                 8.3392

                     31                     32                     33
                      A                      A                      A
 Frequencies --    982.2528              1012.7457              1025.8215
 Red. masses --      1.8538                 2.0115                 2.4283
 Frc consts  --      1.0538                 1.2155                 1.5056
 IR Inten    --      2.4764                12.3543                30.5842

                     34                     35                     36
                      A                      A                      A
 Frequencies --   1042.8880              1053.7846              1066.6081
 Red. masses --      1.8480                 1.4139                 1.6810
 Frc consts  --      1.1842                 0.9251                 1.1268
 IR Inten    --     25.1267                21.1537                 1.9639

                     37                     38                     39
                      A                      A                      A
 Frequencies --   1076.6757              1078.7438              1084.1147
 Red. masses --      3.3507                 1.4319                 2.7101
 Frc consts  --      2.2885                 0.9818                 1.8767
 IR Inten    --    115.3249                 3.2582                 8.4600

                     40                     41                     42
                      A                      A                      A
 Frequencies --   1130.2317              1142.7042              1150.7722
 Red. masses --      2.5910                 1.1116                 1.2811
 Frc consts  --      1.9501                 0.8552                 0.9996
 IR Inten    --     14.9161                 1.4389                22.3282

                     43                     44                     45
                      A                      A                      A
 Frequencies --   1161.1760              1198.1887              1207.6871
 Red. masses --      1.6086                 1.4453                 1.9584
 Frc consts  --      1.2779                 1.2225                 1.6829
 IR Inten    --      7.1588                 0.2731                 4.9079

                     46                     47                     48
                      A                      A                      A
 Frequencies --   1227.2222              1248.1936              1271.4637
 Red. masses --      1.7289                 1.3020                 1.3255
 Frc consts  --      1.5341                 1.1952                 1.2625
 IR Inten    --      0.3161                 7.2061                 2.8213

                     49                     50                     51
                      A                      A                      A
 Frequencies --   1282.9357              1313.0113              1323.9861
 Red. masses --      1.3638                 1.2339                 1.2865
 Frc consts  --      1.3225                 1.2533                 1.3287
 IR Inten    --      6.2429                 8.5713                14.2488

                     52                     53                     54
                      A                      A                      A
 Frequencies --   1360.0288              1386.1152              1402.4318
 Red. masses --      1.3704                 1.3328                 1.3274
 Frc consts  --      1.4934                 1.5087                 1.5383
 IR Inten    --     15.5730                 9.9882                 1.8849

                     55                     56                     57
                      A                      A                      A
 Frequencies --   1408.7319              1413.4133              1422.2530
 Red. masses --      1.2844                 1.2677                 1.2893
 Frc consts  --      1.5018                 1.4921                 1.5366
 IR Inten    --     39.5890                 4.5307                60.0914

                     58                     59                     60
                      A                      A                      A
 Frequencies --   1425.1131              1464.0071              1472.3130
 Red. masses --      1.6849                 1.1087                 1.0867
 Frc consts  --      2.0161                 1.4000                 1.3879
 IR Inten    --      5.3375                 4.4477                 1.2377

                     61                     62                     63
                      A                      A                      A
 Frequencies --   1476.9705              1478.6978              1499.0048
 Red. masses --      1.0906                 1.0638                 1.0578
 Frc consts  --      1.4017                 1.3705                 1.4005
 IR Inten    --      0.8357                 5.5848                 7.2047

                     64                     65                     66
                      A                      A                      A
 Frequencies --   1507.6557              1516.1071              1722.0902
 Red. masses --      1.3791                 1.0919                 6.9308
 Frc consts  --      1.8469                 1.4787                12.1101
 IR Inten    --      1.9877                 0.1342                32.6921

                     67                     68                     69
                      A                      A                      A
 Frequencies --   2984.6806              2991.9372              3006.5375
 Red. masses --      1.0595                 1.0678                 1.0986
 Frc consts  --      5.5608                 5.6315                 5.8510
 IR Inten    --     30.9151                11.3743                20.3109

                     70                     71                     72
                      A                      A                      A
 Frequencies --   3011.6892              3017.4517              3018.7116
 Red. masses --      1.0756                 1.0647                 1.0451
 Frc consts  --      5.7479                 5.7118                 5.6111
 IR Inten    --     17.4793                37.2077                50.5858

                     73                     74                     75
                      A                      A                      A
 Frequencies --   3052.6477              3061.8610              3075.0890
 Red. masses --      1.0923                 1.0973                 1.1041
 Frc consts  --      5.9969                 6.0611                 6.1514
 IR Inten    --      7.1041                19.1918                58.1785

                     76                     77                     78
                      A                      A                      A
 Frequencies --   3127.7363              3132.1276              3138.4107
 Red. masses --      1.0507                 1.0599                 1.0868
 Frc consts  --      6.0560                 6.1261                 6.3070
 IR Inten    --     21.7046                15.7221                 7.3952

                     79                     80                     81
                      A                      A                      A
 Frequencies --   3153.1722              3162.2073              3205.3428
 Red. masses --      1.0956                 1.0874                 1.1176
 Frc consts  --      6.4177                 6.4062                 6.7651
 IR Inten    --      6.4091                 8.8235                 0.3726

                     82                     83                     84
                      A                      A                      A
 Frequencies --   3220.6614              3804.5433              3816.8624
 Red. masses --      1.1152                 1.0661                 1.0661
 Frc consts  --      6.8156                 9.0920                 9.1512
 IR Inten    --     20.6497                15.6596                14.7978

 - Thermochemistry -
 -------------------
 Temperature   298.150 Kelvin.  Pressure   1.00000 Atm.
 Atom     1 has atomic number  6 and mass  12.00000

 Molecular mass:   170.13068 amu.
 Principal axes and moments of inertia in atomic units:
                           1         2         3
     Eigenvalues --  1269.461004754.659925748.01430
           X            0.99999   0.00342   0.00192
           Y           -0.00339   0.99983  -0.01815
           Z           -0.00198   0.01814   0.99983
 This molecule is an asymmetric top.
 Rotational symmetry number  1.
 Warning -- assumption of classical behavior for rotation
           may cause significant error
 Rotational temperatures (Kelvin)      0.06823     0.01822     0.01507
 Rotational constants (GHZ):           1.42166     0.37957     0.31398
 Zero-point vibrational energy     695310.1 (Joules/Mol)
                                  166.18310 (Kcal/Mol)
 Warning -- explicit consideration of  20 degrees of freedom as
           vibrations may cause significant error
 Vibrational temperatures:     49.65    78.04    87.52   118.96   145.69
          (Kelvin)            148.96   183.96   210.59   270.62   341.46
                              379.24   398.35   419.22   451.25   488.39
                              558.41   611.38   636.97   711.09   777.71
                              951.80  1112.13  1132.25  1145.43  1193.30
                             1216.71  1221.82  1299.07  1316.47  1377.08
                             1413.24  1457.12  1475.93  1500.48  1516.16
                             1534.61  1549.10  1552.07  1559.80  1626.15
                             1644.10  1655.70  1670.67  1723.93  1737.59
                             1765.70  1795.87  1829.35  1845.86  1889.13
                             1904.92  1956.78  1994.31  2017.79  2026.85
                             2033.59  2046.30  2050.42  2106.38  2118.33
                             2125.03  2127.52  2156.73  2169.18  2181.34
                             2477.70  4294.29  4304.73  4325.74  4333.15
                             4341.44  4343.25  4392.08  4405.34  4424.37
                             4500.11  4506.43  4515.47  4536.71  4549.71
                             4611.77  4633.81  5473.89  5491.61

 Zero-point correction=                           0.264830 (Hartree/Particle)
 Thermal correction to Energy=                    0.279526
 Thermal correction to Enthalpy=                  0.280470
 Thermal correction to Gibbs Free Energy=         0.222156
 Sum of electronic and zero-point Energies=           -542.063858
 Sum of electronic and thermal Energies=              -542.049162
 Sum of electronic and thermal Enthalpies=            -542.048218
 Sum of electronic and thermal Free Energies=         -542.106531

                     E (Thermal)             CV                S
                      KCal/Mol        Cal/Mol-Kelvin    Cal/Mol-Kelvin
 Total                  175.405             53.037            122.731
 Electronic               0.000              0.000              0.000
 Translational            0.889              2.981             41.302
 Rotational               0.889              2.981             31.917
 Vibrational            173.627             47.075             49.512
 Vibration     1          0.594              1.983              5.552
 Vibration     2          0.596              1.976              4.656
 Vibration     3          0.597              1.973              4.430
 Vibration     4          0.600              1.961              3.826
 Vibration     5          0.604              1.948              3.430
 Vibration     6          0.605              1.946              3.387
 Vibration     7          0.611              1.925              2.978
 Vibration     8          0.617              1.907              2.719
 Vibration     9          0.633              1.856              2.247
 Vibration    10          0.656              1.784              1.823
 Vibration    11          0.670              1.740              1.638
 Vibration    12          0.678              1.716              1.553
 Vibration    13          0.687              1.690              1.466
 Vibration    14          0.701              1.648              1.343
 Vibration    15          0.719              1.597              1.215
 Vibration    16          0.756              1.496              1.007
 Vibration    17          0.787              1.416              0.875
 Vibration    18          0.802              1.377              0.818
 Vibration    19          0.850              1.263              0.673
 Vibration    20          0.896              1.160              0.564

 Optimization completed.
    -- Stationary point found.
 Normal termination of Gaussian 16 at Sat May 27 18:55:21 2023.
