 Gaussian 16, Revision A.03,
 Gaussian 16:  ES64L-G16RevA.03 25-Dec-2016

 -----------------------------
 # opt freq b3lyp/6-31g(2df,p)
 -----------------------------

 -------------------
 Title Card Required
 -------------------
 Symbolic Z-matrix:
 Charge =  0 Multiplicity = 1

 SCF Done:  E(RB3LYP) =  -580.387322671     A.U. after   13 cycles
 SCF Done:  E(RB3LYP) =  -580.399680820     A.U. after   11 cycles
 SCF Done:  E(RB3LYP) =  -580.401282034     A.U. after   11 cycles
 SCF Done:  E(RB3LYP) =  -580.402076785     A.U. after   11 cycles
 SCF Done:  E(RB3LYP) =  -580.402860396     A.U. after   12 cycles
 SCF Done:  E(RB3LYP) =  -580.403143795     A.U. after   11 cycles
 SCF Done:  E(RB3LYP) =  -580.403278572     A.U. after   10 cycles
 SCF Done:  E(RB3LYP) =  -580.403271744     A.U. after    7 cycles
 SCF Done:  E(RB3LYP) =  -580.403336519     A.U. after   10 cycles
 SCF Done:  E(RB3LYP) =  -580.403374797     A.U. after   10 cycles
 SCF Done:  E(RB3LYP) =  -580.411481726     A.U. after   11 cycles
 SCF Done:  E(RB3LYP) =  -580.411474919     A.U. after   10 cycles
 SCF Done:  E(RB3LYP) =  -580.411493654     A.U. after   10 cycles
 SCF Done:  E(RB3LYP) =  -580.411494789     A.U. after    8 cycles
 SCF Done:  E(RB3LYP) =  -580.411495334     A.U. after    9 cycles
 SCF Done:  E(RB3LYP) =  -580.411496387     A.U. after    9 cycles
 SCF Done:  E(RB3LYP) =  -580.411496682     A.U. after    8 cycles
 SCF Done:  E(RB3LYP) =  -580.411496710     A.U. after    6 cycles
 SCF Done:  E(RB3LYP) =  -580.411496730     A.U. after    6 cycles
 Optimization completed.
    -- Stationary point found.
 Normal termination of Gaussian 16 at Mon May 22 22:53:19 2023.

 ----------------------------------------------------------------------
 #N Geom=AllCheck Guess=TCheck SCRF=Check GenChk RB3LYP/6-31G(2df,p) Fr
 eq
 ----------------------------------------------------------------------

 Structure from the checkpoint file:  "CCqdCCCdCCCC1CO1rCO.chk"
 -------------------
 Title Card Required
 -------------------
 Charge =  0 Multiplicity = 1

                         Standard orientation:
 ---------------------------------------------------------------------
 Center     Atomic      Atomic             Coordinates (Angstroms)
 Number     Number       Type             X           Y           Z
 ---------------------------------------------------------------------
      1          6           0       -3.716089   -1.508588    1.108450
      2          6           0       -3.582592   -0.286249    0.238936
      3          6           0       -2.629231   -0.069286   -0.670092
      4          6           0       -1.458849   -0.948972   -1.033087
      5          6           0       -0.142904   -0.223770   -0.893383
      6          6           0        0.871196   -0.609123   -0.122705
      7          6           0        2.182429    0.109885    0.016572
      8          6           0        3.373996   -0.750562   -0.439178
      9          6           0        4.740378   -0.192677   -0.099978
     10          6           0        5.035190    1.231624    0.105932
     11          8           0        4.932778    0.334857    1.215811
     12          6           0       -4.677548    0.738989    0.472073
     13          8           0       -4.499471    1.981129   -0.178413
     14          1           0       -2.955009   -2.262724    0.904441
     15          1           0       -4.697059   -1.981064    0.967155
     16          1           0       -3.651265   -1.243271    2.171603
     17          1           0       -2.693315    0.858616   -1.235741
     18          1           0       -1.576271   -1.263833   -2.082460
     19          1           0       -1.437644   -1.864815   -0.436226
     20          1           0       -0.046425    0.694724   -1.474103
     21          1           0        0.771543   -1.526871    0.459195
     22          1           0        2.350152    0.384244    1.066253
     23          1           0        2.149595    1.042336   -0.558162
     24          1           0        3.325071   -0.917167   -1.522798
     25          1           0        3.297287   -1.744695    0.021990
     26          1           0        5.569472   -0.818459   -0.437566
     27          1           0        4.241507    1.972158    0.033478
     28          1           0        6.036581    1.608514   -0.098720
     29          1           0       -4.808745    0.874943    1.560220
     30          1           0       -5.633968    0.345362    0.101824
     31          1           0       -3.683810    2.366486    0.159183
 ---------------------------------------------------------------------

 SCF Done:  E(RB3LYP) =  -580.411496730     A.U. after    1 cycles

 The electronic state is 1-A.
 Alpha  occ. eigenvalues --  -19.14778 -19.13560 -10.23746 -10.23122 -10.22707
 Alpha  occ. eigenvalues --  -10.18905 -10.18663 -10.18448 -10.18430 -10.18141
 Alpha  occ. eigenvalues --  -10.18012 -10.17864 -10.17346  -1.06695  -1.01761
 Alpha  occ. eigenvalues --   -0.81729  -0.79982  -0.76661  -0.71946  -0.67980
 Alpha  occ. eigenvalues --   -0.66986  -0.65539  -0.62553  -0.57244  -0.55095
 Alpha  occ. eigenvalues --   -0.52676  -0.50659  -0.49463  -0.47152  -0.46439
 Alpha  occ. eigenvalues --   -0.45287  -0.44505  -0.43150  -0.42007  -0.40471
 Alpha  occ. eigenvalues --   -0.39793  -0.39583  -0.38972  -0.37647  -0.37009
 Alpha  occ. eigenvalues --   -0.35680  -0.34568  -0.34380  -0.33477  -0.31893
 Alpha  occ. eigenvalues --   -0.29712  -0.27189  -0.26757  -0.24155  -0.23363
 Alpha virt. eigenvalues --    0.01615   0.04365   0.08237   0.09162   0.10189
 Alpha virt. eigenvalues --    0.10504   0.10930   0.12148   0.12510   0.12794
 Alpha virt. eigenvalues --    0.13102   0.14948   0.15583   0.16264   0.16989

 Mulliken charges:
               1
     1  C   -0.481300
     2  C    0.228715
     3  C   -0.115723
     4  C   -0.310973
     5  C   -0.037376
     6  C   -0.046690
     7  C   -0.245142
     8  C   -0.216777
     9  C    0.089750
    10  C   -0.175802
    11  O   -0.232601
    12  C   -0.117918
    13  O   -0.407642
    14  H    0.127107
    15  H    0.125696
    16  H    0.124750
    17  H    0.084123
    18  H    0.111574
    19  H    0.098493
    20  H    0.075492
    21  H    0.077363
    22  H    0.125227
    23  H    0.094339
    24  H    0.107132
    25  H    0.108760
    26  H    0.089896
    27  H    0.115784
    28  H    0.112839
    29  H    0.089145
    30  H    0.119746
    31  H    0.282013
 Sum of Mulliken charges =   0.00000

 Dipole moment (field-independent basis, Debye):
    X=              0.6297    Y=             -0.5647    Z=             -0.6344  Tot=              1.0573
 Quadrupole moment (field-independent basis, Debye-Ang):
   XX=            -86.1827   YY=            -77.0509   ZZ=            -81.9568
   XY=              6.6803   XZ=            -13.2282   YZ=              0.2539

  Exact polarizability: 172.995   3.144 113.501  -5.707  -5.374 103.829
 Approx polarizability: 200.541   1.507 168.156  -4.245 -13.144 171.977

                      1                      2                      3
                      A                      A                      A
 Frequencies --     21.8701                25.9656                42.2655
 Red. masses --      3.4691                 4.1752                 3.9580
 Frc consts  --      0.0010                 0.0017                 0.0042
 IR Inten    --      1.4035                 2.0950                 0.3273

                      4                      5                      6
                      A                      A                      A
 Frequencies --     57.0983                79.3924               111.4257
 Red. masses --      3.1830                 3.5882                 1.3959
 Frc consts  --      0.0061                 0.0133                 0.0102
 IR Inten    --      0.3701                 0.1823                 1.5033

                      7                      8                      9
                      A                      A                      A
 Frequencies --    120.6680               132.6778               162.3543
 Red. masses --      2.2475                 1.6046                 3.2759
 Frc consts  --      0.0193                 0.0166                 0.0509
 IR Inten    --      2.9840                 2.4273                 0.3799

                     10                     11                     12
                      A                      A                      A
 Frequencies --    188.7165               226.8061               282.1509
 Red. masses --      3.6007                 3.1878                 2.4574
 Frc consts  --      0.0756                 0.0966                 0.1153
 IR Inten    --      0.1468                 8.5472                 8.8471

                     13                     14                     15
                      A                      A                      A
 Frequencies --    300.1071               313.0008               357.2651
 Red. masses --      2.3710                 2.1026                 1.4051
 Frc consts  --      0.1258                 0.1214                 0.1057
 IR Inten    --      3.5285                 3.8186                80.6901

                     16                     17                     18
                      A                      A                      A
 Frequencies --    366.4447               418.9351               431.5450
 Red. masses --      2.0813                 3.1078                 2.7847
 Frc consts  --      0.1647                 0.3214                 0.3055
 IR Inten    --     29.1241                 4.5974                23.2575

                     19                     20                     21
                      A                      A                      A
 Frequencies --    471.8173               510.3364               576.5573
 Red. masses --      3.4794                 2.7101                 3.0667
 Frc consts  --      0.4563                 0.4159                 0.6006
 IR Inten    --      4.0440                 1.7784                 1.9062

                     22                     23                     24
                      A                      A                      A
 Frequencies --    615.6906               756.6561               760.9024
 Red. masses --      3.0443                 1.3787                 2.2827
 Frc consts  --      0.6799                 0.4651                 0.7787
 IR Inten    --      2.1749                 0.9485                 7.0165

                     25                     26                     27
                      A                      A                      A
 Frequencies --    798.7071               835.0574               855.9521
 Red. masses --      2.2727                 2.1110                 2.1048
 Frc consts  --      0.8542                 0.8673                 0.9086
 IR Inten    --      0.6694                 6.3391                 9.8767

                     28                     29                     30
                      A                      A                      A
 Frequencies --    863.2156               948.0271               955.1271
 Red. masses --      1.8334                 1.9330                 1.7181
 Frc consts  --      0.8049                 1.0236                 0.9234
 IR Inten    --     31.1880                 8.3437                 1.0148

                     31                     32                     33
                      A                      A                      A
 Frequencies --    966.6498               975.9614               997.1267
 Red. masses --      2.0119                 3.4768                 1.4524
 Frc consts  --      1.1076                 1.9512                 0.8508
 IR Inten    --     10.4742                 6.2170                13.9486

                     34                     35                     36
                      A                      A                      A
 Frequencies --   1002.3282              1020.6038              1061.1520
 Red. masses --      1.7043                 1.1352                 1.7973
 Frc consts  --      1.0088                 0.6967                 1.1924
 IR Inten    --      6.9566                18.7078                16.9312

                     37                     38                     39
                      A                      A                      A
 Frequencies --   1067.5384              1078.4422              1082.3731
 Red. masses --      1.5431                 3.3301                 1.8857
 Frc consts  --      1.0361                 2.2819                 1.3016
 IR Inten    --     21.3546                 6.0765                 3.9317

                     40                     41                     42
                      A                      A                      A
 Frequencies --   1097.6805              1106.1990              1132.0496
 Red. masses --      1.5987                 2.8757                 2.1173
 Frc consts  --      1.1349                 2.0733                 1.5987
 IR Inten    --      7.8018                42.8218                 1.4962

                     43                     44                     45
                      A                      A                      A
 Frequencies --   1159.0497              1165.3558              1187.2175
 Red. masses --      1.3149                 1.3469                 1.5918
 Frc consts  --      1.0408                 1.0777                 1.3219
 IR Inten    --      1.2243                 2.4852                 2.5158

                     46                     47                     48
                      A                      A                      A
 Frequencies --   1216.6944              1220.8751              1240.8901
 Red. masses --      1.1710                 1.6701                 1.4819
 Frc consts  --      1.0213                 1.4666                 1.3444
 IR Inten    --     12.3861                 1.6468                 5.4354

                     49                     50                     51
                      A                      A                      A
 Frequencies --   1278.6817              1295.7426              1298.2906
 Red. masses --      1.3209                 1.4027                 1.3669
 Frc consts  --      1.2725                 1.3876                 1.3575
 IR Inten    --      2.9342                 4.3048                11.7305

                     52                     53                     54
                      A                      A                      A
 Frequencies --   1320.7292              1335.2665              1352.2196
 Red. masses --      1.2056                 1.2385                 1.2598
 Frc consts  --      1.2390                 1.3011                 1.3572
 IR Inten    --      1.0270                 1.2477                 2.4166

                     55                     56                     57
                      A                      A                      A
 Frequencies --   1369.3465              1391.0471              1395.9952
 Red. masses --      1.3722                 1.5807                 1.3228
 Frc consts  --      1.5159                 1.8021                 1.5188
 IR Inten    --      1.7696                 1.2192                16.7103

                     58                     59                     60
                      A                      A                      A
 Frequencies --   1416.7963              1418.9704              1438.0934
 Red. masses --      1.3409                 1.3154                 1.6068
 Frc consts  --      1.5858                 1.5604                 1.9579
 IR Inten    --      3.1680                37.4290                25.6901

                     61                     62                     63
                      A                      A                      A
 Frequencies --   1467.9597              1476.4386              1482.1924
 Red. masses --      1.0917                 1.0785                 1.0458
 Frc consts  --      1.3860                 1.3852                 1.3536
 IR Inten    --      2.8247                 0.5289                 5.1552

                     64                     65                     66
                      A                      A                      A
 Frequencies --   1488.8560              1495.0748              1495.4435
 Red. masses --      1.0696                 1.0905                 1.0906
 Frc consts  --      1.3970                 1.4361                 1.4369
 IR Inten    --      2.5949                 9.7457                 0.4856

                     67                     68                     69
                      A                      A                      A
 Frequencies --   1532.5824              1739.7734              1749.6751
 Red. masses --      1.3452                 6.3446                 6.9667
 Frc consts  --      1.8616                11.3147                12.5658
 IR Inten    --      7.6541                 0.2801                 0.6488

                     70                     71                     72
                      A                      A                      A
 Frequencies --   2947.3744              2977.6649              3014.8008
 Red. masses --      1.0719                 1.0708                 1.0599
 Frc consts  --      5.4861                 5.5938                 5.6761
 IR Inten    --     69.2209                28.1895                 5.3513

                     73                     74                     75
                      A                      A                      A
 Frequencies --   3017.4649              3023.7983              3030.1446
 Red. masses --      1.0428                 1.0605                 1.0864
 Frc consts  --      5.5941                 5.7131                 5.8772
 IR Inten    --     31.2915                29.0522                34.8373

                     76                     77                     78
                      A                      A                      A
 Frequencies --   3048.4760              3059.1249              3071.7822
 Red. masses --      1.0977                 1.0983                 1.1013
 Frc consts  --      6.0106                 6.0558                 6.1226
 IR Inten    --      6.1939                22.8849                20.8189

                     79                     80                     81
                      A                      A                      A
 Frequencies --   3082.5686              3083.3102              3090.3467
 Red. masses --      1.0759                 1.0876                 1.0632
 Frc consts  --      6.0235                 6.0918                 5.9826
 IR Inten    --     43.3362                 7.2286                35.9802

                     82                     83                     84
                      A                      A                      A
 Frequencies --   3113.8634              3119.9136              3134.2037
 Red. masses --      1.0904                 1.0860                 1.0939
 Frc consts  --      6.2293                 6.2284                 6.3313
 IR Inten    --      2.3832                47.0398                21.7879

                     85                     86                     87
                      A                      A                      A
 Frequencies --   3143.6794              3174.4265              3807.4505
 Red. masses --      1.0861                 1.1180                 1.0658
 Frc consts  --      6.3238                 6.6379                 9.1036
 IR Inten    --     15.1005                32.3875                13.3384

 - Thermochemistry -
 -------------------
 Temperature   298.150 Kelvin.  Pressure   1.00000 Atm.
 Atom     1 has atomic number  6 and mass  12.00000

 Molecular mass:   182.13068 amu.
 Principal axes and moments of inertia in atomic units:
                           1         2         3
     Eigenvalues --   975.159058996.980929300.91928
           X            0.99993   0.00615  -0.00986
           Y           -0.00648   0.99940  -0.03393
           Z            0.00964   0.03399   0.99938
 This molecule is an asymmetric top.
 Rotational symmetry number  1.
 Warning -- assumption of classical behavior for rotation
           may cause significant error
 Rotational temperatures (Kelvin)      0.08882     0.00963     0.00931
 Rotational constants (GHZ):           1.85071     0.20059     0.19404
 Zero-point vibrational energy     709053.5 (Joules/Mol)
                                  169.46786 (Kcal/Mol)
 Warning -- explicit consideration of  22 degrees of freedom as
           vibrations may cause significant error
 Vibrational temperatures:     31.47    37.36    60.81    82.15   114.23
          (Kelvin)            160.32   173.61   190.89   233.59   271.52
                              326.32   405.95   431.79   450.34   514.02
                              527.23   602.75   620.90   678.84   734.26
                              829.54   885.84  1088.66  1094.77  1149.16
                             1201.46  1231.52  1241.97  1364.00  1374.21
                             1390.79  1404.19  1434.64  1442.13  1468.42
                             1526.76  1535.95  1551.64  1557.29  1579.32
                             1591.57  1628.77  1667.61  1676.69  1708.14
                             1750.55  1756.57  1785.36  1839.74  1864.28
                             1867.95  1900.23  1921.15  1945.54  1970.18
                             2001.41  2008.53  2038.45  2041.58  2069.10
                             2112.07  2124.27  2132.54  2142.13  2151.08
                             2151.61  2205.04  2503.15  2517.39  4240.61
                             4284.20  4337.63  4341.46  4350.57  4359.70
                             4386.08  4401.40  4419.61  4435.13  4436.20
                             4446.32  4480.15  4488.86  4509.42  4523.05
                             4567.29  5478.07

 Zero-point correction=                           0.270064 (Hartree/Particle)
 Thermal correction to Energy=                    0.285417
 Thermal correction to Enthalpy=                  0.286361
 Thermal correction to Gibbs Free Energy=         0.224648
 Sum of electronic and zero-point Energies=           -580.141433
 Sum of electronic and thermal Energies=              -580.126080
 Sum of electronic and thermal Enthalpies=            -580.125136
 Sum of electronic and thermal Free Energies=         -580.186848

                     E (Thermal)             CV                S
                      KCal/Mol        Cal/Mol-Kelvin    Cal/Mol-Kelvin
 Total                  179.102             54.723            129.885
 Electronic               0.000              0.000              0.000
 Translational            0.889              2.981             41.505
 Rotational               0.889              2.981             32.767
 Vibrational            177.324             48.762             55.612
 Vibration     1          0.593              1.985              6.457
 Vibration     2          0.593              1.985              6.116
 Vibration     3          0.595              1.980              5.150
 Vibration     4          0.596              1.975              4.555
 Vibration     5          0.600              1.963              3.906
 Vibration     6          0.607              1.940              3.244
 Vibration     7          0.609              1.932              3.090
 Vibration     8          0.613              1.921              2.907
 Vibration     9          0.622              1.889              2.522
 Vibration    10          0.633              1.855              2.240
 Vibration    11          0.650              1.800              1.904
 Vibration    12          0.681              1.707              1.521
 Vibration    13          0.693              1.673              1.416
 Vibration    14          0.701              1.649              1.346
 Vibration    15          0.732              1.560              1.134
 Vibration    16          0.739              1.541              1.095
 Vibration    17          0.782              1.429              0.896
 Vibration    18          0.793              1.402              0.854
 Vibration    19          0.829              1.313              0.732
 Vibration    20          0.865              1.227              0.633
 Vibration    21          0.933              1.082              0.492
 Vibration    22          0.975              0.999              0.423

                           ! Non-Optimized Parameters !
 Normal termination of Gaussian 16 at Tue May 23 00:10:39 2023.
