 Gaussian 16, Revision A.03,
 Gaussian 16:  ES64L-G16RevA.03 25-Dec-2016

 -----------------------------
 # opt freq b3lyp/6-31g(2df,p)
 -----------------------------

 -------------------
 Title Card Required
 -------------------
 Symbolic Z-matrix:
 Charge =  0 Multiplicity = 1

 SCF Done:  E(RB3LYP) =  -580.427614208     A.U. after   14 cycles
 SCF Done:  E(RB3LYP) =  -580.435249471     A.U. after   12 cycles
 SCF Done:  E(RB3LYP) =  -580.435028389     A.U. after   13 cycles
 SCF Done:  E(RB3LYP) =  -580.434716002     A.U. after   12 cycles
 SCF Done:  E(RB3LYP) =  -580.434251828     A.U. after   12 cycles
 SCF Done:  E(RB3LYP) =  -580.435487220     A.U. after    8 cycles
 SCF Done:  E(RB3LYP) =  -580.435695899     A.U. after   12 cycles
 SCF Done:  E(RB3LYP) =  -580.435921962     A.U. after   11 cycles
 SCF Done:  E(RB3LYP) =  -580.435920558     A.U. after   10 cycles
 SCF Done:  E(RB3LYP) =  -580.435920241     A.U. after    9 cycles
 SCF Done:  E(RB3LYP) =  -580.436921822     A.U. after   11 cycles
 SCF Done:  E(RB3LYP) =  -580.437125466     A.U. after   13 cycles
 SCF Done:  E(RB3LYP) =  -580.434899376     A.U. after   13 cycles
 SCF Done:  E(RB3LYP) =  -580.437265575     A.U. after   13 cycles
 SCF Done:  E(RB3LYP) =  -580.437002013     A.U. after   13 cycles
 SCF Done:  E(RB3LYP) =  -580.437352785     A.U. after   13 cycles
 SCF Done:  E(RB3LYP) =  -580.437356125     A.U. after   10 cycles
 SCF Done:  E(RB3LYP) =  -580.437357929     A.U. after   10 cycles
 SCF Done:  E(RB3LYP) =  -580.437358055     A.U. after    7 cycles
 Optimization completed.
    -- Stationary point found.
 Normal termination of Gaussian 16 at Mon May 29 01:07:04 2023.

 ----------------------------------------------------------------------
 #N Geom=AllCheck Guess=TCheck SCRF=Check GenChk RB3LYP/6-31G(2df,p) Fr
 eq
 ----------------------------------------------------------------------

 Structure from the checkpoint file:  "CCqdCdCOrCCCCCCCdO.chk"
 -------------------
 Title Card Required
 -------------------
 Charge =  0 Multiplicity = 1

                         Standard orientation:
 ---------------------------------------------------------------------
 Center     Atomic      Atomic             Coordinates (Angstroms)
 Number     Number       Type             X           Y           Z
 ---------------------------------------------------------------------
      1          6           0       -4.384019   -1.929519   -0.173525
      2          6           0       -3.321939   -0.864597    0.007729
      3          6           0       -3.632348    0.385964    0.242383
      4          6           0       -3.956878    1.627620    0.484960
      5          8           0       -4.175541    2.617734   -0.443105
      6          6           0       -1.889703   -1.359613   -0.093972
      7          6           0       -0.801561   -0.299558    0.078515
      8          6           0        0.614959   -0.875293   -0.023615
      9          6           0        1.709768    0.183673    0.145115
     10          6           0        3.127215   -0.390577    0.046642
     11          6           0        4.221191    0.680834    0.202760
     12          6           0        5.604861    0.074942    0.210090
     13          8           0        6.494412    0.363345   -0.548178
     14          1           0       -5.388782   -1.512802   -0.086730
     15          1           0       -4.268922   -2.721210    0.577558
     16          1           0       -4.288102   -2.410621   -1.155176
     17          1           0       -4.091183    2.014030    1.490968
     18          1           0       -4.053727    2.235491   -1.320102
     19          1           0       -1.769718   -1.861692   -1.066150
     20          1           0       -1.752468   -2.156622    0.652794
     21          1           0       -0.930513    0.196308    1.048323
     22          1           0       -0.935974    0.484576   -0.677167
     23          1           0        0.739566   -1.373468   -0.995278
     24          1           0        0.747624   -1.658498    0.735987
     25          1           0        1.588271    0.683494    1.115970
     26          1           0        1.581209    0.965407   -0.615582
     27          1           0        3.252830   -0.895289   -0.919882
     28          1           0        3.262333   -1.163491    0.815553
     29          1           0        4.081072    1.197081    1.164142
     30          1           0        4.170395    1.428523   -0.594300
     31          1           0        5.755850   -0.703108    0.996846
 ---------------------------------------------------------------------

 SCF Done:  E(RB3LYP) =  -580.437358055     A.U. after    1 cycles

 The electronic state is 1-A.
 Alpha  occ. eigenvalues --  -19.16136 -19.13716 -10.26925 -10.23600 -10.20530
 Alpha  occ. eigenvalues --  -10.19592 -10.19420 -10.19017 -10.18734 -10.18471
 Alpha  occ. eigenvalues --  -10.18429 -10.18109 -10.16700  -1.04428  -1.04384
 Alpha  occ. eigenvalues --   -0.82647  -0.81156  -0.77544  -0.73244  -0.71967
 Alpha  occ. eigenvalues --   -0.66888  -0.63680  -0.60394  -0.58575  -0.57085
 Alpha  occ. eigenvalues --   -0.56087  -0.49217  -0.47482  -0.46363  -0.46127
 Alpha  occ. eigenvalues --   -0.45012  -0.44117  -0.43424  -0.42410  -0.41330
 Alpha  occ. eigenvalues --   -0.39839  -0.39287  -0.38500  -0.37699  -0.37226
 Alpha  occ. eigenvalues --   -0.36616  -0.36003  -0.35061  -0.33887  -0.33422
 Alpha  occ. eigenvalues --   -0.32809  -0.32091  -0.24943  -0.24791  -0.21813
 Alpha virt. eigenvalues --   -0.01892   0.00839   0.04612   0.08066   0.09124
 Alpha virt. eigenvalues --    0.09848   0.10425   0.11388   0.11844   0.13181
 Alpha virt. eigenvalues --    0.14215   0.14690   0.15745   0.16225   0.16880

 Mulliken charges:
               1
     1  C   -0.451405
     2  C   -0.027655
     3  C    0.218019
     4  C   -0.122298
     5  O   -0.377305
     6  C   -0.257601
     7  C   -0.184911
     8  C   -0.185840
     9  C   -0.178520
    10  C   -0.193908
    11  C   -0.272825
    12  C    0.159781
    13  O   -0.237732
    14  H    0.129140
    15  H    0.125930
    16  H    0.123669
    17  H    0.126648
    18  H    0.293469
    19  H    0.105051
    20  H    0.107035
    21  H    0.103596
    22  H    0.098356
    23  H    0.093859
    24  H    0.092923
    25  H    0.096655
    26  H    0.099939
    27  H    0.110342
    28  H    0.100823
    29  H    0.116647
    30  H    0.120848
    31  H    0.067270
 Sum of Mulliken charges =  -0.00000

 Dipole moment (field-independent basis, Debye):
    X=             -2.1794    Y=             -1.7728    Z=              0.5938  Tot=              2.8714
 Quadrupole moment (field-independent basis, Debye-Ang):
   XX=           -109.7106   YY=            -82.0182   ZZ=            -75.6251
   XY=              2.9345   XZ=             10.9085   YZ=             -0.1026

  Exact polarizability: 150.455  -8.339 142.537  -3.301   1.648  99.577
 Approx polarizability: 169.685 -17.828 226.205 -10.019   3.347 160.832

                      1                      2                      3
                      A                      A                      A
 Frequencies --     27.0419                33.0322                36.7124
 Red. masses --      3.7021                 3.1157                 4.0592
 Frc consts  --      0.0016                 0.0020                 0.0032
 IR Inten    --      1.8981                 2.9143                 0.4269

                      4                      5                      6
                      A                      A                      A
 Frequencies --     61.1331                73.8996                89.4252
 Red. masses --      4.2546                 3.4601                 2.0063
 Frc consts  --      0.0094                 0.0111                 0.0095
 IR Inten    --      2.4263                 0.5411                 0.9704

                      7                      8                      9
                      A                      A                      A
 Frequencies --    107.2674               135.1862               146.4433
 Red. masses --      2.8766                 2.6542                 2.0076
 Frc consts  --      0.0195                 0.0286                 0.0254
 IR Inten    --      0.9411                 0.6807                 0.6105

                     10                     11                     12
                      A                      A                      A
 Frequencies --    151.8344               173.3394               180.4072
 Red. masses --      2.0648                 2.6176                 1.3651
 Frc consts  --      0.0280                 0.0463                 0.0262
 IR Inten    --      0.2951                 0.7672                 0.4142

                     13                     14                     15
                      A                      A                      A
 Frequencies --    216.3437               257.7165               286.2119
 Red. masses --      4.6576                 2.7457                 2.0338
 Frc consts  --      0.1284                 0.1074                 0.0982
 IR Inten    --      1.0436                 2.6611                 6.9178

                     16                     17                     18
                      A                      A                      A
 Frequencies --    357.5504               408.9479               423.8624
 Red. masses --      3.0000                 3.4407                 2.7441
 Frc consts  --      0.2260                 0.3390                 0.2905
 IR Inten    --      0.3469                 1.3776                 6.6323

                     19                     20                     21
                      A                      A                      A
 Frequencies --    458.5328               473.9083               525.9979
 Red. masses --      1.6316                 2.6163                 2.5756
 Frc consts  --      0.2021                 0.3462                 0.4198
 IR Inten    --     59.7708                32.8919                 8.7969

                     22                     23                     24
                      A                      A                      A
 Frequencies --    591.3147               606.6291               730.3040
 Red. masses --      4.6924                 4.3369                 1.0739
 Frc consts  --      0.9667                 0.9403                 0.3374
 IR Inten    --     10.6946                11.1321                 4.1551

                     25                     26                     27
                      A                      A                      A
 Frequencies --    740.2633               774.7937               781.0897
 Red. masses --      1.1252                 1.7819                 2.1519
 Frc consts  --      0.3633                 0.6302                 0.7735
 IR Inten    --      0.4907                 4.4136                11.7081

                     28                     29                     30
                      A                      A                      A
 Frequencies --    827.9823               865.7483               902.9477
 Red. masses --      1.4561                 1.3458                 1.3797
 Frc consts  --      0.5881                 0.5943                 0.6628
 IR Inten    --      1.6311                14.1103                 3.3937

                     31                     32                     33
                      A                      A                      A
 Frequencies --    955.5620               976.6650               999.7709
 Red. masses --      2.0646                 2.1093                 1.6365
 Frc consts  --      1.1107                 1.1854                 0.9637
 IR Inten    --      3.6958                13.5486                 9.7936

                     34                     35                     36
                      A                      A                      A
 Frequencies --   1020.6142              1033.1352              1038.7041
 Red. masses --      2.9753                 2.0131                 1.7792
 Frc consts  --      1.8260                 1.2660                 1.1310
 IR Inten    --      0.7427                16.0970                12.0749

                     37                     38                     39
                      A                      A                      A
 Frequencies --   1060.4125              1069.9946              1082.7995
 Red. masses --      2.8118                 2.3334                 2.9856
 Frc consts  --      1.8629                 1.5740                 2.0624
 IR Inten    --     27.3992                21.9605               135.1277

                     40                     41                     42
                      A                      A                      A
 Frequencies --   1120.2669              1138.1210              1163.0613
 Red. masses --      3.5657                 1.5741                 2.6678
 Frc consts  --      2.6365                 1.2013                 2.1263
 IR Inten    --     33.5084                 2.4422                48.6132

                     43                     44                     45
                      A                      A                      A
 Frequencies --   1169.8341              1230.2740              1244.4042
 Red. masses --      1.6316                 1.3284                 1.4398
 Frc consts  --      1.3156                 1.1846                 1.3136
 IR Inten    --     16.9580                 2.7290                 2.8787

                     46                     47                     48
                      A                      A                      A
 Frequencies --   1257.1328              1277.1855              1291.5924
 Red. masses --      1.2955                 1.3983                 1.2539
 Frc consts  --      1.2063                 1.3439                 1.2324
 IR Inten    --      6.0296                 2.9888                 1.7037

                     49                     50                     51
                      A                      A                      A
 Frequencies --   1319.4475              1323.9886              1332.2851
 Red. masses --      1.1307                 1.4858                 1.1187
 Frc consts  --      1.1598                 1.5346                 1.1699
 IR Inten    --      2.7505                 3.6977                 0.1407

                     52                     53                     54
                      A                      A                      A
 Frequencies --   1335.8688              1338.4334              1374.2720
 Red. masses --      1.1207                 1.4141                 1.4704
 Frc consts  --      1.1783                 1.4926                 1.6362
 IR Inten    --      1.0419                 4.9239                 7.0998

                     55                     56                     57
                      A                      A                      A
 Frequencies --   1395.8985              1400.5827              1405.2416
 Red. masses --      1.4509                 1.4668                 1.4460
 Frc consts  --      1.6657                 1.6952                 1.6823
 IR Inten    --      2.5458                 0.8338                 5.2670

                     58                     59                     60
                      A                      A                      A
 Frequencies --   1430.9102              1463.9691              1467.1056
 Red. masses --      1.1978                 1.0873                 1.2210
 Frc consts  --      1.4450                 1.3730                 1.5484
 IR Inten    --      6.0505                 2.4209                14.2723

                     61                     62                     63
                      A                      A                      A
 Frequencies --   1472.3422              1482.6798              1482.8475
 Red. masses --      1.1562                 1.0722                 1.0459
 Frc consts  --      1.4768                 1.3887                 1.3550
 IR Inten    --     15.1347                 0.5653                 6.7282

                     64                     65                     66
                      A                      A                      A
 Frequencies --   1485.1507              1498.2298              1511.9043
 Red. masses --      1.0830                 1.0988                 1.1107
 Frc consts  --      1.4075                 1.4532                 1.4959
 IR Inten    --      0.4098                 0.4919                 0.7158

                     67                     68                     69
                      A                      A                      A
 Frequencies --   1515.5746              1836.4178              2064.4129
 Red. masses --      1.5969                10.1012                10.8821
 Frc consts  --      2.1611                20.0710                27.3247
 IR Inten    --     60.8260               203.0453               102.9657

                     70                     71                     72
                      A                      A                      A
 Frequencies --   2842.8257              2988.7741              3001.7346
 Red. masses --      1.0812                 1.0586                 1.0579
 Frc consts  --      5.1483                 5.5712                 5.6164
 IR Inten    --    115.2724                19.6502                 8.7354

                     73                     74                     75
                      A                      A                      A
 Frequencies --   3006.8485              3008.0338              3010.9946
 Red. masses --      1.0607                 1.0620                 1.0987
 Frc consts  --      5.6503                 5.6615                 5.8690
 IR Inten    --      4.2647                 2.0579                12.2349

                     76                     77                     78
                      A                      A                      A
 Frequencies --   3017.5652              3018.1928              3025.8021
 Red. masses --      1.0638                 1.0389                 1.0971
 Frc consts  --      5.7072                 5.5759                 5.9178
 IR Inten    --     41.8317                37.1189                 4.4819

                     79                     80                     81
                      A                      A                      A
 Frequencies --   3028.3061              3040.2786              3060.1787
 Red. masses --      1.0602                 1.0992                 1.1034
 Frc consts  --      5.7283                 5.9862                 6.0878
 IR Inten    --     55.3819                 5.3205                10.6574

                     82                     83                     84
                      A                      A                      A
 Frequencies --   3067.3175              3072.6598              3096.7848
 Red. masses --      1.0992                 1.1042                 1.0973
 Frc consts  --      6.0931                 6.1422                 6.1999
 IR Inten    --     14.8081                92.2908                29.8368

                     85                     86                     87
                      A                      A                      A
 Frequencies --   3132.5637              3171.2881              3800.2859
 Red. masses --      1.0986                 1.0888                 1.0654
 Frc consts  --      6.3515                 6.4519                 9.0657
 IR Inten    --     17.8806                 8.6300                23.9555

 - Thermochemistry -
 -------------------
 Temperature   298.150 Kelvin.  Pressure   1.00000 Atm.
 Atom     1 has atomic number  6 and mass  12.00000

 Molecular mass:   182.13068 amu.
 Principal axes and moments of inertia in atomic units:
                           1         2         3
     Eigenvalues --  1120.628359619.23002**********
           X            0.99996   0.00819   0.00415
           Y           -0.00822   0.99994   0.00745
           Z           -0.00409  -0.00748   0.99996
 This molecule is an asymmetric top.
 Rotational symmetry number  1.
 Warning -- assumption of classical behavior for rotation
           may cause significant error
 Rotational temperatures (Kelvin)      0.07729     0.00900     0.00823
 Rotational constants (GHZ):           1.61047     0.18762     0.17141
 Zero-point vibrational energy     705218.9 (Joules/Mol)
                                  168.55136 (Kcal/Mol)
 Warning -- explicit consideration of  23 degrees of freedom as
           vibrations may cause significant error
 Vibrational temperatures:     38.91    47.53    52.82    87.96   106.33
          (Kelvin)            128.66   154.33   194.50   210.70   218.46
                              249.40   259.57   311.27   370.80   411.80
                              514.44   588.38   609.84   659.73   681.85
                              756.79   850.77   872.80  1050.74  1065.07
                             1114.76  1123.81  1191.28  1245.62  1299.14
                             1374.84  1405.20  1438.45  1468.44  1486.45
                             1494.46  1525.70  1539.48  1557.91  1611.81
                             1637.50  1673.39  1683.13  1770.09  1790.42
                             1808.73  1837.59  1858.31  1898.39  1904.92
                             1916.86  1922.02  1925.71  1977.27  2008.39
                             2015.13  2021.83  2058.76  2106.33  2110.84
                             2118.37  2133.25  2133.49  2136.80  2155.62
                             2175.29  2180.57  2642.20  2970.23  4090.19
                             4300.18  4318.83  4326.18  4327.89  4332.15
                             4341.60  4342.51  4353.45  4357.06  4374.28
                             4402.91  4413.19  4420.87  4455.58  4507.06
                             4562.78  5467.76

 Zero-point correction=                           0.268604 (Hartree/Particle)
 Thermal correction to Energy=                    0.284841
 Thermal correction to Enthalpy=                  0.285785
 Thermal correction to Gibbs Free Energy=         0.222044
 Sum of electronic and zero-point Energies=           -580.168754
 Sum of electronic and thermal Energies=              -580.152517
 Sum of electronic and thermal Enthalpies=            -580.151573
 Sum of electronic and thermal Free Energies=         -580.215314

                     E (Thermal)             CV                S
                      KCal/Mol        Cal/Mol-Kelvin    Cal/Mol-Kelvin
 Total                  178.740             56.288            134.153
 Electronic               0.000              0.000              0.000
 Translational            0.889              2.981             41.505
 Rotational               0.889              2.981             33.095
 Vibrational            176.963             50.327             59.553
 Vibration     1          0.593              1.984              6.035
 Vibration     2          0.594              1.983              5.638
 Vibration     3          0.594              1.982              5.429
 Vibration     4          0.597              1.973              4.420
 Vibration     5          0.599              1.966              4.047
 Vibration     6          0.602              1.957              3.673
 Vibration     7          0.606              1.943              3.318
 Vibration     8          0.613              1.918              2.871
 Vibration     9          0.617              1.907              2.718
 Vibration    10          0.619              1.901              2.649
 Vibration    11          0.627              1.875              2.399
 Vibration    12          0.629              1.866              2.324
 Vibration    13          0.645              1.816              1.989
 Vibration    14          0.667              1.750              1.677
 Vibration    15          0.684              1.699              1.496
 Vibration    16          0.733              1.560              1.133
 Vibration    17          0.773              1.451              0.930
 Vibration    18          0.786              1.418              0.879
 Vibration    19          0.817              1.342              0.770
 Vibration    20          0.831              1.308              0.727
 Vibration    21          0.881              1.192              0.596
 Vibration    22          0.949              1.050              0.465
 Vibration    23          0.965              1.018              0.438

 Optimization completed.
    -- Stationary point found.
 Normal termination of Gaussian 16 at Mon May 29 02:29:25 2023.
