 Gaussian 16, Revision A.03,
 Gaussian 16:  ES64L-G16RevA.03 25-Dec-2016

 -----------------------------
 # opt freq b3lyp/6-31g(2df,p)
 -----------------------------

 -------------------
 Title Card Required
 -------------------
 Symbolic Z-matrix:
 Charge =  0 Multiplicity = 1

 SCF Done:  E(RB3LYP) =  -522.487004588     A.U. after   13 cycles
 SCF Done:  E(RB3LYP) =  -522.493090442     A.U. after   13 cycles
 SCF Done:  E(RB3LYP) =  -522.494071861     A.U. after   12 cycles
 SCF Done:  E(RB3LYP) =  -522.493503211     A.U. after   11 cycles
 SCF Done:  E(RB3LYP) =  -522.494552539     A.U. after   12 cycles
 SCF Done:  E(RB3LYP) =  -522.494815007     A.U. after   12 cycles
 SCF Done:  E(RB3LYP) =  -522.495186535     A.U. after   13 cycles
 SCF Done:  E(RB3LYP) =  -522.495360422     A.U. after   13 cycles
 SCF Done:  E(RB3LYP) =  -522.495759942     A.U. after   10 cycles
 SCF Done:  E(RB3LYP) =  -522.483194242     A.U. after   13 cycles
 SCF Done:  E(RB3LYP) =  -522.504585553     A.U. after   10 cycles
 SCF Done:  E(RB3LYP) =  -522.504588042     A.U. after    8 cycles
 SCF Done:  E(RB3LYP) =  -522.504590370     A.U. after   10 cycles
 SCF Done:  E(RB3LYP) =  -522.504591396     A.U. after    8 cycles
 SCF Done:  E(RB3LYP) =  -522.504591762     A.U. after    8 cycles
 SCF Done:  E(RB3LYP) =  -522.504591814     A.U. after    7 cycles
 SCF Done:  E(RB3LYP) =  -522.504591848     A.U. after    7 cycles
 SCF Done:  E(RB3LYP) =  -522.504591880     A.U. after    7 cycles
 SCF Done:  E(RB3LYP) =  -522.504591912     A.U. after    7 cycles
 Optimization completed.
    -- Stationary point found.
 Normal termination of Gaussian 16 at Sun May 28 07:23:24 2023.

 ----------------------------------------------------------------------
 #N Geom=AllCheck Guess=TCheck SCRF=Check GenChk RB3LYP/6-31G(2df,p) Fr
 eq
 ----------------------------------------------------------------------

 Structure from the checkpoint file:  "CCqdOrCqCrCCCqCrdCCN.chk"
 -------------------
 Title Card Required
 -------------------
 Charge =  0 Multiplicity = 1

                         Standard orientation:
 ---------------------------------------------------------------------
 Center     Atomic      Atomic             Coordinates (Angstroms)
 Number     Number       Type             X           Y           Z
 ---------------------------------------------------------------------
      1          6           0        4.100094    1.492813   -0.370573
      2          6           0        3.069399    0.648946    0.357632
      3          8           0        3.046469    0.570542    1.565085
      4          6           0        2.069144   -0.118224   -0.514652
      5          6           0        2.646972   -1.528841   -0.758578
      6          6           0        0.683542   -0.140233    0.153764
      7          6           0       -0.415185   -0.815860   -0.689682
      8          6           0       -1.793293   -0.720829   -0.064628
      9          6           0       -2.005120   -1.585608    1.153336
     10          6           0       -2.718737    0.079554   -0.605417
     11          6           0       -4.126004    0.340068   -0.149299
     12          7           0       -4.363046    1.792186   -0.083459
     13          1           0        4.854526    1.854843    0.328995
     14          1           0        3.600236    2.349104   -0.839815
     15          1           0        4.574888    0.925568   -1.178334
     16          1           0        1.997423    0.392001   -1.484687
     17          1           0        2.708141   -2.081718    0.184177
     18          1           0        3.653609   -1.481967   -1.187011
     19          1           0        2.022338   -2.096113   -1.453039
     20          1           0        0.375268    0.892115    0.359018
     21          1           0        0.784084   -0.624779    1.129709
     22          1           0       -0.161590   -1.873941   -0.839702
     23          1           0       -0.437218   -0.353945   -1.683865
     24          1           0       -1.247043   -1.385271    1.919320
     25          1           0       -1.905307   -2.647006    0.890542
     26          1           0       -2.986362   -1.449985    1.610195
     27          1           0       -2.448574    0.649814   -1.493587
     28          1           0       -4.343181   -0.188131    0.791076
     29          1           0       -4.825277   -0.061550   -0.897066
     30          1           0       -3.784629    2.191137    0.650762
     31          1           0       -5.326629    1.969466    0.185420
 ---------------------------------------------------------------------

 SCF Done:  E(RB3LYP) =  -522.504591912     A.U. after    1 cycles

 The electronic state is 1-A.
 Alpha  occ. eigenvalues --  -19.12454 -14.30288 -10.26447 -10.20197 -10.19431
 Alpha  occ. eigenvalues --  -10.18757 -10.18478 -10.18403 -10.18004 -10.17891
 Alpha  occ. eigenvalues --  -10.17594 -10.16685  -1.03527  -0.87269  -0.81972
 Alpha  occ. eigenvalues --   -0.79281  -0.74179  -0.71701  -0.69758  -0.66186
 Alpha  occ. eigenvalues --   -0.62521  -0.58505  -0.52301  -0.51069  -0.47902
 Alpha  occ. eigenvalues --   -0.47806  -0.46652  -0.45730  -0.44541  -0.43201
 Alpha  occ. eigenvalues --   -0.41618  -0.41094  -0.41011  -0.39964  -0.39498
 Alpha  occ. eigenvalues --   -0.38694  -0.37631  -0.36414  -0.36091  -0.34513
 Alpha  occ. eigenvalues --   -0.34476  -0.33845  -0.32365  -0.31258  -0.24031
 Alpha  occ. eigenvalues --   -0.23654  -0.22682
 Alpha virt. eigenvalues --   -0.00839   0.02632   0.07816   0.09232   0.10614
 Alpha virt. eigenvalues --    0.11665   0.12391   0.13662   0.13786   0.14513
 Alpha virt. eigenvalues --    0.15043   0.15549   0.15981   0.16353   0.17075

 Mulliken charges:
               1
     1  C   -0.481848
     2  C    0.387991
     3  O   -0.312719
     4  C   -0.085049
     5  C   -0.394456
     6  C   -0.168246
     7  C   -0.299131
     8  C    0.306948
     9  C   -0.487541
    10  C   -0.114127
    11  C   -0.214782
    12  N   -0.505511
    13  H    0.140095
    14  H    0.142778
    15  H    0.135227
    16  H    0.073461
    17  H    0.133905
    18  H    0.115533
    19  H    0.125696
    20  H    0.098461
    21  H    0.119312
    22  H    0.096679
    23  H    0.095386
    24  H    0.130700
    25  H    0.123625
    26  H    0.122495
    27  H    0.078280
    28  H    0.082607
    29  H    0.107809
    30  H    0.223125
    31  H    0.223298
 Sum of Mulliken charges =  -0.00000

 Dipole moment (field-independent basis, Debye):
    X=             -0.1881    Y=             -0.5056    Z=             -1.2512  Tot=              1.3625
 Quadrupole moment (field-independent basis, Debye-Ang):
   XX=            -69.7047   YY=            -74.3427   ZZ=            -79.2992
   XY=              1.3783   XZ=            -13.2167   YZ=              0.7064

  Exact polarizability: 149.916  -6.864 110.980   0.581  -4.944 103.526
 Approx polarizability: 178.000 -13.898 161.506   6.396 -11.063 169.196

                      1                      2                      3
                      A                      A                      A
 Frequencies --     18.9373                29.0220                47.9847
 Red. masses --      4.0148                 3.3709                 3.6250
 Frc consts  --      0.0008                 0.0017                 0.0049
 IR Inten    --      2.8446                 1.9914                 0.3480

                      4                      5                      6
                      A                      A                      A
 Frequencies --     60.5197                73.1687                93.6355
 Red. masses --      2.5212                 2.5801                 2.1128
 Frc consts  --      0.0054                 0.0081                 0.0109
 IR Inten    --      0.5939                 3.4571                 1.3190

                      7                      8                      9
                      A                      A                      A
 Frequencies --    131.5426               149.3044               174.5373
 Red. masses --      1.5019                 1.0648                 1.7696
 Frc consts  --      0.0153                 0.0140                 0.0318
 IR Inten    --      1.1273                 0.0772                 0.6382

                     10                     11                     12
                      A                      A                      A
 Frequencies --    207.7996               229.2220               245.2473
 Red. masses --      2.1581                 1.7240                 2.0783
 Frc consts  --      0.0549                 0.0534                 0.0736
 IR Inten    --      1.0782                 0.1977                 0.1802

                     13                     14                     15
                      A                      A                      A
 Frequencies --    255.2686               285.6095               304.5449
 Red. masses --      1.5664                 2.2115                 2.3122
 Frc consts  --      0.0601                 0.1063                 0.1264
 IR Inten    --     28.7591                18.1861                 1.5764

                     16                     17                     18
                      A                      A                      A
 Frequencies --    330.0683               370.3192               454.2019
 Red. masses --      2.2817                 2.5850                 2.6680
 Frc consts  --      0.1465                 0.2089                 0.3243
 IR Inten    --      7.3715                 2.7696                 4.6713

                     19                     20                     21
                      A                      A                      A
 Frequencies --    460.7826               508.5405               582.3359
 Red. masses --      2.7948                 2.4799                 2.7681
 Frc consts  --      0.3496                 0.3779                 0.5531
 IR Inten    --      7.4889                 8.7266                 4.7161

                     22                     23                     24
                      A                      A                      A
 Frequencies --    601.0138               606.5231               758.6675
 Red. masses --      2.3022                 3.1318                 1.5302
 Frc consts  --      0.4900                 0.6788                 0.5189
 IR Inten    --      2.0429                 2.3587                 2.4048

                     25                     26                     27
                      A                      A                      A
 Frequencies --    780.0728               818.6609               847.6145
 Red. masses --      1.8868                 2.3891                 1.3862
 Frc consts  --      0.6765                 0.9434                 0.5868
 IR Inten    --      2.7070                 0.8012                86.2021

                     28                     29                     30
                      A                      A                      A
 Frequencies --    877.8599               903.6003               938.6525
 Red. masses --      2.0500                 1.6714                 1.4334
 Frc consts  --      0.9308                 0.8041                 0.7441
 IR Inten    --     26.1230                17.3395                 3.2620

                     31                     32                     33
                      A                      A                      A
 Frequencies --    953.5905               963.3541               993.1315
 Red. masses --      1.6547                 1.6462                 1.6700
 Frc consts  --      0.8865                 0.9001                 0.9704
 IR Inten    --     18.7865                 4.9010                 8.8461

                     34                     35                     36
                      A                      A                      A
 Frequencies --   1019.1721              1024.0432              1043.4247
 Red. masses --      1.5857                 2.9329                 2.7814
 Frc consts  --      0.9705                 1.8121                 1.7842
 IR Inten    --      1.7767                 7.9737                 6.4415

                     37                     38                     39
                      A                      A                      A
 Frequencies --   1054.0204              1080.3692              1108.7399
 Red. masses --      1.5955                 2.1313                 2.0009
 Frc consts  --      1.0443                 1.4657                 1.4493
 IR Inten    --      2.0665                 7.0990                 4.6840

                     40                     41                     42
                      A                      A                      A
 Frequencies --   1125.1764              1147.6203              1169.0778
 Red. masses --      2.2402                 2.0325                 1.4092
 Frc consts  --      1.6710                 1.5771                 1.1347
 IR Inten    --     11.6413                15.4292                17.4711

                     43                     44                     45
                      A                      A                      A
 Frequencies --   1175.2059              1216.3999              1236.7442
 Red. masses --      1.4933                 2.2179                 1.4856
 Frc consts  --      1.2151                 1.9335                 1.3388
 IR Inten    --     29.3460                20.2666                 7.9782

                     46                     47                     48
                      A                      A                      A
 Frequencies --   1279.6188              1304.3816              1312.2352
 Red. masses --      1.3299                 1.3073                 1.1803
 Frc consts  --      1.2831                 1.3105                 1.1975
 IR Inten    --     10.7647                 5.4937                 0.9936

                     49                     50                     51
                      A                      A                      A
 Frequencies --   1339.0633              1361.5951              1371.6764
 Red. masses --      1.4013                 1.3372                 1.2456
 Frc consts  --      1.4804                 1.4607                 1.3808
 IR Inten    --     15.4672                 2.0096                 6.6373

                     52                     53                     54
                      A                      A                      A
 Frequencies --   1379.3694              1387.9439              1404.5112
 Red. masses --      1.3222                 1.5579                 1.2131
 Frc consts  --      1.4822                 1.7682                 1.4099
 IR Inten    --     24.6699                13.7623                 4.7057

                     55                     56                     57
                      A                      A                      A
 Frequencies --   1416.8717              1424.1989              1461.8021
 Red. masses --      1.3070                 1.4353                 1.0533
 Frc consts  --      1.5459                 1.7153                 1.3261
 IR Inten    --      6.2446                17.7512                 7.8880

                     58                     59                     60
                      A                      A                      A
 Frequencies --   1474.5405              1475.6152              1484.4823
 Red. masses --      1.0645                 1.0608                 1.0536
 Frc consts  --      1.3637                 1.3609                 1.3679
 IR Inten    --      3.2668                 5.4455                 4.0705

                     61                     62                     63
                      A                      A                      A
 Frequencies --   1487.8932              1497.1710              1500.5432
 Red. masses --      1.0694                 1.0811                 1.0556
 Frc consts  --      1.3948                 1.4278                 1.4004
 IR Inten    --      2.0707                 2.2669                 8.3544

                     64                     65                     66
                      A                      A                      A
 Frequencies --   1503.7849              1504.6722              1654.1437
 Red. masses --      1.0681                 1.0767                 1.0916
 Frc consts  --      1.4230                 1.4362                 1.7597
 IR Inten    --      7.1133                 3.8434                23.7814

                     67                     68                     69
                      A                      A                      A
 Frequencies --   1739.7421              1808.2894              2981.3542
 Red. masses --      6.8987                10.4167                 1.0609
 Frc consts  --     12.3023                20.0686                 5.5558
 IR Inten    --      6.4129               121.9121                54.2056

                     70                     71                     72
                      A                      A                      A
 Frequencies --   3009.8323              3012.2334              3014.6729
 Red. masses --      1.0610                 1.0972                 1.0800
 Frc consts  --      5.6628                 5.8657                 5.7831
 IR Inten    --     13.1266                36.2809                20.5887

                     73                     74                     75
                      A                      A                      A
 Frequencies --   3022.8747              3032.8798              3035.7365
 Red. masses --      1.0447                 1.0383                 1.0633
 Frc consts  --      5.6242                 5.6271                 5.7732
 IR Inten    --     30.8819                 4.3938                33.3470

                     76                     77                     78
                      A                      A                      A
 Frequencies --   3037.6162              3053.5936              3068.8499
 Red. masses --      1.0375                 1.0975                 1.0957
 Frc consts  --      5.6403                 6.0296                 6.0798
 IR Inten    --     11.3220                14.5647                20.3813

                     79                     80                     81
                      A                      A                      A
 Frequencies --   3092.3654              3093.4035              3103.4121
 Red. masses --      1.0978                 1.0975                 1.1003
 Frc consts  --      6.1850                 6.1876                 6.2437
 IR Inten    --     10.4865                23.6829                36.6829

                     82                     83                     84
                      A                      A                      A
 Frequencies --   3120.1241              3131.5591              3132.3909
 Red. masses --      1.1018                 1.0920                 1.0909
 Frc consts  --      6.3195                 6.3093                 6.3062
 IR Inten    --     19.6149                10.6662                34.6337

                     85                     86                     87
                      A                      A                      A
 Frequencies --   3149.9642              3482.1948              3563.3659
 Red. masses --      1.1022                 1.0491                 1.0925
 Frc consts  --      6.4432                 7.4948                 8.1730
 IR Inten    --     12.4022                 3.0975                 0.2900

 - Thermochemistry -
 -------------------
 Temperature   298.150 Kelvin.  Pressure   1.00000 Atm.
 Atom     1 has atomic number  6 and mass  12.00000

 Molecular mass:   169.14666 amu.
 Principal axes and moments of inertia in atomic units:
                           1         2         3
     Eigenvalues --  1091.155435533.973125889.75031
           X            0.99986  -0.00107  -0.01651
           Y            0.00051   0.99943  -0.03373
           Z            0.01654   0.03372   0.99929
 This molecule is an asymmetric top.
 Rotational symmetry number  1.
 Warning -- assumption of classical behavior for rotation
           may cause significant error
 Rotational temperatures (Kelvin)      0.07938     0.01565     0.01471
 Rotational constants (GHZ):           1.65397     0.32612     0.30642
 Zero-point vibrational energy     724745.0 (Joules/Mol)
                                  173.21820 (Kcal/Mol)
 Warning -- explicit consideration of  23 degrees of freedom as
           vibrations may cause significant error
 Vibrational temperatures:     27.25    41.76    69.04    87.07   105.27
          (Kelvin)            134.72   189.26   214.82   251.12   298.98
                              329.80   352.86   367.27   410.93   438.17
                              474.89   532.81   653.50   662.96   731.68
                              837.85   864.72   872.65  1091.55  1122.35
                             1177.87  1219.53  1263.04  1300.08  1350.51
                             1372.00  1386.05  1428.89  1466.36  1473.37
                             1501.26  1516.50  1554.41  1595.23  1618.88
                             1651.17  1682.04  1690.86  1750.13  1779.40
                             1841.09  1876.71  1888.01  1926.61  1959.03
                             1973.54  1984.60  1996.94  2020.78  2038.56
                             2049.10  2103.21  2121.53  2123.08  2135.84
                             2140.75  2154.10  2158.95  2163.61  2164.89
                             2379.94  2503.10  2601.73  4289.50  4330.48
                             4333.93  4337.44  4349.24  4363.64  4367.75
                             4370.45  4393.44  4415.39  4449.22  4450.72
                             4465.12  4489.16  4505.62  4506.81  4532.10
                             5010.10  5126.89

 Zero-point correction=                           0.276041 (Hartree/Particle)
 Thermal correction to Energy=                    0.291633
 Thermal correction to Enthalpy=                  0.292577
 Thermal correction to Gibbs Free Energy=         0.230962
 Sum of electronic and zero-point Energies=           -522.228551
 Sum of electronic and thermal Energies=              -522.212959
 Sum of electronic and thermal Enthalpies=            -522.212015
 Sum of electronic and thermal Free Energies=         -522.273629

                     E (Thermal)             CV                S
                      KCal/Mol        Cal/Mol-Kelvin    Cal/Mol-Kelvin
 Total                  183.002             54.916            129.679
 Electronic               0.000              0.000              0.000
 Translational            0.889              2.981             41.285
 Rotational               0.889              2.981             31.942
 Vibrational            181.225             48.955             56.452
 Vibration     1          0.593              1.986              6.743
 Vibration     2          0.593              1.984              5.895
 Vibration     3          0.595              1.978              4.899
 Vibration     4          0.597              1.973              4.440
 Vibration     5          0.599              1.967              4.066
 Vibration     6          0.603              1.954              3.583
 Vibration     7          0.612              1.922              2.923
 Vibration     8          0.618              1.903              2.681
 Vibration     9          0.627              1.874              2.386
 Vibration    10          0.641              1.829              2.063
 Vibration    11          0.652              1.796              1.885
 Vibration    12          0.660              1.771              1.764
 Vibration    13          0.666              1.754              1.694
 Vibration    14          0.683              1.700              1.500
 Vibration    15          0.695              1.665              1.392
 Vibration    16          0.713              1.615              1.260
 Vibration    17          0.742              1.533              1.078
 Vibration    18          0.813              1.352              0.783
 Vibration    19          0.819              1.337              0.764
 Vibration    20          0.864              1.231              0.637
 Vibration    21          0.939              1.070              0.481
 Vibration    22          0.959              1.030              0.448
 Vibration    23          0.965              1.018              0.439

 Optimization completed.
    -- Stationary point found.
 Normal termination of Gaussian 16 at Sun May 28 08:36:06 2023.
