 Gaussian 16, Revision A.03,
 Gaussian 16:  ES64L-G16RevA.03 25-Dec-2016

 -----------------------------
 # opt freq b3lyp/6-31g(2df,p)
 -----------------------------

 -------------------
 Title Card Required
 -------------------
 Symbolic Z-matrix:
 Charge =  0 Multiplicity = 1

 SCF Done:  E(RB3LYP) =  -743.156460533     A.U. after   20 cycles
 SCF Done:  E(RB3LYP) =  -743.179745330     A.U. after   14 cycles
 SCF Done:  E(RB3LYP) =  -743.186395217     A.U. after   14 cycles
 SCF Done:  E(RB3LYP) =  -743.188036948     A.U. after   13 cycles
 SCF Done:  E(RB3LYP) =  -743.188501899     A.U. after   12 cycles
 SCF Done:  E(RB3LYP) =  -743.188678092     A.U. after   13 cycles
 SCF Done:  E(RB3LYP) =  -743.189012952     A.U. after   13 cycles
 SCF Done:  E(RB3LYP) =  -743.189387169     A.U. after   13 cycles
 SCF Done:  E(RB3LYP) =  -743.189863748     A.U. after   16 cycles
 SCF Done:  E(RB3LYP) =  -743.190568869     A.U. after   14 cycles
 SCF Done:  E(RB3LYP) =  -743.361624405     A.U. after    9 cycles
 SCF Done:  E(RB3LYP) =  -743.361624201     A.U. after    9 cycles
 SCF Done:  E(RB3LYP) =  -743.361631266     A.U. after    9 cycles
 SCF Done:  E(RB3LYP) =  -743.361639781     A.U. after   10 cycles
 SCF Done:  E(RB3LYP) =  -743.361641582     A.U. after    9 cycles
 SCF Done:  E(RB3LYP) =  -743.361642648     A.U. after    9 cycles
 SCF Done:  E(RB3LYP) =  -743.361642984     A.U. after    7 cycles
 SCF Done:  E(RB3LYP) =  -743.361643067     A.U. after    7 cycles
 SCF Done:  E(RB3LYP) =  -743.361643135     A.U. after    7 cycles
 Optimization completed.
    -- Stationary point found.
 Normal termination of Gaussian 16 at Wed May 24 08:00:58 2023.

 ----------------------------------------------------------------------
 #N Geom=AllCheck Guess=TCheck SCRF=Check GenChk RB3LYP/6-31G(2df,p) Fr
 eq
 ----------------------------------------------------------------------

 Structure from the checkpoint file:  "CCqdOrNCCC1CdCqOrC2dCqO2rC1dO.chk"
 -------------------
 Title Card Required
 -------------------
 Charge =  0 Multiplicity = 1

                         Standard orientation:
 ---------------------------------------------------------------------
 Center     Atomic      Atomic             Coordinates (Angstroms)
 Number     Number       Type             X           Y           Z
 ---------------------------------------------------------------------
      1          6           0       -5.154912   -0.365897    0.830674
      2          6           0       -3.879546   -0.302420    0.005583
      3          8           0       -3.736670   -0.937047   -1.025475
      4          7           0       -2.903514    0.520851    0.490576
      5          6           0       -1.628799    0.667667   -0.191858
      6          6           0       -0.649784   -0.474417    0.115322
      7          6           0        0.674663   -0.377403   -0.668098
      8          6           0        1.541825   -1.599130   -0.467990
      9          6           0        2.749163   -1.309699    0.036378
     10          8           0        3.787430   -2.097490    0.368206
     11          6           0        2.916296    0.164940    0.242964
     12          6           0        1.620490    0.733673   -0.216740
     13          8           0        3.891899    0.729854    0.677165
     14          6           0        1.415693    2.032727   -0.255692
     15          8           0        1.263436    3.181938   -0.276050
     16          1           0       -5.321959   -1.400291    1.142694
     17          1           0       -5.996514   -0.077789    0.195515
     18          1           0       -5.141390    0.275283    1.715826
     19          1           0       -3.041425    0.987871    1.370489
     20          1           0       -1.207439    1.636902    0.093488
     21          1           0       -1.832526    0.689132   -1.267183
     22          1           0       -1.145171   -1.412833   -0.155698
     23          1           0       -0.433596   -0.511237    1.189099
     24          1           0        0.431021   -0.264362   -1.734622
     25          1           0        1.169745   -2.589119   -0.705328
     26          1           0        3.564566   -3.017795    0.187653
 ---------------------------------------------------------------------

 SCF Done:  E(RB3LYP) =  -743.361643135     A.U. after    1 cycles

 The electronic state is 1-A.
 Alpha  occ. eigenvalues --  -19.22863 -19.18835 -19.12246 -19.10214 -14.36012
 Alpha  occ. eigenvalues --  -10.32054 -10.28307 -10.27592 -10.25505 -10.23021
 Alpha  occ. eigenvalues --  -10.22970 -10.20916 -10.20182 -10.19786 -10.19510
 Alpha  occ. eigenvalues --   -1.13507  -1.08032  -1.03370  -1.03348  -0.92606
 Alpha  occ. eigenvalues --   -0.87374  -0.78471  -0.77547  -0.74264  -0.69365
 Alpha  occ. eigenvalues --   -0.64559  -0.62320  -0.59890  -0.58750  -0.53125
 Alpha  occ. eigenvalues --   -0.52618  -0.50846  -0.49004  -0.47754  -0.47610
 Alpha  occ. eigenvalues --   -0.46169  -0.45696  -0.45020  -0.43985  -0.43716
 Alpha  occ. eigenvalues --   -0.41997  -0.41009  -0.40526  -0.39730  -0.39521
 Alpha  occ. eigenvalues --   -0.37990  -0.37446  -0.37100  -0.35613  -0.34758
 Alpha  occ. eigenvalues --   -0.26310  -0.25300  -0.25112  -0.24753  -0.24353
 Alpha virt. eigenvalues --   -0.05244  -0.04815   0.02469   0.03862   0.05978
 Alpha virt. eigenvalues --    0.06274   0.09117   0.10673   0.11920   0.12384
 Alpha virt. eigenvalues --    0.13252   0.13778   0.14287   0.14873   0.16884

 Mulliken charges:
               1
     1  C   -0.480886
     2  C    0.407288
     3  O   -0.379873
     4  N   -0.309200
     5  C   -0.183175
     6  C   -0.180499
     7  C   -0.158794
     8  C   -0.258695
     9  C    0.299492
    10  O   -0.416140
    11  C    0.288108
    12  C   -0.235801
    13  O   -0.341211
    14  C    0.495141
    15  O   -0.215019
    16  H    0.153266
    17  H    0.155902
    18  H    0.111541
    19  H    0.248099
    20  H    0.111300
    21  H    0.137906
    22  H    0.129624
    23  H    0.097932
    24  H    0.109182
    25  H    0.109473
    26  H    0.305039
 Sum of Mulliken charges =  -0.00000

 Dipole moment (field-independent basis, Debye):
    X=             -3.2250    Y=             -1.7420    Z=              1.2664  Tot=              3.8780
 Quadrupole moment (field-independent basis, Debye-Ang):
   XX=           -101.2119   YY=            -80.4486   ZZ=            -85.5072
   XY=            -15.8133   XZ=            -16.0957   YZ=             -0.8716

  Exact polarizability: 158.632  -0.781 134.027   9.027   4.657  85.204
 Approx polarizability: 218.956  -0.325 231.705  30.323  14.356 146.745

                      1                      2                      3
                      A                      A                      A
 Frequencies --     25.6349                32.8378                38.2878
 Red. masses --      1.2741                 4.2711                 4.8020
 Frc consts  --      0.0005                 0.0027                 0.0041
 IR Inten    --      0.1079                12.7290                 7.2279

                      4                      5                      6
                      A                      A                      A
 Frequencies --     47.3163                68.8933                83.1443
 Red. masses --      4.4773                 3.8075                 6.6198
 Frc consts  --      0.0059                 0.0106                 0.0270
 IR Inten    --      0.6587                 4.0786                 0.7455

                      7                      8                      9
                      A                      A                      A
 Frequencies --    110.1943               134.6047               173.2982
 Red. masses --      5.7781                 6.8864                 3.1328
 Frc consts  --      0.0413                 0.0735                 0.0554
 IR Inten    --      1.2119                 2.3304                 0.4977

                     10                     11                     12
                      A                      A                      A
 Frequencies --    226.9424               275.9560               284.4357
 Red. masses --      4.3733                 3.1635                 4.2971
 Frc consts  --      0.1327                 0.1419                 0.2048
 IR Inten    --      0.9960                 6.7862                 1.6781

                     13                     14                     15
                      A                      A                      A
 Frequencies --    303.2587               343.8596               387.0479
 Red. masses --      7.1834                 4.0004                 1.3256
 Frc consts  --      0.3892                 0.2787                 0.1170
 IR Inten    --      2.0413                 4.8365                63.0374

                     16                     17                     18
                      A                      A                      A
 Frequencies --    391.5567               440.6686               467.2695
 Red. masses --      1.1923                 3.1984                 3.2505
 Frc consts  --      0.1077                 0.3659                 0.4182
 IR Inten    --     69.8662                10.0774                27.7399

                     19                     20                     21
                      A                      A                      A
 Frequencies --    486.4642               510.0034               531.9330
 Red. masses --      9.5422                 6.0691                 3.7252
 Frc consts  --      1.3305                 0.9301                 0.6210
 IR Inten    --      0.2826                 5.9850                 4.5753

                     22                     23                     24
                      A                      A                      A
 Frequencies --    587.0995               622.6371               647.7644
 Red. masses --      7.0065                 3.0957                 3.5762
 Frc consts  --      1.4229                 0.7071                 0.8841
 IR Inten    --      9.4872                 0.9189                 0.8435

                     25                     26                     27
                      A                      A                      A
 Frequencies --    653.5896               693.4454               718.8749
 Red. masses --      3.4420                 5.0181                 2.5722
 Frc consts  --      0.8663                 1.4217                 0.7832
 IR Inten    --      4.4098                 5.2153                 8.1140

                     28                     29                     30
                      A                      A                      A
 Frequencies --    777.8237               788.2360               835.6331
 Red. masses --      2.1550                 4.7748                 1.5185
 Frc consts  --      0.7682                 1.7479                 0.6247
 IR Inten    --      7.4495                 4.7691                32.9490

                     31                     32                     33
                      A                      A                      A
 Frequencies --    898.6129               958.6832               991.4508
 Red. masses --      2.7989                 4.5878                 2.1081
 Frc consts  --      1.3316                 2.4843                 1.2209
 IR Inten    --      3.6749                44.1102                27.3633

                     34                     35                     36
                      A                      A                      A
 Frequencies --   1005.7121              1030.3271              1051.6259
 Red. masses --      2.2801                 3.0214                 1.7715
 Frc consts  --      1.3588                 1.8897                 1.1543
 IR Inten    --      6.8338                76.8030                 5.8862

                     37                     38                     39
                      A                      A                      A
 Frequencies --   1057.6132              1097.6475              1114.8700
 Red. masses --      2.5665                 2.3385                 2.8281
 Frc consts  --      1.6914                 1.6600                 2.0711
 IR Inten    --      5.6401                 8.8185                16.4153

                     40                     41                     42
                      A                      A                      A
 Frequencies --   1142.9610              1186.4413              1224.1492
 Red. masses --      5.3021                 1.5650                 1.3516
 Frc consts  --      4.0809                 1.2980                 1.1933
 IR Inten    --    148.2311                66.3623                 6.9087

                     43                     44                     45
                      A                      A                      A
 Frequencies --   1247.3911              1269.2038              1274.5297
 Red. masses --      1.4614                 1.9616                 1.9640
 Frc consts  --      1.3397                 1.8618                 1.8797
 IR Inten    --     11.1659                29.8801               134.1526

                     46                     47                     48
                      A                      A                      A
 Frequencies --   1308.3384              1348.7110              1353.7700
 Red. masses --      1.3980                 1.1357                 1.3850
 Frc consts  --      1.4100                 1.2171                 1.4955
 IR Inten    --     15.5177                17.1655                 5.0101

                     49                     50                     51
                      A                      A                      A
 Frequencies --   1396.2384              1409.6372              1416.5865
 Red. masses --      1.2619                 2.0535                 2.2645
 Frc consts  --      1.4494                 2.4041                 2.6774
 IR Inten    --     28.7573                25.2341                39.6337

                     52                     53                     54
                      A                      A                      A
 Frequencies --   1431.6704              1465.1328              1470.3882
 Red. masses --      2.5932                 1.0970                 1.0459
 Frc consts  --      3.1316                 1.3874                 1.3323
 IR Inten    --     35.7419                 6.4261                 4.7242

                     55                     56                     57
                      A                      A                      A
 Frequencies --   1485.0678              1486.0389              1535.4126
 Red. masses --      1.0786                 1.0934                 1.9524
 Frc consts  --      1.4015                 1.4226                 2.7119
 IR Inten    --     16.5029                 2.2440               225.8680

                     58                     59                     60
                      A                      A                      A
 Frequencies --   1699.7193              1773.1456              1792.2462
 Red. masses --      8.6478                 9.3560                12.9597
 Frc consts  --     14.7201                17.3313                24.5268
 IR Inten    --    110.4515               209.1727               403.0379

                     61                     62                     63
                      A                      A                      A
 Frequencies --   2220.0845              2996.2418              3037.5004
 Red. masses --     12.7203                 1.0815                 1.0585
 Frc consts  --     36.9390                 5.7205                 5.7543
 IR Inten    --    909.1344                16.1929                 5.7157

                     64                     65                     66
                      A                      A                      A
 Frequencies --   3049.9275              3050.2187              3081.7726
 Red. masses --      1.0433                 1.0507                 1.1022
 Frc consts  --      5.7178                 5.7596                 6.1677
 IR Inten    --      9.9722                36.5129                 1.7758

                     67                     68                     69
                      A                      A                      A
 Frequencies --   3105.3309              3127.6750              3129.9499
 Red. masses --      1.1068                 1.1011                 1.1018
 Frc consts  --      6.2884                 6.3464                 6.3598
 IR Inten    --     20.3805                 9.2047                12.2353

                     70                     71                     72
                      A                      A                      A
 Frequencies --   3195.4671              3658.6539              3808.6257
 Red. masses --      1.0942                 1.0778                 1.0657
 Frc consts  --      6.5828                 8.5004                 9.1084
 IR Inten    --      7.9514                21.8926                58.1952

 - Thermochemistry -
 -------------------
 Temperature   298.150 Kelvin.  Pressure   1.00000 Atm.
 Atom     1 has atomic number  6 and mass  12.00000

 Molecular mass:   209.06881 amu.
 Principal axes and moments of inertia in atomic units:
                           1         2         3
     Eigenvalues --  1662.380676570.414097786.60175
           X            0.99990  -0.00810  -0.01125
           Y            0.00813   0.99996   0.00260
           Z            0.01123  -0.00269   0.99993
 This molecule is an asymmetric top.
 Rotational symmetry number  1.
 Warning -- assumption of classical behavior for rotation
           may cause significant error
 Rotational temperatures (Kelvin)      0.05210     0.01318     0.01112
 Rotational constants (GHZ):           1.08564     0.27468     0.23178
 Zero-point vibrational energy     526796.4 (Joules/Mol)
                                  125.90736 (Kcal/Mol)
 Warning -- explicit consideration of  22 degrees of freedom as
           vibrations may cause significant error
 Vibrational temperatures:     36.88    47.25    55.09    68.08    99.12
          (Kelvin)            119.63   158.55   193.67   249.34   326.52
                              397.04   409.24   436.32   494.74   556.88
                              563.36   634.02   672.30   699.91   733.78
                              765.33   844.71   895.84   931.99   940.37
                              997.71  1034.30  1119.11  1134.10  1202.29
                             1292.90  1379.33  1426.48  1447.00  1482.41
                             1513.06  1521.67  1579.27  1604.05  1644.47
                             1707.02  1761.28  1794.72  1826.10  1833.76
                             1882.41  1940.49  1947.77  2008.88  2028.15
                             2038.15  2059.85  2108.00  2115.56  2136.68
                             2138.08  2209.12  2445.52  2551.16  2578.64
                             3194.21  4310.92  4370.29  4388.17  4388.58
                             4433.98  4467.88  4500.03  4503.30  4597.56
                             5263.99  5479.76

 Zero-point correction=                           0.200646 (Hartree/Particle)
 Thermal correction to Energy=                    0.216032
 Thermal correction to Enthalpy=                  0.216977
 Thermal correction to Gibbs Free Energy=         0.154990
 Sum of electronic and zero-point Energies=           -743.160997
 Sum of electronic and thermal Energies=              -743.145611
 Sum of electronic and thermal Enthalpies=            -743.144667
 Sum of electronic and thermal Free Energies=         -743.206653

                     E (Thermal)             CV                S
                      KCal/Mol        Cal/Mol-Kelvin    Cal/Mol-Kelvin
 Total                  135.562             54.549            130.461
 Electronic               0.000              0.000              0.000
 Translational            0.889              2.981             41.916
 Rotational               0.889              2.981             32.808
 Vibrational            133.785             48.587             55.737
 Vibration     1          0.593              1.985              6.141
 Vibration     2          0.594              1.983              5.650
 Vibration     3          0.594              1.982              5.346
 Vibration     4          0.595              1.979              4.927
 Vibration     5          0.598              1.969              4.185
 Vibration     6          0.600              1.961              3.815
 Vibration     7          0.606              1.941              3.265
 Vibration     8          0.613              1.919              2.879
 Vibration     9          0.627              1.875              2.399
 Vibration    10          0.651              1.800              1.903
 Vibration    11          0.678              1.718              1.559
 Vibration    12          0.683              1.703              1.507
 Vibration    13          0.695              1.668              1.399
 Vibration    14          0.723              1.588              1.194
 Vibration    15          0.755              1.498              1.011
 Vibration    16          0.759              1.488              0.994
 Vibration    17          0.801              1.381              0.825
 Vibration    18          0.825              1.323              0.745
 Vibration    19          0.842              1.280              0.693
 Vibration    20          0.865              1.228              0.634
 Vibration    21          0.887              1.179              0.583
 Vibration    22          0.944              1.059              0.472

                           ! Non-Optimized Parameters !
 Normal termination of Gaussian 16 at Wed May 24 09:42:21 2023.
