 Gaussian 16, Revision A.03,
 Gaussian 16:  ES64L-G16RevA.03 25-Dec-2016

 -----------------------------
 # opt freq b3lyp/6-31g(2df,p)
 -----------------------------

 -------------------
 Title Card Required
 -------------------
 Symbolic Z-matrix:
 Charge =  0 Multiplicity = 1

 SCF Done:  E(RB3LYP) =  -561.731964428     A.U. after   14 cycles
 SCF Done:  E(RB3LYP) =  -561.737061295     A.U. after   11 cycles
 SCF Done:  E(RB3LYP) =  -561.738945384     A.U. after   12 cycles
 SCF Done:  E(RB3LYP) =  -561.739629974     A.U. after   13 cycles
 SCF Done:  E(RB3LYP) =  -561.739676567     A.U. after    9 cycles
 SCF Done:  E(RB3LYP) =  -561.739688855     A.U. after    9 cycles
 SCF Done:  E(RB3LYP) =  -561.739714256     A.U. after   10 cycles
 SCF Done:  E(RB3LYP) =  -561.690345384     A.U. after   12 cycles
 SCF Done:  E(RB3LYP) =  -561.739842461     A.U. after   11 cycles
 SCF Done:  E(RB3LYP) =  -561.734278938     A.U. after   12 cycles
 SCF Done:  E(RB3LYP) =  -561.745467451     A.U. after    7 cycles
 SCF Done:  E(RB3LYP) =  -561.745467516     A.U. after    7 cycles
 SCF Done:  E(RB3LYP) =  -561.745467614     A.U. after    7 cycles
 SCF Done:  E(RB3LYP) =  -561.745467725     A.U. after    7 cycles
 SCF Done:  E(RB3LYP) =  -561.745467931     A.U. after    8 cycles
 SCF Done:  E(RB3LYP) =  -561.745468170     A.U. after    8 cycles
 SCF Done:  E(RB3LYP) =  -561.745468354     A.U. after    8 cycles
 SCF Done:  E(RB3LYP) =  -561.745468411     A.U. after    7 cycles
 SCF Done:  E(RB3LYP) =  -561.745468421     A.U. after    6 cycles
 Optimization completed on the basis of negligible forces.
    -- Stationary point found.
 Normal termination of Gaussian 16 at Sun May 28 08:18:16 2023.

 ----------------------------------------------------------------------
 #N Geom=AllCheck Guess=TCheck SCRF=Check GenChk RB3LYP/6-31G(2df,p) Fr
 eq
 ----------------------------------------------------------------------

 Structure from the checkpoint file:  "CCqdCCCdCONrCCCqCrC.chk"
 -------------------
 Title Card Required
 -------------------
 Charge =  0 Multiplicity = 1

                         Standard orientation:
 ---------------------------------------------------------------------
 Center     Atomic      Atomic             Coordinates (Angstroms)
 Number     Number       Type             X           Y           Z
 ---------------------------------------------------------------------
      1          6           0        0.633657    3.036892   -0.390323
      2          6           0        0.700468    1.565044   -0.061598
      3          6           0       -0.333524    0.840289    0.379320
      4          6           0       -1.756692    1.280613    0.628890
      5          6           0       -2.740381    0.532446   -0.236613
      6          6           0       -3.680228   -0.269612    0.255238
      7          8           0       -4.559187   -0.934539   -0.557172
      8          7           0       -5.426926   -1.777437    0.219682
      9          6           0        2.084102    0.978733   -0.274334
     10          6           0        2.267683   -0.517691   -0.008217
     11          6           0        3.677915   -1.053889   -0.322189
     12          6           0        4.756848   -0.455506    0.592123
     13          6           0        3.696094   -2.586503   -0.237713
     14          1           0       -0.360150    3.466918   -0.259915
     15          1           0        0.941956    3.215189   -1.428729
     16          1           0        1.329516    3.607215    0.238837
     17          1           0       -0.175161   -0.216766    0.577613
     18          1           0       -1.865904    2.359121    0.470718
     19          1           0       -2.007967    1.100759    1.683636
     20          1           0       -2.652480    0.649061   -1.313695
     21          1           0       -3.833597   -0.453634    1.314078
     22          1           0       -5.275268   -2.703653   -0.181384
     23          1           0       -6.358001   -1.500257   -0.092191
     24          1           0        2.787691    1.554525    0.344359
     25          1           0        2.388698    1.194142   -1.310911
     26          1           0        1.542781   -1.077191   -0.612518
     27          1           0        2.029186   -0.741421    1.040683
     28          1           0        3.919143   -0.772643   -1.358104
     29          1           0        4.546134   -0.685126    1.643934
     30          1           0        4.825619    0.631874    0.496038
     31          1           0        5.742851   -0.869054    0.355004
     32          1           0        3.455498   -2.925002    0.777471
     33          1           0        4.682311   -2.987527   -0.494555
     34          1           0        2.963476   -3.033063   -0.918270
 ---------------------------------------------------------------------

 SCF Done:  E(RB3LYP) =  -561.745468421     A.U. after    1 cycles

 The electronic state is 1-A.
 Alpha  occ. eigenvalues --  -19.18216 -14.37606 -10.21677 -10.18092 -10.17872
 Alpha  occ. eigenvalues --  -10.17760 -10.17447 -10.17092 -10.16964 -10.16650
 Alpha  occ. eigenvalues --  -10.16599 -10.16242 -10.16063  -1.07882  -0.84093
 Alpha  occ. eigenvalues --   -0.81610  -0.79283  -0.76172  -0.71246  -0.68899
 Alpha  occ. eigenvalues --   -0.67572  -0.63869  -0.61298  -0.55368  -0.55226
 Alpha  occ. eigenvalues --   -0.51271  -0.51053  -0.49896  -0.46499  -0.46088
 Alpha  occ. eigenvalues --   -0.45027  -0.43541  -0.42700  -0.40391  -0.40154
 Alpha  occ. eigenvalues --   -0.38756  -0.38515  -0.37593  -0.37053  -0.35950
 Alpha  occ. eigenvalues --   -0.35526  -0.34888  -0.34357  -0.33838  -0.33055
 Alpha  occ. eigenvalues --   -0.31394  -0.30960  -0.30106  -0.27100  -0.22846
 Alpha  occ. eigenvalues --   -0.20615
 Alpha virt. eigenvalues --    0.02817   0.06359   0.07439   0.08759   0.09327
 Alpha virt. eigenvalues --    0.10384   0.12049   0.13115   0.13375   0.14054
 Alpha virt. eigenvalues --    0.14413   0.15132   0.15559   0.16200   0.16496

 Mulliken charges:
               1
     1  C   -0.475832
     2  C    0.271086
     3  C   -0.107682
     4  C   -0.310591
     5  C   -0.155370
     6  C    0.124005
     7  O   -0.246970
     8  N   -0.379995
     9  C   -0.263547
    10  C   -0.177805
    11  C    0.037264
    12  C   -0.380276
    13  C   -0.389862
    14  H    0.121930
    15  H    0.119437
    16  H    0.119960
    17  H    0.076768
    18  H    0.099714
    19  H    0.098331
    20  H    0.085514
    21  H    0.102665
    22  H    0.257208
    23  H    0.257645
    24  H    0.102751
    25  H    0.097265
    26  H    0.097597
    27  H    0.094857
    28  H    0.068396
    29  H    0.109944
    30  H    0.112887
    31  H    0.107840
    32  H    0.110112
    33  H    0.106413
    34  H    0.108343
 Sum of Mulliken charges =  -0.00000

 Dipole moment (field-independent basis, Debye):
    X=             -0.8814    Y=             -0.7977    Z=             -0.2502  Tot=              1.2148
 Quadrupole moment (field-independent basis, Debye-Ang):
   XX=            -69.3542   YY=            -77.8135   ZZ=            -83.0824
   XY=              7.7192   XZ=              0.8284   YZ=              0.8100

  Exact polarizability: 179.410  21.591 137.799  -7.777  -4.906 103.061
 Approx polarizability: 216.955  36.747 189.439 -15.898 -12.030 164.616

                      1                      2                      3
                      A                      A                      A
 Frequencies --     10.8289                23.2332                32.5416
 Red. masses --      3.7468                 3.0201                 4.5702
 Frc consts  --      0.0003                 0.0010                 0.0029
 IR Inten    --      4.9520                 0.1923                 0.2499

                      4                      5                      6
                      A                      A                      A
 Frequencies --     45.6810                63.5842               105.9177
 Red. masses --      2.8336                 2.3939                 2.8938
 Frc consts  --      0.0035                 0.0057                 0.0191
 IR Inten    --      0.2602                 0.5204                 0.4986

                      7                      8                      9
                      A                      A                      A
 Frequencies --    116.1186               129.6126               141.6955
 Red. masses --      1.7689                 1.6978                 1.1741
 Frc consts  --      0.0141                 0.0168                 0.0139
 IR Inten    --      0.6872                 4.9414                 0.6321

                     10                     11                     12
                      A                      A                      A
 Frequencies --    181.1538               195.0763               221.6942
 Red. masses --      3.8352                 1.5636                 1.2032
 Frc consts  --      0.0742                 0.0351                 0.0348
 IR Inten    --      1.6138                23.2152                 2.4576

                     13                     14                     15
                      A                      A                      A
 Frequencies --    230.8244               248.1248               269.4247
 Red. masses --      1.7248                 1.2013                 3.0126
 Frc consts  --      0.0541                 0.0436                 0.1288
 IR Inten    --      3.9771                 0.6592                 3.8981

                     16                     17                     18
                      A                      A                      A
 Frequencies --    303.7500               307.2175               369.6248
 Red. masses --      2.6545                 2.4594                 3.0841
 Frc consts  --      0.1443                 0.1368                 0.2483
 IR Inten    --      1.7321                 0.2870                 0.4183

                     19                     20                     21
                      A                      A                      A
 Frequencies --    406.2686               432.8016               460.9762
 Red. masses --      2.2384                 2.3656                 2.5646
 Frc consts  --      0.2177                 0.2611                 0.3211
 IR Inten    --      0.1494                 2.4138                 4.3134

                     22                     23                     24
                      A                      A                      A
 Frequencies --    482.3909               490.2247               553.1503
 Red. masses --      2.6018                 3.0750                 3.1210
 Frc consts  --      0.3567                 0.4354                 0.5626
 IR Inten    --      2.0147                 1.7104                 1.1338

                     25                     26                     27
                      A                      A                      A
 Frequencies --    582.6765               755.1706               787.7502
 Red. masses --      2.9104                 1.2284                 2.7455
 Frc consts  --      0.5822                 0.4128                 1.0038
 IR Inten    --      9.4511                 0.0341                 2.6403

                     28                     29                     30
                      A                      A                      A
 Frequencies --    828.4752               841.2382               883.6342
 Red. masses --      1.8467                 2.2050                 1.5247
 Frc consts  --      0.7468                 0.9194                 0.7014
 IR Inten    --      6.0320                 1.5791                 4.8165

                     31                     32                     33
                      A                      A                      A
 Frequencies --    920.0351               926.8788               945.3924
 Red. masses --      1.8396                 1.2070                 1.8466
 Frc consts  --      0.9174                 0.6110                 0.9724
 IR Inten    --      2.8328                 0.9141                 0.6247

                     34                     35                     36
                      A                      A                      A
 Frequencies --    950.5041               963.8677               980.8486
 Red. masses --      6.6647                 1.4431                 1.1088
 Frc consts  --      3.5476                 0.7899                 0.6285
 IR Inten    --      6.0256                 0.6117                26.3800

                     37                     38                     39
                      A                      A                      A
 Frequencies --    982.0759               992.5317              1052.7716
 Red. masses --      1.8380                 1.5868                 1.3769
 Frc consts  --      1.0444                 0.9210                 0.8992
 IR Inten    --      8.6997                 1.4289                 0.1722

                     40                     41                     42
                      A                      A                      A
 Frequencies --   1058.9574              1074.8318              1093.3610
 Red. masses --      2.7810                 2.4469                 2.2224
 Frc consts  --      1.8374                 1.6655                 1.5653
 IR Inten    --      1.7852                 0.2354               146.4423

                     43                     44                     45
                      A                      A                      A
 Frequencies --   1109.0206              1143.8947              1151.4676
 Red. masses --      2.6871                 1.9244                 1.9298
 Frc consts  --      1.9472                 1.4836                 1.5075
 IR Inten    --      4.3838                 1.2945                 1.1144

                     46                     47                     48
                      A                      A                      A
 Frequencies --   1176.1796              1193.0178              1232.9703
 Red. masses --      1.9073                 1.7613                 1.4597
 Frc consts  --      1.5546                 1.4770                 1.3074
 IR Inten    --     14.4013                 4.6333                16.5358

                     49                     50                     51
                      A                      A                      A
 Frequencies --   1242.1438              1278.0796              1288.6895
 Red. masses --      1.4535                 1.5108                 1.4413
 Frc consts  --      1.3213                 1.4540                 1.4103
 IR Inten    --      5.2983               146.4324                47.6092

                     52                     53                     54
                      A                      A                      A
 Frequencies --   1294.3769              1313.2019              1322.8729
 Red. masses --      1.3640                 1.2731                 1.1295
 Frc consts  --      1.3464                 1.2935                 1.1646
 IR Inten    --      2.1205                 0.1866                 0.1020

                     55                     56                     57
                      A                      A                      A
 Frequencies --   1332.2965              1341.6974              1355.9070
 Red. masses --      1.1096                 1.3140                 1.4045
 Frc consts  --      1.1605                 1.3937                 1.5213
 IR Inten    --      2.6724                 1.6834                 3.6071

                     58                     59                     60
                      A                      A                      A
 Frequencies --   1369.8515              1375.1341              1400.4187
 Red. masses --      1.3278                 1.4325                 1.2720
 Frc consts  --      1.4680                 1.5960                 1.4697
 IR Inten    --      3.0704                 5.7465                 5.2296

                     61                     62                     63
                      A                      A                      A
 Frequencies --   1409.7720              1416.1050              1422.5346
 Red. masses --      1.3386                 1.4119                 1.2766
 Frc consts  --      1.5675                 1.6682                 1.5220
 IR Inten    --      1.8501                 4.4081                 2.8637

                     64                     65                     66
                      A                      A                      A
 Frequencies --   1468.2696              1473.2464              1483.2583
 Red. masses --      1.0834                 1.0820                 1.0440
 Frc consts  --      1.3761                 1.3837                 1.3532
 IR Inten    --      0.8983                 0.7343                 5.7138

                     67                     68                     69
                      A                      A                      A
 Frequencies --   1486.4653              1490.1161              1494.0694
 Red. masses --      1.0611                 1.0502                 1.0724
 Frc consts  --      1.3813                 1.3739                 1.4105
 IR Inten    --      0.1853                 1.2343                 5.0714

                     70                     71                     72
                      A                      A                      A
 Frequencies --   1499.6108              1504.9664              1511.3900
 Red. masses --      1.0758                 1.0551                 1.0505
 Frc consts  --      1.4254                 1.4080                 1.4138
 IR Inten    --      1.1866                 3.1152                10.3296

                     73                     74                     75
                      A                      A                      A
 Frequencies --   1659.2609              1726.9969              1743.1382
 Red. masses --      1.0693                 6.7115                 6.2114
 Frc consts  --      1.7346                11.7937                11.1199
 IR Inten    --     13.0991               109.2333                35.7528

                     76                     77                     78
                      A                      A                      A
 Frequencies --   2982.6920              2990.8488              3007.7924
 Red. masses --      1.0656                 1.0800                 1.0639
 Frc consts  --      5.5855                 5.6919                 5.6710
 IR Inten    --     19.1909                17.6546                30.9486

                     79                     80                     81
                      A                      A                      A
 Frequencies --   3010.6008              3011.6493              3017.3591
 Red. masses --      1.0889                 1.0589                 1.0442
 Frc consts  --      5.8148                 5.6589                 5.6014
 IR Inten    --      4.5166                20.3454                46.9386

                     82                     83                     84
                      A                      A                      A
 Frequencies --   3021.4700              3027.4644              3054.8778
 Red. masses --      1.0368                 1.0388                 1.1022
 Frc consts  --      5.5768                 5.6098                 6.0601
 IR Inten    --     36.3208                26.5570                23.4986

                     85                     86                     87
                      A                      A                      A
 Frequencies --   3056.9545              3057.7684              3085.1792
 Red. masses --      1.0941                 1.0983                 1.1003
 Frc consts  --      6.0240                 6.0502                 6.1705
 IR Inten    --     29.5052                36.6746                 5.0640

                     88                     89                     90
                      A                      A                      A
 Frequencies --   3091.4892              3096.6931              3104.8376
 Red. masses --      1.0999                 1.1014                 1.0996
 Frc consts  --      6.1933                 6.2230                 6.2456
 IR Inten    --     67.3287                43.0167                38.9205

                     91                     92                     93
                      A                      A                      A
 Frequencies --   3132.4806              3157.3093              3162.7583
 Red. masses --      1.0940                 1.0867                 1.0890
 Frc consts  --      6.3248                 6.3828                 6.4179
 IR Inten    --     29.1959                16.6888                11.7247

                     94                     95                     96
                      A                      A                      A
 Frequencies --   3183.4058              3428.4754              3509.9704
 Red. masses --      1.0917                 1.0478                 1.0953
 Frc consts  --      6.5183                 7.2563                 7.9503
 IR Inten    --     12.0670                 0.8456                 0.5682

 - Thermochemistry -
 -------------------
 Temperature   298.150 Kelvin.  Pressure   1.00000 Atm.
 Atom     1 has atomic number  6 and mass  12.00000

 Molecular mass:   183.16231 amu.
 Principal axes and moments of inertia in atomic units:
                           1         2         3
     Eigenvalues --  1680.138787339.479918722.75310
           X            0.99996  -0.00837  -0.00096
           Y            0.00836   0.99995  -0.00467
           Z            0.00099   0.00466   0.99999
 This molecule is an asymmetric top.
 Rotational symmetry number  1.
 Warning -- assumption of classical behavior for rotation
           may cause significant error
 Rotational temperatures (Kelvin)      0.05155     0.01180     0.00993
 Rotational constants (GHZ):           1.07416     0.24589     0.20690
 Zero-point vibrational energy     797582.7 (Joules/Mol)
                                  190.62684 (Kcal/Mol)
 Warning -- explicit consideration of  25 degrees of freedom as
           vibrations may cause significant error
 Vibrational temperatures:     15.58    33.43    46.82    65.72    91.48
          (Kelvin)            152.39   167.07   186.48   203.87   260.64
                              280.67   318.97   332.10   357.00   387.64
                              437.03   442.02   531.81   584.53   622.71
                              663.24   694.05   705.32   795.86   838.34
                             1086.52  1133.40  1191.99  1210.35  1271.35
                             1323.73  1333.57  1360.21  1367.56  1386.79
                             1411.22  1412.99  1428.03  1514.70  1523.60
                             1546.44  1573.10  1595.63  1645.81  1656.71
                             1692.26  1716.49  1773.97  1787.17  1838.87
                             1854.14  1862.32  1889.40  1903.32  1916.88
                             1930.40  1950.85  1970.91  1978.51  2014.89
                             2028.35  2037.46  2046.71  2112.51  2119.67
                             2134.08  2138.69  2143.94  2149.63  2157.61
                             2165.31  2174.55  2387.31  2484.76  2507.99
                             4291.43  4303.16  4327.54  4331.58  4333.09
                             4341.31  4347.22  4355.85  4395.29  4398.28
                             4399.45  4438.88  4447.96  4455.45  4467.17
                             4506.94  4542.66  4550.50  4580.21  4932.81
                             5050.06

 Zero-point correction=                           0.303783 (Hartree/Particle)
 Thermal correction to Energy=                    0.320837
 Thermal correction to Enthalpy=                  0.321781
 Thermal correction to Gibbs Free Energy=         0.255558
 Sum of electronic and zero-point Energies=           -561.441685
 Sum of electronic and thermal Energies=              -561.424632
 Sum of electronic and thermal Enthalpies=            -561.423687
 Sum of electronic and thermal Free Energies=         -561.489911

                     E (Thermal)             CV                S
                      KCal/Mol        Cal/Mol-Kelvin    Cal/Mol-Kelvin
 Total                  201.328             60.084            139.378
 Electronic               0.000              0.000              0.000
 Translational            0.889              2.981             41.522
 Rotational               0.889              2.981             33.042
 Vibrational            199.551             54.122             64.815
 Vibration     1          0.593              1.987              7.853
 Vibration     2          0.593              1.985              6.337
 Vibration     3          0.594              1.983              5.668
 Vibration     4          0.595              1.979              4.996
 Vibration     5          0.597              1.972              4.343
 Vibration     6          0.605              1.945              3.342
 Vibration     7          0.608              1.936              3.164
 Vibration     8          0.612              1.924              2.952
 Vibration     9          0.615              1.912              2.781
 Vibration    10          0.630              1.865              2.316
 Vibration    11          0.636              1.847              2.179
 Vibration    12          0.648              1.808              1.945
 Vibration    13          0.653              1.794              1.873
 Vibration    14          0.662              1.766              1.744
 Vibration    15          0.674              1.729              1.600
 Vibration    16          0.695              1.667              1.396
 Vibration    17          0.697              1.660              1.377
 Vibration    18          0.742              1.535              1.081
 Vibration    19          0.771              1.457              0.940
 Vibration    20          0.794              1.399              0.850
 Vibration    21          0.819              1.337              0.763
 Vibration    22          0.839              1.289              0.704
 Vibration    23          0.846              1.272              0.683
 Vibration    24          0.909              1.133              0.538
 Vibration    25          0.939              1.069              0.480

 Optimization completed on the basis of negligible forces.
    -- Stationary point found.
 Normal termination of Gaussian 16 at Sun May 28 09:46:14 2023.
