 Gaussian 16, Revision A.03,
 Gaussian 16:  ES64L-G16RevA.03 25-Dec-2016

 -----------------------------
 # opt freq b3lyp/6-31g(2df,p)
 -----------------------------

 -------------------
 Title Card Required
 -------------------
 Symbolic Z-matrix:
 Charge =  0 Multiplicity = 1

 SCF Done:  E(RB3LYP) =  -692.092770740     A.U. after   14 cycles
 SCF Done:  E(RB3LYP) =  -692.107260292     A.U. after   12 cycles
 SCF Done:  E(RB3LYP) =  -692.112146337     A.U. after   12 cycles
 SCF Done:  E(RB3LYP) =  -692.114842291     A.U. after   12 cycles
 SCF Done:  E(RB3LYP) =  -692.116468511     A.U. after   12 cycles
 SCF Done:  E(RB3LYP) =  -692.119384984     A.U. after   13 cycles
 SCF Done:  E(RB3LYP) =  -692.122860346     A.U. after   13 cycles
 SCF Done:  E(RB3LYP) =  -692.125697933     A.U. after   12 cycles
 SCF Done:  E(RB3LYP) =  -692.126760212     A.U. after   12 cycles
 SCF Done:  E(RB3LYP) =  -692.127746830     A.U. after   12 cycles
 SCF Done:  E(RB3LYP) =  -692.128267735     A.U. after   12 cycles
 SCF Done:  E(RB3LYP) =  -692.128537049     A.U. after   12 cycles
 SCF Done:  E(RB3LYP) =  -692.128651841     A.U. after   10 cycles
 SCF Done:  E(RB3LYP) =  -692.128700318     A.U. after   11 cycles
 SCF Done:  E(RB3LYP) =  -692.128714860     A.U. after    9 cycles
 SCF Done:  E(RB3LYP) =  -692.128721522     A.U. after    9 cycles
 SCF Done:  E(RB3LYP) =  -692.128723030     A.U. after    8 cycles
 SCF Done:  E(RB3LYP) =  -692.128723230     A.U. after    7 cycles
 Optimization completed.
    -- Stationary point found.
 Normal termination of Gaussian 16 at Sun May 28 06:14:09 2023.

 ----------------------------------------------------------------------
 #N Geom=AllCheck Guess=TCheck SCRF=Check GenChk RB3LYP/6-31G(2df,p) Fr
 eq
 ----------------------------------------------------------------------

 Structure from the checkpoint file:  "CCqdNrCCC1dCCdNCdCC1qCrCCO.chk"
 -------------------
 Title Card Required
 -------------------
 Charge =  0 Multiplicity = 1

                         Standard orientation:
 ---------------------------------------------------------------------
 Center     Atomic      Atomic             Coordinates (Angstroms)
 Number     Number       Type             X           Y           Z
 ---------------------------------------------------------------------
      1          6           0        4.919488   -0.496549    0.344627
      2          6           0        3.767385    0.340559   -0.167434
      3          7           0        3.870762    1.499919   -0.681599
      4          6           0        2.399576   -0.298426   -0.037535
      5          6           0        1.242644    0.559131   -0.582378
      6          6           0       -0.098887   -0.125711   -0.433709
      7          6           0       -0.525927   -0.924509   -1.445625
      8          6           0       -1.628927   -1.854067   -1.452233
      9          7           0       -2.136441   -2.522818   -0.463904
     10          6           0       -1.658981   -2.376743    0.820108
     11          6           0       -1.106094   -1.299789    1.415055
     12          6           0       -0.966768    0.088969    0.817402
     13          6           0       -0.304951    0.998937    1.872448
     14          6           0       -2.363683    0.676633    0.462285
     15          6           0       -2.353625    2.030936   -0.254122
     16          8           0       -3.668028    2.478425   -0.553526
     17          1           0        5.873936    0.022358    0.223824
     18          1           0        4.971742   -1.452786   -0.188852
     19          1           0        4.784432   -0.736694    1.405695
     20          1           0        4.848024    1.801219   -0.706187
     21          1           0        2.234758   -0.550769    1.018863
     22          1           0        2.413763   -1.267753   -0.554345
     23          1           0        1.434973    0.748068   -1.642208
     24          1           0        1.265872    1.534917   -0.095545
     25          1           0        0.046029   -0.903808   -2.372741
     26          1           0       -2.025876   -2.110816   -2.437801
     27          1           0       -1.788016   -3.274239    1.423602
     28          1           0       -0.761424   -1.422654    2.439814
     29          1           0        0.659951    0.604984    2.204239
     30          1           0       -0.954906    1.059340    2.750953
     31          1           0       -0.144308    2.016370    1.510746
     32          1           0       -2.938246    0.773846    1.390614
     33          1           0       -2.908350   -0.035789   -0.164529
     34          1           0       -1.735928    1.975243   -1.163648
     35          1           0       -1.925376    2.812005    0.381291
     36          1           0       -4.074559    1.823627   -1.130386
 ---------------------------------------------------------------------

 SCF Done:  E(RB3LYP) =  -692.128723230     A.U. after    1 cycles

 The electronic state is 1-A.
 Alpha  occ. eigenvalues --  -19.12801 -14.31824 -14.31280 -10.23925 -10.22174
 Alpha  occ. eigenvalues --  -10.22027 -10.21213 -10.21172 -10.20348 -10.19804
 Alpha  occ. eigenvalues --  -10.19754 -10.18857 -10.18754 -10.18376 -10.18133
 Alpha  occ. eigenvalues --  -10.17665  -1.00867  -0.92341  -0.90935  -0.84458
 Alpha  occ. eigenvalues --   -0.79550  -0.76368  -0.74235  -0.72976  -0.71361
 Alpha  occ. eigenvalues --   -0.67289  -0.64415  -0.62018  -0.60472  -0.54990
 Alpha  occ. eigenvalues --   -0.53197  -0.52087  -0.49681  -0.49126  -0.47503
 Alpha  occ. eigenvalues --   -0.46755  -0.45889  -0.44809  -0.44391  -0.43389
 Alpha  occ. eigenvalues --   -0.42119  -0.41655  -0.40888  -0.40008  -0.39430
 Alpha  occ. eigenvalues --   -0.38127  -0.37374  -0.36958  -0.36763  -0.35467
 Alpha  occ. eigenvalues --   -0.34735  -0.32962  -0.32678  -0.30948  -0.30322
 Alpha  occ. eigenvalues --   -0.27202  -0.26484  -0.26106  -0.23861  -0.22403
 Alpha virt. eigenvalues --   -0.04794   0.00122   0.01578   0.06943   0.08383
 Alpha virt. eigenvalues --    0.08552   0.09264   0.10431   0.11191   0.11500
 Alpha virt. eigenvalues --    0.12995   0.13102   0.14185   0.14714   0.15159

 Mulliken charges:
               1
     1  C   -0.459414
     2  C    0.306431
     3  N   -0.445839
     4  C   -0.237758
     5  C   -0.311688
     6  C    0.232137
     7  C   -0.133067
     8  C   -0.039223
     9  N   -0.234619
    10  C   -0.011803
    11  C   -0.098102
    12  C    0.085911
    13  C   -0.458451
    14  C   -0.227017
    15  C   -0.070824
    16  O   -0.419149
    17  H    0.124046
    18  H    0.138419
    19  H    0.136972
    20  H    0.212496
    21  H    0.116705
    22  H    0.120388
    23  H    0.121196
    24  H    0.123740
    25  H    0.088843
    26  H    0.098971
    27  H    0.100013
    28  H    0.084614
    29  H    0.115820
    30  H    0.121224
    31  H    0.129926
    32  H    0.102710
    33  H    0.106709
    34  H    0.090484
    35  H    0.108563
    36  H    0.280635
 Sum of Mulliken charges =  -0.00000

 Dipole moment (field-independent basis, Debye):
    X=              3.7876    Y=             -1.0805    Z=              0.7003  Tot=              4.0005
 Quadrupole moment (field-independent basis, Debye-Ang):
   XX=            -92.8991   YY=           -110.3680   ZZ=            -91.7413
   XY=             -2.4010   XZ=              3.7572   YZ=              0.7094

  Exact polarizability: 166.637  18.744 152.364   3.166  -0.555 143.598
 Approx polarizability: 220.883  41.695 249.413   6.217  -0.333 248.553

                      1                      2                      3
                      A                      A                      A
 Frequencies --     31.6211                36.2947                43.7974
 Red. masses --      3.3271                 5.0369                 3.5811
 Frc consts  --      0.0020                 0.0039                 0.0040
 IR Inten    --      2.3662                 0.1390                 0.0700

                      4                      5                      6
                      A                      A                      A
 Frequencies --     74.8680                85.0698               106.2002
 Red. masses --      2.9372                 2.5936                 2.9716
 Frc consts  --      0.0097                 0.0111                 0.0197
 IR Inten    --      2.2257                 1.4733                 2.8592

                      7                      8                      9
                      A                      A                      A
 Frequencies --    117.5583               137.5478               158.3902
 Red. masses --      2.3150                 1.1840                 3.7440
 Frc consts  --      0.0188                 0.0132                 0.0553
 IR Inten    --      0.5084                 0.0985                 2.0809

                     10                     11                     12
                      A                      A                      A
 Frequencies --    192.2537               230.2150               271.6040
 Red. masses --      3.8926                 4.6786                 1.7013
 Frc consts  --      0.0848                 0.1461                 0.0739
 IR Inten    --      3.0400                 1.2808                 0.9420

                     13                     14                     15
                      A                      A                      A
 Frequencies --    282.5028               303.8183               308.4294
 Red. masses --      2.8303                 1.1882                 1.6937
 Frc consts  --      0.1331                 0.0646                 0.0949
 IR Inten    --      2.5288                72.2307                 9.3983

                     16                     17                     18
                      A                      A                      A
 Frequencies --    332.4738               346.6385               362.9123
 Red. masses --      2.7048                 3.1002                 2.4805
 Frc consts  --      0.1762                 0.2195                 0.1925
 IR Inten    --      5.5909                13.8843                 4.5489

                     19                     20                     21
                      A                      A                      A
 Frequencies --    384.4304               408.6742               438.7108
 Red. masses --      2.8801                 3.2997                 3.3012
 Frc consts  --      0.2508                 0.3247                 0.3744
 IR Inten    --      5.8648                 1.6373                 6.3994

                     22                     23                     24
                      A                      A                      A
 Frequencies --    465.0950               466.2166               493.4035
 Red. masses --      3.8683                 2.1198                 2.7828
 Frc consts  --      0.4930                 0.2715                 0.3991
 IR Inten    --      3.1283                 1.1926                 1.2143

                     25                     26                     27
                      A                      A                      A
 Frequencies --    555.6238               596.0469               660.8516
 Red. masses --      3.2750                 4.1263                 3.1855
 Frc consts  --      0.5957                 0.8637                 0.8197
 IR Inten    --     17.8240                10.9891                 7.2010

                     28                     29                     30
                      A                      A                      A
 Frequencies --    719.0903               737.6157               744.9309
 Red. masses --      3.0632                 2.2716                 1.8548
 Frc consts  --      0.9332                 0.7282                 0.6064
 IR Inten    --      5.1969                 2.0504                 9.3642

                     31                     32                     33
                      A                      A                      A
 Frequencies --    779.8128               786.5731               844.2568
 Red. masses --      1.1917                 1.5248                 2.0680
 Frc consts  --      0.4270                 0.5558                 0.8685
 IR Inten    --      2.2015                16.6297                23.9242

                     34                     35                     36
                      A                      A                      A
 Frequencies --    858.9409               882.9672               895.3340
 Red. masses --      1.2983                 2.1775                 3.9744
 Frc consts  --      0.5643                 1.0002                 1.8771
 IR Inten    --     11.2494                 3.5164                 6.7526

                     37                     38                     39
                      A                      A                      A
 Frequencies --    903.1619               932.4367               958.5402
 Red. masses --      2.0366                 2.1652                 1.8860
 Frc consts  --      0.9788                 1.1091                 1.0209
 IR Inten    --      0.4060                 1.9585                11.2829

                     40                     41                     42
                      A                      A                      A
 Frequencies --    959.4387               980.2208               993.2228
 Red. masses --      1.8463                 1.3867                 1.9261
 Frc consts  --      1.0013                 0.7850                 1.1195
 IR Inten    --      0.2713                 5.0183                22.9521

                     43                     44                     45
                      A                      A                      A
 Frequencies --   1002.6092              1034.0021              1045.9916
 Red. masses --      1.8009                 1.8401                 2.4635
 Frc consts  --      1.0666                 1.1591                 1.5880
 IR Inten    --      2.6907                 9.5818                 9.0337

                     46                     47                     48
                      A                      A                      A
 Frequencies --   1055.7412              1068.9343              1074.5171
 Red. masses --      3.0846                 1.5324                 4.4240
 Frc consts  --      2.0257                 1.0316                 3.0095
 IR Inten    --      1.4396                11.1474               109.9536

                     49                     50                     51
                      A                      A                      A
 Frequencies --   1102.0084              1103.7812              1115.0841
 Red. masses --      2.0126                 1.5306                 2.8346
 Frc consts  --      1.4400                 1.0987                 2.0766
 IR Inten    --     11.0762                50.9602                12.4888

                     52                     53                     54
                      A                      A                      A
 Frequencies --   1127.3486              1182.2846              1194.9641
 Red. masses --      1.5617                 1.6059                 1.5553
 Frc consts  --      1.1694                 1.3226                 1.3085
 IR Inten    --     14.7717                 0.1760                 2.7916

                     55                     56                     57
                      A                      A                      A
 Frequencies --   1208.7474              1237.7587              1265.6606
 Red. masses --      3.0101                 1.7282                 1.3785
 Frc consts  --      2.5912                 1.5600                 1.3010
 IR Inten    --      3.1687                14.5089                17.1827

                     58                     59                     60
                      A                      A                      A
 Frequencies --   1287.1174              1301.8368              1310.3884
 Red. masses --      1.1956                 1.2169                 1.2902
 Frc consts  --      1.1670                 1.2151                 1.3053
 IR Inten    --      2.2584                 0.7536                 1.1409

                     61                     62                     63
                      A                      A                      A
 Frequencies --   1337.6160              1342.7689              1374.5696
 Red. masses --      1.1548                 1.4658                 1.4712
 Frc consts  --      1.2174                 1.5571                 1.6378
 IR Inten    --      1.8190                29.4437                 3.7996

                     64                     65                     66
                      A                      A                      A
 Frequencies --   1395.4350              1397.5836              1408.9800
 Red. masses --      1.2648                 1.3123                 1.7444
 Frc consts  --      1.4511                 1.5103                 2.0404
 IR Inten    --      9.5225                 0.6854                33.8112

                     67                     68                     69
                      A                      A                      A
 Frequencies --   1410.5073              1421.6318              1425.9985
 Red. masses --      1.3770                 1.3074                 1.2310
 Frc consts  --      1.6141                 1.5568                 1.4748
 IR Inten    --     15.7565                15.0496                31.5801

                     70                     71                     72
                      A                      A                      A
 Frequencies --   1445.6638              1458.5404              1474.5513
 Red. masses --      1.4796                 1.0827                 1.0459
 Frc consts  --      1.8219                 1.3570                 1.3399
 IR Inten    --      5.3521                 3.0559                 7.6005

                     73                     74                     75
                      A                      A                      A
 Frequencies --   1480.5433              1481.5420              1484.3183
 Red. masses --      1.0800                 1.0776                 1.0871
 Frc consts  --      1.3948                 1.3936                 1.4112
 IR Inten    --      8.0056                16.7852                 6.4452

                     76                     77                     78
                      A                      A                      A
 Frequencies --   1504.1151              1508.4694              1516.4117
 Red. masses --      1.0580                 1.0610                 1.0902
 Frc consts  --      1.4103                 1.4225                 1.4771
 IR Inten    --      7.7081                 7.6480                 1.0671

                     79                     80                     81
                      A                      A                      A
 Frequencies --   1564.0013              1642.2849              1654.2373
 Red. masses --      8.0060                 6.9306                 5.7782
 Frc consts  --     11.5383                11.0133                 9.3162
 IR Inten    --     43.8692                37.8784                17.1022

                     82                     83                     84
                      A                      A                      A
 Frequencies --   1730.8338              2986.1777              3017.3769
 Red. masses --      7.9096                 1.0695                 1.0575
 Frc consts  --     13.9609                 5.6193                 5.6728
 IR Inten    --     65.3436                39.6232                 5.5140

                     85                     86                     87
                      A                      A                      A
 Frequencies --   3029.2922              3041.6139              3042.9376
 Red. masses --      1.0384                 1.0760                 1.0702
 Frc consts  --      5.6145                 5.8651                 5.8386
 IR Inten    --     15.1905                12.2411                12.7919

                     88                     89                     90
                      A                      A                      A
 Frequencies --   3046.3104              3071.7771              3072.2382
 Red. masses --      1.0493                 1.0678                 1.0884
 Frc consts  --      5.7371                 5.9361                 6.0529
 IR Inten    --     20.2344                 8.4620                 8.3303

                     91                     92                     93
                      A                      A                      A
 Frequencies --   3086.2714              3087.3360              3096.6661
 Red. masses --      1.0855                 1.0986                 1.1004
 Frc consts  --      6.0916                 6.1698                 6.2172
 IR Inten    --     39.5906                11.3541                32.0921

                     94                     95                     96
                      A                      A                      A
 Frequencies --   3107.9196              3118.4502              3121.6168
 Red. masses --      1.1011                 1.1022                 1.0987
 Frc consts  --      6.2663                 6.3155                 6.3080
 IR Inten    --     31.3114                20.5599                 2.9506

                     97                     98                     99
                      A                      A                      A
 Frequencies --   3126.1995              3129.6922              3130.8938
 Red. masses --      1.0839                 1.0891                 1.0961
 Frc consts  --      6.2415                 6.2851                 6.3308
 IR Inten    --     17.0343                21.3788                16.0440

                    100                    101                    102
                      A                      A                      A
 Frequencies --   3150.8544              3432.1696              3811.9234
 Red. masses --      1.0942                 1.0744                 1.0661
 Frc consts  --      6.4002                 7.4568                 9.1269
 IR Inten    --     33.9569                 8.0744                12.7330

 - Thermochemistry -
 -------------------
 Temperature   298.150 Kelvin.  Pressure   1.00000 Atm.
 Atom     1 has atomic number  6 and mass  12.00000

 Molecular mass:   220.15756 amu.
 Principal axes and moments of inertia in atomic units:
                           1         2         3
     Eigenvalues --  2461.957455861.121576863.85863
           X            0.99993  -0.01176   0.00291
           Y            0.01175   0.99992   0.00357
           Z           -0.00295  -0.00354   0.99999
 This molecule is an asymmetric top.
 Rotational symmetry number  1.
 Warning -- assumption of classical behavior for rotation
           may cause significant error
 Rotational temperatures (Kelvin)      0.03518     0.01478     0.01262
 Rotational constants (GHZ):           0.73305     0.30792     0.26293
 Zero-point vibrational energy     817975.9 (Joules/Mol)
                                  195.50093 (Kcal/Mol)
 Warning -- explicit consideration of  26 degrees of freedom as
           vibrations may cause significant error
 Vibrational temperatures:     45.50    52.22    63.01   107.72   122.40
          (Kelvin)            152.80   169.14   197.90   227.89   276.61
                              331.23   390.78   406.46   437.13   443.76
                              478.36   498.74   522.15   553.11   587.99
                              631.21   669.17   670.78   709.90   799.42
                              857.58   950.82  1034.61  1061.26  1071.79
                             1121.98  1131.70  1214.70  1235.82  1270.39
                             1288.19  1299.45  1341.57  1379.13  1380.42
                             1410.32  1429.03  1442.53  1487.70  1504.95
                             1518.98  1537.96  1545.99  1585.54  1588.09
                             1604.36  1622.00  1701.04  1719.29  1739.12
                             1780.86  1821.00  1851.87  1873.05  1885.36
                             1924.53  1931.94  1977.70  2007.72  2010.81
                             2027.21  2029.41  2045.41  2051.69  2079.99
                             2098.51  2121.55  2130.17  2131.61  2135.60
                             2164.09  2170.35  2181.78  2250.25  2362.88
                             2380.08  2490.28  4296.44  4341.33  4358.48
                             4376.20  4378.11  4382.96  4419.60  4420.27
                             4440.46  4441.99  4455.41  4471.60  4486.75
                             4491.31  4497.90  4502.93  4504.66  4533.38
                             4938.13  5484.51

 Zero-point correction=                           0.311551 (Hartree/Particle)
 Thermal correction to Energy=                    0.328742
 Thermal correction to Enthalpy=                  0.329687
 Thermal correction to Gibbs Free Energy=         0.265732
 Sum of electronic and zero-point Energies=           -691.817173
 Sum of electronic and thermal Energies=              -691.799981
 Sum of electronic and thermal Enthalpies=            -691.799037
 Sum of electronic and thermal Free Energies=         -691.862992

                     E (Thermal)             CV                S
                      KCal/Mol        Cal/Mol-Kelvin    Cal/Mol-Kelvin
 Total                  206.289             64.763            134.605
 Electronic               0.000              0.000              0.000
 Translational            0.889              2.981             42.070
 Rotational               0.889              2.981             32.960
 Vibrational            204.512             58.802             59.575
 Vibration     1          0.594              1.983              5.725
 Vibration     2          0.594              1.982              5.452
 Vibration     3          0.595              1.980              5.079
 Vibration     4          0.599              1.966              4.021
 Vibration     5          0.601              1.960              3.770
 Vibration     6          0.605              1.944              3.337
 Vibration     7          0.608              1.935              3.140
 Vibration     8          0.614              1.916              2.838
 Vibration     9          0.621              1.893              2.569
 Vibration    10          0.634              1.851              2.206
 Vibration    11          0.652              1.795              1.877
 Vibration    12          0.675              1.726              1.586
 Vibration    13          0.682              1.706              1.518
 Vibration    14          0.695              1.666              1.396
 Vibration    15          0.698              1.658              1.371
 Vibration    16          0.714              1.611              1.248
 Vibration    17          0.725              1.582              1.181
 Vibration    18          0.737              1.549              1.110
 Vibration    19          0.753              1.503              1.022
 Vibration    20          0.773              1.451              0.931
 Vibration    21          0.799              1.386              0.831
 Vibration    22          0.823              1.327              0.751
 Vibration    23          0.824              1.325              0.748
 Vibration    24          0.849              1.265              0.675
 Vibration    25          0.911              1.127              0.533
 Vibration    26          0.954              1.040              0.457

                           ! Non-Optimized Parameters !
 Normal termination of Gaussian 16 at Sun May 28 09:57:01 2023.
