 Gaussian 16, Revision A.03,
 Gaussian 16:  ES64L-G16RevA.03 25-Dec-2016

 -----------------------------
 # opt freq b3lyp/6-31g(2df,p)
 -----------------------------

 -------------------
 Title Card Required
 -------------------
 Symbolic Z-matrix:
 Charge =  0 Multiplicity = 1

 SCF Done:  E(RB3LYP) =  -742.319040051     A.U. after   14 cycles
 SCF Done:  E(RB3LYP) =  -742.324959203     A.U. after   12 cycles
 SCF Done:  E(RB3LYP) =  -742.326823649     A.U. after   11 cycles
 SCF Done:  E(RB3LYP) =  -742.328191116     A.U. after   14 cycles
 SCF Done:  E(RB3LYP) =  -742.328646802     A.U. after   12 cycles
 SCF Done:  E(RB3LYP) =  -742.329165001     A.U. after   11 cycles
 SCF Done:  E(RB3LYP) =  -742.329407491     A.U. after   12 cycles
 SCF Done:  E(RB3LYP) =  -742.329431120     A.U. after   10 cycles
 SCF Done:  E(RB3LYP) =  -742.329432335     A.U. after    8 cycles
 SCF Done:  E(RB3LYP) =  -742.329432650     A.U. after    7 cycles
 SCF Done:  E(RB3LYP) =  -742.329432816     A.U. after    7 cycles
 SCF Done:  E(RB3LYP) =  -742.329432813     A.U. after    7 cycles
 Optimization completed.
    -- Stationary point found.
 Normal termination of Gaussian 16 at Sun May 28 20:19:39 2023.

 ----------------------------------------------------------------------
 #N Geom=AllCheck Guess=TCheck SCRF=Check GenChk RB3LYP/6-31G(2df,p) Fr
 eq
 ----------------------------------------------------------------------

 Structure from the checkpoint file:  "CCqNrSC1CC1CtN.chk"
 -------------------
 Title Card Required
 -------------------
 Charge =  0 Multiplicity = 1

                         Standard orientation:
 ---------------------------------------------------------------------
 Center     Atomic      Atomic             Coordinates (Angstroms)
 Number     Number       Type             X           Y           Z
 ---------------------------------------------------------------------
      1          6           0        2.728868    0.939014    0.522136
      2          6           0        1.585466    0.302059   -0.273904
      3          7           0        1.984168   -0.631925   -1.320905
      4         16           0        0.483942   -0.556931    0.933648
      5          6           0       -0.805936   -1.118011   -0.164790
      6          6           0       -2.193227   -1.260658    0.382777
      7          6           0       -1.917713   -0.182883   -0.651329
      8          6           0       -1.935142    1.204176   -0.284450
      9          7           0       -1.950476    2.331812   -0.024697
     10          1           0        3.397752    1.472768   -0.161283
     11          1           0        3.315330    0.174588    1.043647
     12          1           0        2.354775    1.652519    1.262139
     13          1           0        0.983439    1.086837   -0.741427
     14          1           0        2.641416   -1.310100   -0.943626
     15          1           0        2.466339   -0.128083   -2.061490
     16          1           0       -0.475785   -1.835171   -0.906869
     17          1           0       -2.370274   -0.925620    1.397926
     18          1           0       -2.791052   -2.108371    0.068317
     19          1           0       -2.274743   -0.369858   -1.659116
 ---------------------------------------------------------------------

 SCF Done:  E(RB3LYP) =  -742.329432813     A.U. after    1 cycles

 The electronic state is 1-A.
 Alpha  occ. eigenvalues --  -88.87366 -14.32478 -14.32085 -10.24744 -10.24132
 Alpha  occ. eigenvalues --  -10.23777 -10.21982 -10.21576 -10.18707  -7.93674
 Alpha  occ. eigenvalues --   -5.90162  -5.89804  -5.89209  -0.91120  -0.90033
 Alpha  occ. eigenvalues --   -0.87961  -0.76759  -0.71842  -0.67501  -0.61399
 Alpha  occ. eigenvalues --   -0.58822  -0.53400  -0.50925  -0.49438  -0.45191
 Alpha  occ. eigenvalues --   -0.42950  -0.42463  -0.41257  -0.38899  -0.37977
 Alpha  occ. eigenvalues --   -0.36428  -0.35441  -0.34318  -0.32762  -0.30261
 Alpha  occ. eigenvalues --   -0.29327  -0.25378  -0.23137
 Alpha virt. eigenvalues --    0.01865   0.03187   0.03867   0.07223   0.07285
 Alpha virt. eigenvalues --    0.09777   0.11166   0.12335   0.14002   0.14509
 Alpha virt. eigenvalues --    0.15060   0.15937   0.16981   0.17747   0.19461

 Mulliken charges:
               1
     1  C   -0.403831
     2  C    0.037819
     3  N   -0.506426
     4  S   -0.151147
     5  C   -0.013808
     6  C   -0.296755
     7  C   -0.170489
     8  C    0.305484
     9  N   -0.348827
    10  H    0.115503
    11  H    0.126714
    12  H    0.143909
    13  H    0.130750
    14  H    0.232035
    15  H    0.230489
    16  H    0.139789
    17  H    0.156214
    18  H    0.135127
    19  H    0.137451
 Sum of Mulliken charges =   0.00000

 Dipole moment (field-independent basis, Debye):
    X=              1.7211    Y=             -3.0553    Z=             -1.8582  Tot=              3.9686
 Quadrupole moment (field-independent basis, Debye-Ang):
   XX=            -53.1415   YY=            -69.0314   ZZ=            -60.0933
   XY=              9.9210   XZ=             -1.0412   YZ=             -0.2371

  Exact polarizability: 104.146   4.390  93.557  -1.164   0.459  78.191
 Approx polarizability: 136.871   4.387 156.332  -1.817   1.736 125.384

                      1                      2                      3
                      A                      A                      A
 Frequencies --     40.6666                60.3245               109.5605
 Red. masses --      5.2826                 3.5159                 4.7398
 Frc consts  --      0.0051                 0.0075                 0.0335
 IR Inten    --      3.6991                 3.3311                 5.3484

                      4                      5                      6
                      A                      A                      A
 Frequencies --    138.3917               216.1776               235.9958
 Red. masses --      6.7156                 3.7815                 1.1010
 Frc consts  --      0.0758                 0.1041                 0.0361
 IR Inten    --      2.1249                 1.6348                 1.6021

                      7                      8                      9
                      A                      A                      A
 Frequencies --    254.1322               288.3077               323.2969
 Red. masses --      1.1946                 3.5300                 2.8768
 Frc consts  --      0.0455                 0.1729                 0.1772
 IR Inten    --     27.6128                 3.0399                 7.1468

                     10                     11                     12
                      A                      A                      A
 Frequencies --    351.8354               416.0065               452.6158
 Red. masses --      4.7928                 3.3095                 2.6021
 Frc consts  --      0.3496                 0.3375                 0.3141
 IR Inten    --      1.0372                13.4599                 4.0546

                     13                     14                     15
                      A                      A                      A
 Frequencies --    549.6130               609.4794               642.4532
 Red. masses --      5.0069                 6.5207                 3.4529
 Frc consts  --      0.8911                 1.4271                 0.8397
 IR Inten    --      2.0502                 1.5365                 7.8932

                     16                     17                     18
                      A                      A                      A
 Frequencies --    675.2696               772.9904               832.9535
 Red. masses --      3.4841                 2.5059                 1.6139
 Frc consts  --      0.9360                 0.8822                 0.6597
 IR Inten    --      1.5750                 6.7452                 6.7385

                     19                     20                     21
                      A                      A                      A
 Frequencies --    844.2630               904.1429               919.7566
 Red. masses --      2.1097                 2.6336                 1.3777
 Frc consts  --      0.8860                 1.2684                 0.6867
 IR Inten    --     99.1658                 1.2790                41.3871

                     22                     23                     24
                      A                      A                      A
 Frequencies --    988.6305              1008.5240              1039.0437
 Red. masses --      2.7865                 1.4854                 1.4431
 Frc consts  --      1.6046                 0.8902                 0.9179
 IR Inten    --     14.7125                 5.3224                 0.6037

                     25                     26                     27
                      A                      A                      A
 Frequencies --   1088.0044              1092.2749              1118.5110
 Red. masses --      2.6240                 1.2723                 1.2359
 Frc consts  --      1.8301                 0.8943                 0.9110
 IR Inten    --     18.6516                 1.0791                 0.9607

                     28                     29                     30
                      A                      A                      A
 Frequencies --   1129.0682              1146.9057              1194.5929
 Red. masses --      1.4204                 1.4112                 1.6898
 Frc consts  --      1.0668                 1.0937                 1.4207
 IR Inten    --     11.4177                 3.2493                35.9223

                     31                     32                     33
                      A                      A                      A
 Frequencies --   1209.1247              1291.5990              1311.1428
 Red. masses --      1.5262                 1.4695                 1.4446
 Frc consts  --      1.3147                 1.4444                 1.4631
 IR Inten    --      0.9440                23.0734                 4.9844

                     34                     35                     36
                      A                      A                      A
 Frequencies --   1379.4498              1398.3930              1406.8596
 Red. masses --      1.8032                 1.2050                 1.2508
 Frc consts  --      2.0216                 1.3883                 1.4586
 IR Inten    --      2.4240                 6.0839                 7.9371

                     37                     38                     39
                      A                      A                      A
 Frequencies --   1478.1528              1486.8445              1493.5392
 Red. masses --      1.2095                 1.0437                 1.0505
 Frc consts  --      1.5570                 1.3595                 1.3806
 IR Inten    --      3.1675                 3.5808                 3.1393

                     40                     41                     42
                      A                      A                      A
 Frequencies --   1642.1186              2352.3428              3030.1124
 Red. masses --      1.0939                12.5971                 1.0349
 Frc consts  --      1.7380                41.0697                 5.5984
 IR Inten    --     22.9963                23.8943                17.4843

                     43                     44                     45
                      A                      A                      A
 Frequencies --   3066.9033              3101.7757              3115.1678
 Red. masses --      1.0859                 1.1014                 1.1015
 Frc consts  --      6.0177                 6.2432                 6.2978
 IR Inten    --      3.4730                21.7989                15.7777

                     46                     47                     48
                      A                      A                      A
 Frequencies --   3145.8821              3162.1605              3182.3973
 Red. masses --      1.0544                 1.0861                 1.0896
 Frc consts  --      6.1479                 6.3989                 6.5016
 IR Inten    --      6.7407                 0.3254                 4.0148

                     49                     50                     51
                      A                      A                      A
 Frequencies --   3238.2929              3470.2876              3555.7770
 Red. masses --      1.1172                 1.0482                 1.0929
 Frc consts  --      6.9029                 7.4374                 8.1416
 IR Inten    --      2.2903                 0.3527                 1.6992

 - Thermochemistry -
 -------------------
 Temperature   298.150 Kelvin.  Pressure   1.00000 Atm.
 Atom     1 has atomic number  6 and mass  12.00000

 Molecular mass:   142.05647 amu.
 Principal axes and moments of inertia in atomic units:
                           1         2         3
     Eigenvalues --   891.331561894.350682225.16470
           X            0.99829   0.05842  -0.00324
           Y           -0.05826   0.99760   0.03753
           Z            0.00542  -0.03727   0.99929
 This molecule is an asymmetric top.
 Rotational symmetry number  1.
 Warning -- assumption of classical behavior for rotation
           may cause significant error
 Rotational temperatures (Kelvin)      0.09717     0.04572     0.03892
 Rotational constants (GHZ):           2.02477     0.95270     0.81106
 Zero-point vibrational energy     406503.7 (Joules/Mol)
                                   97.15672 (Kcal/Mol)
 Warning -- explicit consideration of  14 degrees of freedom as
           vibrations may cause significant error
 Vibrational temperatures:     58.51    86.79   157.63   199.11   311.03
          (Kelvin)            339.55   365.64   414.81   465.15   506.21
                              598.54   651.21   790.77   876.90   924.35
                              971.56  1112.16  1198.43  1214.71  1300.86
                             1323.32  1422.42  1451.04  1494.95  1565.40
                             1571.54  1609.29  1624.48  1650.14  1718.75
                             1739.66  1858.32  1886.44  1984.72  2011.98
                             2024.16  2126.73  2139.24  2148.87  2362.64
                             3384.50  4359.66  4412.59  4462.76  4482.03
                             4526.22  4549.64  4578.76  4659.18  4992.97
                             5115.97

 Zero-point correction=                           0.154829 (Hartree/Particle)
 Thermal correction to Energy=                    0.165227
 Thermal correction to Enthalpy=                  0.166171
 Thermal correction to Gibbs Free Energy=         0.118300
 Sum of electronic and zero-point Energies=           -742.174604
 Sum of electronic and thermal Energies=              -742.164206
 Sum of electronic and thermal Enthalpies=            -742.163262
 Sum of electronic and thermal Free Energies=         -742.211132

                     E (Thermal)             CV                S
                      KCal/Mol        Cal/Mol-Kelvin    Cal/Mol-Kelvin
 Total                  103.681             37.377            100.752
 Electronic               0.000              0.000              0.000
 Translational            0.889              2.981             40.764
 Rotational               0.889              2.981             29.709
 Vibrational            101.904             31.415             30.279
 Vibration     1          0.594              1.981              5.226
 Vibration     2          0.597              1.973              4.447
 Vibration     3          0.606              1.942              3.277
 Vibration     4          0.614              1.915              2.826
 Vibration     5          0.645              1.816              1.991
 Vibration     6          0.655              1.786              1.833
 Vibration     7          0.665              1.756              1.702
 Vibration     8          0.685              1.695              1.484
 Vibration     9          0.708              1.629              1.293
 Vibration    10          0.728              1.571              1.158
 Vibration    11          0.779              1.435              0.906
 Vibration    12          0.811              1.355              0.788
 Vibration    13          0.905              1.141              0.545
 Vibration    14          0.968              1.012              0.434

 Optimization completed.
    -- Stationary point found.
 Normal termination of Gaussian 16 at Sun May 28 20:45:59 2023.
