 Gaussian 16, Revision A.03,
 Gaussian 16:  ES64L-G16RevA.03 25-Dec-2016

 -----------------------------
 # opt freq b3lyp/6-31g(2df,p)
 -----------------------------

 -------------------
 Title Card Required
 -------------------
 Symbolic Z-matrix:
 Charge =  0 Multiplicity = 1

 SCF Done:  E(RB3LYP) =  -670.443642398     A.U. after   15 cycles
 SCF Done:  E(RB3LYP) =  -670.451559960     A.U. after   13 cycles
 SCF Done:  E(RB3LYP) =  -670.450925418     A.U. after   13 cycles
 SCF Done:  E(RB3LYP) =  -670.453887185     A.U. after   12 cycles
 SCF Done:  E(RB3LYP) =  -670.454980934     A.U. after   11 cycles
 SCF Done:  E(RB3LYP) =  -670.457602697     A.U. after   12 cycles
 SCF Done:  E(RB3LYP) =  -670.459150804     A.U. after   12 cycles
 SCF Done:  E(RB3LYP) =  -670.460232900     A.U. after   12 cycles
 SCF Done:  E(RB3LYP) =  -670.460479942     A.U. after   11 cycles
 SCF Done:  E(RB3LYP) =  -670.460510763     A.U. after   11 cycles
 SCF Done:  E(RB3LYP) =  -670.460514951     A.U. after    9 cycles
 SCF Done:  E(RB3LYP) =  -670.460515852     A.U. after    8 cycles
 SCF Done:  E(RB3LYP) =  -670.460516081     A.U. after    6 cycles
 SCF Done:  E(RB3LYP) =  -670.460516245     A.U. after    7 cycles
 SCF Done:  E(RB3LYP) =  -670.460516257     A.U. after    6 cycles
 Optimization completed.
    -- Stationary point found.
 Normal termination of Gaussian 16 at Sat May 27 18:26:47 2023.

 ----------------------------------------------------------------------
 #N Geom=AllCheck Guess=TCheck SCRF=Check GenChk RB3LYP/6-31G(2df,p) Fr
 eq
 ----------------------------------------------------------------------

 Structure from the checkpoint file:  "CCqNrC1dCCdCqCqdOrOOrCqCrC1.chk"
 -------------------
 Title Card Required
 -------------------
 Charge =  0 Multiplicity = 1

                         Standard orientation:
 ---------------------------------------------------------------------
 Center     Atomic      Atomic             Coordinates (Angstroms)
 Number     Number       Type             X           Y           Z
 ---------------------------------------------------------------------
      1          6           0       -3.898599   -0.683163    1.200184
      2          6           0       -3.302954   -0.164796   -0.128902
      3          7           0       -3.984883    1.028540   -0.639558
      4          6           0       -1.810161    0.056391   -0.018292
      5          6           0       -1.210367    1.223934   -0.314646
      6          6           0        0.221391    1.389956   -0.149140
      7          6           0        1.047652    0.337670    0.019957
      8          6           0        2.494953    0.619928    0.152075
      9          8           0        3.027190    1.695708    0.182758
     10          8           0        3.180471   -0.569883    0.237117
     11          8           0        4.591958   -0.301621    0.354678
     12          6           0        0.484978   -1.073264   -0.028011
     13          6           0        0.573571   -1.636062   -1.461333
     14          6           0       -0.961087   -1.081309    0.509283
     15          1           0       -4.968798   -0.877780    1.077510
     16          1           0       -3.776476    0.067482    1.989372
     17          1           0       -3.427263   -1.610087    1.540002
     18          1           0       -3.450875   -0.953273   -0.883427
     19          1           0       -4.011232    1.739838    0.087743
     20          1           0       -4.953838    0.799972   -0.840290
     21          1           0       -1.794205    2.061565   -0.676251
     22          1           0        0.649535    2.386807   -0.180168
     23          1           0        4.890480   -1.218776    0.438608
     24          1           0        1.079686   -1.721666    0.621048
     25          1           0       -0.024468   -1.036899   -2.154849
     26          1           0        0.205740   -2.667759   -1.493700
     27          1           0        1.608414   -1.633156   -1.813542
     28          1           0       -0.941913   -1.018265    1.608159
     29          1           0       -1.423822   -2.047125    0.273218
 ---------------------------------------------------------------------

 SCF Done:  E(RB3LYP) =  -670.460516257     A.U. after    1 cycles

 The electronic state is 1-A.
 Alpha  occ. eigenvalues --  -19.22571 -19.20648 -19.11452 -14.31663 -10.29772
 Alpha  occ. eigenvalues --  -10.22614 -10.19874 -10.19724 -10.19380 -10.19272
 Alpha  occ. eigenvalues --  -10.19199 -10.18531 -10.17944 -10.17473  -1.15008
 Alpha  occ. eigenvalues --   -1.03204  -0.92969  -0.89848  -0.85018  -0.77550
 Alpha  occ. eigenvalues --   -0.76424  -0.72791  -0.68571  -0.65039  -0.61114
 Alpha  occ. eigenvalues --   -0.59488  -0.55766  -0.53411  -0.51643  -0.49465
 Alpha  occ. eigenvalues --   -0.47057  -0.46386  -0.45965  -0.45384  -0.44093
 Alpha  occ. eigenvalues --   -0.42915  -0.42311  -0.41379  -0.40516  -0.39603
 Alpha  occ. eigenvalues --   -0.38323  -0.37225  -0.36412  -0.36333  -0.35960
 Alpha  occ. eigenvalues --   -0.34735  -0.32860  -0.32097  -0.30603  -0.26888
 Alpha  occ. eigenvalues --   -0.26467  -0.24741  -0.21689
 Alpha virt. eigenvalues --   -0.05350   0.01526   0.04408   0.06833   0.08313
 Alpha virt. eigenvalues --    0.09645   0.10288   0.11999   0.12331   0.13571
 Alpha virt. eigenvalues --    0.13779   0.15106   0.15615   0.16614   0.17491

 Mulliken charges:
               1
     1  C   -0.392329
     2  C   -0.070094
     3  N   -0.506544
     4  C    0.303431
     5  C   -0.189979
     6  C   -0.108824
     7  C    0.055033
     8  C    0.451786
     9  O   -0.343264
    10  O   -0.207451
    11  O   -0.271608
    12  C   -0.108522
    13  C   -0.394946
    14  C   -0.328668
    15  H    0.109548
    16  H    0.117608
    17  H    0.121693
    18  H    0.096446
    19  H    0.225390
    20  H    0.227472
    21  H    0.106185
    22  H    0.123115
    23  H    0.319054
    24  H    0.087739
    25  H    0.128634
    26  H    0.106639
    27  H    0.125416
    28  H    0.115383
    29  H    0.101658
 Sum of Mulliken charges =   0.00000

 Dipole moment (field-independent basis, Debye):
    X=             -3.5268    Y=             -3.4610    Z=              0.9107  Tot=              5.0246
 Quadrupole moment (field-independent basis, Debye-Ang):
   XX=            -74.4541   YY=            -81.6579   ZZ=            -84.4776
   XY=            -13.0459   XZ=             -2.1364   YZ=              0.1520

  Exact polarizability: 192.043  -0.722 122.298   0.825  -3.676  85.631
 Approx polarizability: 257.901   5.008 205.402   5.930  -8.410 132.653

                      1                      2                      3
                      A                      A                      A
 Frequencies --     46.0612                60.0086                71.8183
 Red. masses --      4.8532                 3.6233                 1.7400
 Frc consts  --      0.0061                 0.0077                 0.0053
 IR Inten    --      3.7194                 5.1045                55.6460

                      4                      5                      6
                      A                      A                      A
 Frequencies --     78.5396               106.4753               125.9309
 Red. masses --      1.9381                 3.4359                 4.3784
 Frc consts  --      0.0070                 0.0230                 0.0409
 IR Inten    --     46.1954                 0.2306                 0.2544

                      7                      8                      9
                      A                      A                      A
 Frequencies --    153.4307               208.3676               225.0852
 Red. masses --      5.3010                 3.3228                 2.0996
 Frc consts  --      0.0735                 0.0850                 0.0627
 IR Inten    --      0.3405                 0.1314                 3.0100

                     10                     11                     12
                      A                      A                      A
 Frequencies --    228.2928               252.1779               261.4982
 Red. masses --      3.0654                 1.1682                 1.0845
 Frc consts  --      0.0941                 0.0438                 0.0437
 IR Inten    --      1.1037                 0.8776                29.4481

                     13                     14                     15
                      A                      A                      A
 Frequencies --    274.8471               299.5226               327.9950
 Red. masses --      1.6649                 3.8416                 2.3183
 Frc consts  --      0.0741                 0.2031                 0.1469
 IR Inten    --     18.1648                 3.5791                 0.6402

                     16                     17                     18
                      A                      A                      A
 Frequencies --    339.3681               407.6154               426.3288
 Red. masses --      3.7770                 3.3745                 3.3347
 Frc consts  --      0.2563                 0.3303                 0.3571
 IR Inten    --      5.2374                 3.8557                10.8556

                     19                     20                     21
                      A                      A                      A
 Frequencies --    443.8061               504.8866               516.9926
 Red. masses --      4.2116                 3.2419                 3.1669
 Frc consts  --      0.4888                 0.4869                 0.4987
 IR Inten    --      0.1289                 9.6625                 1.6420

                     22                     23                     24
                      A                      A                      A
 Frequencies --    558.5156               612.8581               638.1672
 Red. masses --      4.5505                 3.7413                 2.9625
 Frc consts  --      0.8363                 0.8279                 0.7109
 IR Inten    --      3.9591                 3.4277                10.1562

                     25                     26                     27
                      A                      A                      A
 Frequencies --    720.0895               752.7695               806.3643
 Red. masses --      3.6063                 5.8688                 5.2346
 Frc consts  --      1.1018                 1.9594                 2.0054
 IR Inten    --      2.0766                19.6159                10.8147

                     28                     29                     30
                      A                      A                      A
 Frequencies --    858.7265               868.7034               885.4302
 Red. masses --      2.4885                 2.2282                 2.2267
 Frc consts  --      1.0812                 0.9907                 1.0285
 IR Inten    --     27.7361                13.3411                40.6449

                     31                     32                     33
                      A                      A                      A
 Frequencies --    907.6016               922.1513               940.4358
 Red. masses --      1.3665                 1.3637                 3.0435
 Frc consts  --      0.6632                 0.6833                 1.5859
 IR Inten    --     22.3427                58.6539                40.6945

                     34                     35                     36
                      A                      A                      A
 Frequencies --    951.5014               989.3255              1013.0999
 Red. masses --      2.9968                 1.5165                 1.4596
 Frc consts  --      1.5986                 0.8745                 0.8826
 IR Inten    --     35.6628                 0.5657                 1.5653

                     37                     38                     39
                      A                      A                      A
 Frequencies --   1048.9966              1054.2486              1060.7010
 Red. masses --      2.0156                 2.7317                 2.1325
 Frc consts  --      1.3068                 1.7888                 1.4136
 IR Inten    --      5.5870                23.2583                 9.8861

                     40                     41                     42
                      A                      A                      A
 Frequencies --   1081.4804              1091.8619              1105.7452
 Red. masses --      2.4819                 1.8208                 2.5233
 Frc consts  --      1.7103                 1.2789                 1.8177
 IR Inten    --     27.8338                 0.9475                 5.6948

                     43                     44                     45
                      A                      A                      A
 Frequencies --   1137.7716              1184.0408              1222.1650
 Red. masses --      1.6369                 1.3845                 3.2000
 Frc consts  --      1.2485                 1.1436                 2.8162
 IR Inten    --      2.2449                 5.6300               215.3767

                     46                     47                     48
                      A                      A                      A
 Frequencies --   1236.3101              1255.1334              1305.9389
 Red. masses --      2.1662                 1.3374                 1.7200
 Frc consts  --      1.9508                 1.2413                 1.7283
 IR Inten    --    108.5897                 9.7980                42.1982

                     49                     50                     51
                      A                      A                      A
 Frequencies --   1318.6194              1325.0607              1345.4516
 Red. masses --      1.3250                 1.4178                 1.3567
 Frc consts  --      1.3574                 1.4667                 1.4470
 IR Inten    --      7.6045                 1.2259                 2.6405

                     52                     53                     54
                      A                      A                      A
 Frequencies --   1380.6030              1392.2007              1401.0133
 Red. masses --      1.9666                 1.4321                 1.2259
 Frc consts  --      2.2086                 1.6354                 1.4177
 IR Inten    --      7.8289                 7.3024                 3.8659

                     55                     56                     57
                      A                      A                      A
 Frequencies --   1407.3945              1413.4750              1448.8070
 Red. masses --      1.3531                 1.5264                 1.1796
 Frc consts  --      1.5792                 1.7967                 1.4588
 IR Inten    --      8.7251                16.9339               125.2605

                     58                     59                     60
                      A                      A                      A
 Frequencies --   1464.5320              1492.8873              1496.2613
 Red. masses --      1.0878                 1.0534                 1.0541
 Frc consts  --      1.3747                 1.3833                 1.3904
 IR Inten    --      4.0195                 3.4286                 3.2355

                     61                     62                     63
                      A                      A                      A
 Frequencies --   1499.9326              1501.1639              1628.8957
 Red. masses --      1.0672                 1.0547                 6.6830
 Frc consts  --      1.4146                 1.4004                10.4474
 IR Inten    --      1.3632                 3.3133               141.6457

                     64                     65                     66
                      A                      A                      A
 Frequencies --   1655.4548              1696.9519              1828.0414
 Red. masses --      1.1379                 5.9063                12.1980
 Frc consts  --      1.8373                10.0208                24.0166
 IR Inten    --     49.3190                 0.6211               249.0703

                     67                     68                     69
                      A                      A                      A
 Frequencies --   2983.2819              2988.1978              3028.6496
 Red. masses --      1.0807                 1.0693                 1.0352
 Frc consts  --      5.6667                 5.6257                 5.5948
 IR Inten    --     20.3888                22.3111                27.4632

                     70                     71                     72
                      A                      A                      A
 Frequencies --   3032.0904              3048.3811              3065.4812
 Red. masses --      1.0368                 1.0911                 1.0844
 Frc consts  --      5.6159                 5.9739                 6.0041
 IR Inten    --     20.2559                24.6963                11.4553

                     73                     74                     75
                      A                      A                      A
 Frequencies --   3100.2601              3102.3427              3108.7995
 Red. masses --      1.1020                 1.0992                 1.1007
 Frc consts  --      6.2407                 6.2331                 6.2678
 IR Inten    --     29.2472                26.1664                31.2568

                     76                     77                     78
                      A                      A                      A
 Frequencies --   3120.2360              3187.7162              3207.9886
 Red. masses --      1.1017                 1.0887                 1.0905
 Frc consts  --      6.3195                 6.5178                 6.6120
 IR Inten    --     17.6123                 3.0769                 4.6362

                     79                     80                     81
                      A                      A                      A
 Frequencies --   3479.2042              3560.6788              3769.6514
 Red. masses --      1.0503                 1.0908                 1.0676
 Frc consts  --      7.4905                 8.1481                 8.9384
 IR Inten    --      0.0892                 0.3229                71.2644

 - Thermochemistry -
 -------------------
 Temperature   298.150 Kelvin.  Pressure   1.00000 Atm.
 Atom     1 has atomic number  6 and mass  12.00000

 Molecular mass:   197.10519 amu.
 Principal axes and moments of inertia in atomic units:
                           1         2         3
     Eigenvalues --  1067.835155575.403836071.22079
           X            0.99995  -0.00503  -0.00880
           Y            0.00507   0.99998   0.00473
           Z            0.00878  -0.00478   0.99995
 This molecule is an asymmetric top.
 Rotational symmetry number  1.
 Warning -- assumption of classical behavior for rotation
           may cause significant error
 Rotational temperatures (Kelvin)      0.08111     0.01554     0.01427
 Rotational constants (GHZ):           1.69009     0.32370     0.29726
 Zero-point vibrational energy     634313.2 (Joules/Mol)
                                  151.60450 (Kcal/Mol)
 Warning -- explicit consideration of  23 degrees of freedom as
           vibrations may cause significant error
 Vibrational temperatures:     66.27    86.34   103.33   113.00   153.19
          (Kelvin)            181.19   220.75   299.79   323.85   328.46
                              362.83   376.24   395.44   430.95   471.91
                              488.28   586.47   613.39   638.54   726.42
                              743.84   803.58   881.77   918.18  1036.05
                             1083.07  1160.18  1235.52  1249.87  1273.94
                             1305.84  1326.77  1353.08  1369.00  1423.42
                             1457.62  1509.27  1516.83  1526.11  1556.01
                             1570.95  1590.92  1637.00  1703.57  1758.42
                             1778.77  1805.86  1878.95  1897.20  1906.47
                             1935.80  1986.38  2003.07  2015.75  2024.93
                             2033.68  2084.51  2107.13  2147.93  2152.79
                             2158.07  2159.84  2343.62  2381.83  2441.54
                             2630.14  4292.28  4299.35  4357.55  4362.50
                             4385.94  4410.54  4460.58  4463.58  4472.87
                             4489.32  4586.41  4615.58  5005.80  5123.02
                             5423.69

 Zero-point correction=                           0.241597 (Hartree/Particle)
 Thermal correction to Energy=                    0.256729
 Thermal correction to Enthalpy=                  0.257673
 Thermal correction to Gibbs Free Energy=         0.199297
 Sum of electronic and zero-point Energies=           -670.218919
 Sum of electronic and thermal Energies=              -670.203788
 Sum of electronic and thermal Enthalpies=            -670.202843
 Sum of electronic and thermal Free Energies=         -670.261219

                     E (Thermal)             CV                S
                      KCal/Mol        Cal/Mol-Kelvin    Cal/Mol-Kelvin
 Total                  161.100             55.846            122.861
 Electronic               0.000              0.000              0.000
 Translational            0.889              2.981             41.741
 Rotational               0.889              2.981             31.958
 Vibrational            159.322             49.884             49.162
 Vibration     1          0.595              1.979              4.980
 Vibration     2          0.597              1.973              4.457
 Vibration     3          0.598              1.967              4.103
 Vibration     4          0.600              1.964              3.927
 Vibration     5          0.605              1.944              3.332
 Vibration     6          0.611              1.927              3.007
 Vibration     7          0.619              1.899              2.629
 Vibration     8          0.642              1.828              2.058
 Vibration     9          0.650              1.803              1.918
 Vibration    10          0.651              1.798              1.892
 Vibration    11          0.664              1.759              1.715
 Vibration    12          0.669              1.743              1.652
 Vibration    13          0.677              1.720              1.566
 Vibration    14          0.692              1.675              1.420
 Vibration    15          0.711              1.620              1.270
 Vibration    16          0.719              1.597              1.215
 Vibration    17          0.772              1.454              0.935
 Vibration    18          0.788              1.413              0.871
 Vibration    19          0.803              1.375              0.815
 Vibration    20          0.860              1.239              0.646
 Vibration    21          0.872              1.212              0.617
 Vibration    22          0.914              1.121              0.527
 Vibration    23          0.972              1.005              0.428

                           ! Non-Optimized Parameters !
 Normal termination of Gaussian 16 at Sat May 27 20:09:47 2023.
