 Gaussian 16, Revision A.03,
 Gaussian 16:  ES64L-G16RevA.03 25-Dec-2016

 -----------------------------
 # opt freq b3lyp/6-31g(2df,p)
 -----------------------------

 -------------------
 Title Card Required
 -------------------
 Symbolic Z-matrix:
 Charge =  0 Multiplicity = 1

 SCF Done:  E(RB3LYP) =  -558.384788765     A.U. after   13 cycles
 SCF Done:  E(RB3LYP) =  -558.393348297     A.U. after   13 cycles
 SCF Done:  E(RB3LYP) =  -558.394486274     A.U. after   12 cycles
 SCF Done:  E(RB3LYP) =  -558.391465235     A.U. after   13 cycles
 SCF Done:  E(RB3LYP) =  -558.398205431     A.U. after   13 cycles
 SCF Done:  E(RB3LYP) =  -558.400288565     A.U. after   13 cycles
 SCF Done:  E(RB3LYP) =  -558.401301198     A.U. after   13 cycles
 SCF Done:  E(RB3LYP) =  -558.402132910     A.U. after   12 cycles
 SCF Done:  E(RB3LYP) =  -558.402922425     A.U. after   13 cycles
 SCF Done:  E(RB3LYP) =  -558.403727792     A.U. after   13 cycles
 SCF Done:  E(RB3LYP) =  -558.404950640     A.U. after   11 cycles
 SCF Done:  E(RB3LYP) =  -558.404960773     A.U. after    9 cycles
 SCF Done:  E(RB3LYP) =  -558.404961273     A.U. after    7 cycles
 SCF Done:  E(RB3LYP) =  -558.404962783     A.U. after   10 cycles
 SCF Done:  E(RB3LYP) =  -558.404963708     A.U. after    8 cycles
 SCF Done:  E(RB3LYP) =  -558.404964116     A.U. after    8 cycles
 SCF Done:  E(RB3LYP) =  -558.404964264     A.U. after    7 cycles
 SCF Done:  E(RB3LYP) =  -558.404964449     A.U. after    7 cycles
 SCF Done:  E(RB3LYP) =  -558.404964498     A.U. after    7 cycles
 Optimization completed.
    -- Stationary point found.
 Normal termination of Gaussian 16 at Mon May 29 04:24:37 2023.

 ----------------------------------------------------------------------
 #N Geom=AllCheck Guess=TCheck SCRF=Check GenChk RB3LYP/6-31G(2df,p) Fr
 eq
 ----------------------------------------------------------------------

 Structure from the checkpoint file:  "CCqNrCqCdOrC1COCC1C.chk"
 -------------------
 Title Card Required
 -------------------
 Charge =  0 Multiplicity = 1

                         Standard orientation:
 ---------------------------------------------------------------------
 Center     Atomic      Atomic             Coordinates (Angstroms)
 Number     Number       Type             X           Y           Z
 ---------------------------------------------------------------------
      1          6           0       -3.332208   -0.059880    0.296487
      2          6           0       -1.931534   -0.675285    0.140991
      3          7           0       -1.900837   -1.837805   -0.755946
      4          6           0       -0.905579    0.381761   -0.336687
      5          6           0       -0.875461    1.550170    0.631501
      6          8           0       -0.891054    2.712666    0.313340
      7          6           0        0.517719   -0.201643   -0.551514
      8          6           0        1.497216    0.795088   -1.223650
      9          8           0        2.773536    0.533162   -0.659537
     10          6           0        2.531166    0.254639    0.709832
     11          6           0        1.292610   -0.665150    0.726215
     12          6           0        1.677783   -2.146708    0.646768
     13          1           0       -4.046179   -0.813508    0.644440
     14          1           0       -3.691234    0.329334   -0.663697
     15          1           0       -3.347170    0.767936    1.014547
     16          1           0       -1.604103   -1.038691    1.124940
     17          1           0       -2.276572   -1.576106   -1.665062
     18          1           0       -2.519966   -2.558995   -0.396912
     19          1           0       -1.245030    0.792716   -1.297676
     20          1           0       -0.819474    1.263529    1.708216
     21          1           0        0.381898   -1.070800   -1.196967
     22          1           0        1.197489    1.836580   -1.030193
     23          1           0        1.574120    0.657059   -2.305501
     24          1           0        2.337118    1.187948    1.265484
     25          1           0        3.428803   -0.213137    1.123930
     26          1           0        0.709737   -0.498716    1.637697
     27          1           0        2.344472   -2.316861   -0.205706
     28          1           0        0.793181   -2.775869    0.510321
     29          1           0        2.198640   -2.472349    1.553685
 ---------------------------------------------------------------------

 SCF Done:  E(RB3LYP) =  -558.404964498     A.U. after    1 cycles

 The electronic state is 1-A.
 Alpha  occ. eigenvalues --  -19.14242 -19.13133 -14.32284 -10.27212 -10.22856
 Alpha  occ. eigenvalues --  -10.21955 -10.21806 -10.19949 -10.18998 -10.18915
 Alpha  occ. eigenvalues --  -10.18649 -10.17110  -1.04893  -1.03076  -0.90153
 Alpha  occ. eigenvalues --   -0.81402  -0.77203  -0.74012  -0.70061  -0.66807
 Alpha  occ. eigenvalues --   -0.61462  -0.59707  -0.58691  -0.54873  -0.50908
 Alpha  occ. eigenvalues --   -0.49203  -0.48416  -0.46232  -0.44712  -0.44094
 Alpha  occ. eigenvalues --   -0.43141  -0.42289  -0.42107  -0.40681  -0.40213
 Alpha  occ. eigenvalues --   -0.38294  -0.37933  -0.37448  -0.37045  -0.35367
 Alpha  occ. eigenvalues --   -0.32627  -0.32390  -0.31923  -0.30360  -0.25330
 Alpha  occ. eigenvalues --   -0.24983  -0.24348
 Alpha virt. eigenvalues --   -0.02817   0.06386   0.07694   0.10677   0.11244
 Alpha virt. eigenvalues --    0.11973   0.12344   0.13788   0.14244   0.14461
 Alpha virt. eigenvalues --    0.14906   0.15503   0.15694   0.16805   0.17701

 Mulliken charges:
               1
     1  C   -0.404062
     2  C    0.019461
     3  N   -0.511792
     4  C   -0.100996
     5  C    0.156234
     6  O   -0.260187
     7  C   -0.024880
     8  C   -0.121492
     9  O   -0.245772
    10  C   -0.098724
    11  C    0.002707
    12  C   -0.409107
    13  H    0.110590
    14  H    0.118944
    15  H    0.125503
    16  H    0.089493
    17  H    0.224747
    18  H    0.229189
    19  H    0.087844
    20  H    0.077695
    21  H    0.106763
    22  H    0.110510
    23  H    0.104820
    24  H    0.085782
    25  H    0.104350
    26  H    0.063042
    27  H    0.126785
    28  H    0.126641
    29  H    0.105911
 Sum of Mulliken charges =  -0.00000

 Dipole moment (field-independent basis, Debye):
    X=             -2.6829    Y=             -2.8022    Z=              0.6643  Tot=              3.9359
 Quadrupole moment (field-independent basis, Debye-Ang):
   XX=            -73.6406   YY=            -83.1076   ZZ=            -70.0120
   XY=              3.8959   XZ=              4.0905   YZ=             -0.4885

  Exact polarizability: 114.376  -0.409 109.644   2.490  -1.517  97.456
 Approx polarizability: 146.440  -1.295 162.790   1.653  -3.770 154.020

                      1                      2                      3
                      A                      A                      A
 Frequencies --     31.5792                41.1780                54.4435
 Red. masses --      4.3169                 3.2762                 3.4176
 Frc consts  --      0.0025                 0.0033                 0.0060
 IR Inten    --      2.1940                 0.8317                 2.2313

                      4                      5                      6
                      A                      A                      A
 Frequencies --     80.6488               151.9364               172.2081
 Red. masses --      4.2419                 3.3594                 3.8585
 Frc consts  --      0.0163                 0.0457                 0.0674
 IR Inten    --      3.0307                 1.6232                 0.5767

                      7                      8                      9
                      A                      A                      A
 Frequencies --    216.0291               244.5565               251.3348
 Red. masses --      2.2898                 1.2109                 1.0949
 Frc consts  --      0.0630                 0.0427                 0.0408
 IR Inten    --      1.0651                 3.8297                24.2652

                     10                     11                     12
                      A                      A                      A
 Frequencies --    264.3046               277.7306               297.9420
 Red. masses --      1.2488                 1.8689                 2.7011
 Frc consts  --      0.0514                 0.0849                 0.1413
 IR Inten    --      8.2893                 4.1557                 0.7805

                     13                     14                     15
                      A                      A                      A
 Frequencies --    307.3101               363.5879               398.4314
 Red. masses --      2.4740                 2.7120                 2.0694
 Frc consts  --      0.1377                 0.2112                 0.1936
 IR Inten    --      3.6940                 5.3725                 0.2359

                     16                     17                     18
                      A                      A                      A
 Frequencies --    409.2457               457.9191               527.3010
 Red. masses --      4.4236                 2.4421                 2.8599
 Frc consts  --      0.4365                 0.3017                 0.4685
 IR Inten    --      6.5718                 2.9301                12.5169

                     19                     20                     21
                      A                      A                      A
 Frequencies --    570.1228               663.9205               698.4543
 Red. masses --      3.0237                 3.6858                 4.0460
 Frc consts  --      0.5791                 0.9572                 1.1629
 IR Inten    --      0.7062                 6.3366                 4.6760

                     22                     23                     24
                      A                      A                      A
 Frequencies --    791.6438               854.5338               881.7387
 Red. masses --      2.4172                 2.4808                 2.4641
 Frc consts  --      0.8925                 1.0673                 1.1287
 IR Inten    --      4.4149                28.9169                 0.3650

                     25                     26                     27
                      A                      A                      A
 Frequencies --    893.3035               946.7339               948.6436
 Red. masses --      1.4236                 1.6574                 1.5696
 Frc consts  --      0.6693                 0.8752                 0.8322
 IR Inten    --     86.7302                 3.8631                11.0262

                     28                     29                     30
                      A                      A                      A
 Frequencies --    961.2350               978.8703               992.3816
 Red. masses --      2.7412                 2.2676                 1.7563
 Frc consts  --      1.4923                 1.2802                 1.0191
 IR Inten    --     26.2434                14.5384                 6.7493

                     31                     32                     33
                      A                      A                      A
 Frequencies --   1012.7830              1029.9918              1040.8576
 Red. masses --      2.3709                 1.6109                 1.9060
 Frc consts  --      1.4328                 1.0069                 1.2166
 IR Inten    --     12.1018                12.6440                 3.1681

                     34                     35                     36
                      A                      A                      A
 Frequencies --   1060.8776              1074.6605              1117.0127
 Red. masses --      2.4327                 2.0802                 3.3826
 Frc consts  --      1.6131                 1.4154                 2.4867
 IR Inten    --     11.2453                 1.8017                33.8705

                     37                     38                     39
                      A                      A                      A
 Frequencies --   1137.0221              1146.3025              1163.7467
 Red. masses --      2.9243                 2.4245                 1.7477
 Frc consts  --      2.2274                 1.8770                 1.3946
 IR Inten    --     20.2402                32.7079                 0.7219

                     40                     41                     42
                      A                      A                      A
 Frequencies --   1182.3623              1203.0307              1231.0251
 Red. masses --      1.9926                 1.5763                 1.1684
 Frc consts  --      1.6412                 1.3441                 1.0432
 IR Inten    --     11.8665                11.5587                 5.5296

                     43                     44                     45
                      A                      A                      A
 Frequencies --   1260.6870              1272.9100              1294.4439
 Red. masses --      1.4849                 1.3073                 1.2916
 Frc consts  --      1.3905                 1.2481                 1.2751
 IR Inten    --      4.9404                 4.4946                 2.4393

                     46                     47                     48
                      A                      A                      A
 Frequencies --   1303.7196              1327.0085              1340.9140
 Red. masses --      1.3718                 1.3825                 1.3131
 Frc consts  --      1.3738                 1.4343                 1.3910
 IR Inten    --      1.2069                 4.0530                 1.4576

                     49                     50                     51
                      A                      A                      A
 Frequencies --   1361.8390              1365.7017              1384.9328
 Red. masses --      1.2612                 1.3047                 1.3170
 Frc consts  --      1.3781                 1.4337                 1.4883
 IR Inten    --      3.1074                 2.9704                 2.3790

                     52                     53                     54
                      A                      A                      A
 Frequencies --   1402.2360              1408.5285              1413.1218
 Red. masses --      1.2938                 1.2704                 1.2665
 Frc consts  --      1.4989                 1.4850                 1.4901
 IR Inten    --      2.8467                 6.9715                 5.9075

                     55                     56                     57
                      A                      A                      A
 Frequencies --   1420.5544              1435.6418              1491.5258
 Red. masses --      1.3255                 1.2133                 1.0684
 Frc consts  --      1.5760                 1.4734                 1.4003
 IR Inten    --      3.8218                 1.8824                 0.1628

                     58                     59                     60
                      A                      A                      A
 Frequencies --   1494.5628              1495.1118              1503.3655
 Red. masses --      1.0463                 1.0471                 1.0494
 Frc consts  --      1.3770                 1.3790                 1.3975
 IR Inten    --      6.1407                 3.2584                 2.4121

                     61                     62                     63
                      A                      A                      A
 Frequencies --   1509.8155              1524.6321              1657.1212
 Red. masses --      1.0804                 1.1001                 1.0892
 Frc consts  --      1.4510                 1.5066                 1.7623
 IR Inten    --      0.1904                 2.7000                24.7585

                     64                     65                     66
                      A                      A                      A
 Frequencies --   1822.2480              2848.1238              2956.4488
 Red. masses --     10.3558                 1.0805                 1.0713
 Frc consts  --     20.2604                 5.1641                 5.5171
 IR Inten    --    143.1275                72.5421                59.9831

                     67                     68                     69
                      A                      A                      A
 Frequencies --   2992.1888              3008.2112              3020.4873
 Red. masses --      1.0691                 1.0813                 1.0598
 Frc consts  --      5.6398                 5.7651                 5.6969
 IR Inten    --     35.7995                 0.9158                14.1073

                     70                     71                     72
                      A                      A                      A
 Frequencies --   3023.5245              3028.5942              3049.8895
 Red. masses --      1.0589                 1.0351                 1.0845
 Frc consts  --      5.7036                 5.5937                 5.9435
 IR Inten    --     45.9878                21.8851                27.1927

                     73                     74                     75
                      A                      A                      A
 Frequencies --   3080.8740              3086.1906              3090.8648
 Red. masses --      1.0902                 1.0919                 1.1006
 Frc consts  --      6.0971                 6.1276                 6.1952
 IR Inten    --     15.9650                27.1065                27.0329

                     76                     77                     78
                      A                      A                      A
 Frequencies --   3095.8308              3098.3922              3100.8390
 Red. masses --      1.0957                 1.1017                 1.0954
 Frc consts  --      6.1873                 6.2313                 6.2057
 IR Inten    --      7.5883                32.4006                47.5501

                     79                     80                     81
                      A                      A                      A
 Frequencies --   3108.9129              3473.8174              3554.2931
 Red. masses --      1.1015                 1.0499                 1.0911
 Frc consts  --      6.2725                 7.4645                 8.1211
 IR Inten    --     23.6122                 0.1108                 0.5107

 - Thermochemistry -
 -------------------
 Temperature   298.150 Kelvin.  Pressure   1.00000 Atm.
 Atom     1 has atomic number  6 and mass  12.00000

 Molecular mass:   171.12593 amu.
 Principal axes and moments of inertia in atomic units:
                           1         2         3
     Eigenvalues --  1444.165292588.886113391.44294
           X            0.99994   0.00283   0.01013
           Y           -0.00270   0.99991  -0.01282
           Z           -0.01016   0.01280   0.99987
 This molecule is an asymmetric top.
 Rotational symmetry number  1.
 Warning -- assumption of classical behavior for rotation
           may cause significant error
 Rotational temperatures (Kelvin)      0.05998     0.03346     0.02554
 Rotational constants (GHZ):           1.24968     0.69711     0.53215
 Zero-point vibrational energy     671326.6 (Joules/Mol)
                                  160.45091 (Kcal/Mol)
 Warning -- explicit consideration of  19 degrees of freedom as
           vibrations may cause significant error
 Vibrational temperatures:     45.44    59.25    78.33   116.04   218.60
          (Kelvin)            247.77   310.82   351.86   361.61   380.28
                              399.59   428.67   442.15   523.12   573.25
                              588.81   658.84   758.67   820.28   955.23
                             1004.92  1139.00  1229.48  1268.63  1285.26
                             1362.14  1364.89  1383.00  1408.38  1427.82
                             1457.17  1481.93  1497.56  1526.37  1546.20
                             1607.13  1635.92  1649.27  1674.37  1701.16
                             1730.89  1771.17  1813.85  1831.43  1862.42
                             1875.76  1909.27  1929.28  1959.38  1964.94
                             1992.61  2017.50  2026.56  2033.17  2043.86
                             2065.57  2145.97  2150.34  2151.13  2163.01
                             2172.29  2193.61  2384.23  2621.81  4097.81
                             4253.67  4305.09  4328.14  4345.81  4350.18
                             4357.47  4388.11  4432.69  4440.34  4447.07
                             4454.21  4457.90  4461.42  4473.03  4998.05
                             5113.84

 Zero-point correction=                           0.255695 (Hartree/Particle)
 Thermal correction to Energy=                    0.269120
 Thermal correction to Enthalpy=                  0.270065
 Thermal correction to Gibbs Free Energy=         0.214911
 Sum of electronic and zero-point Energies=           -558.149270
 Sum of electronic and thermal Energies=              -558.135844
 Sum of electronic and thermal Enthalpies=            -558.134900
 Sum of electronic and thermal Free Energies=         -558.190053

                     E (Thermal)             CV                S
                      KCal/Mol        Cal/Mol-Kelvin    Cal/Mol-Kelvin
 Total                  168.876             49.472            116.080
 Electronic               0.000              0.000              0.000
 Translational            0.889              2.981             41.319
 Rotational               0.889              2.981             30.917
 Vibrational            167.098             43.511             43.844
 Vibration     1          0.594              1.983              5.728
 Vibration     2          0.594              1.981              5.202
 Vibration     3          0.596              1.976              4.649
 Vibration     4          0.600              1.962              3.875
 Vibration     5          0.619              1.901              2.648
 Vibration     6          0.626              1.877              2.411
 Vibration     7          0.645              1.817              1.992
 Vibration     8          0.660              1.772              1.769
 Vibration     9          0.663              1.761              1.721
 Vibration    10          0.671              1.738              1.633
 Vibration    11          0.679              1.715              1.548
 Vibration    12          0.691              1.678              1.428
 Vibration    13          0.697              1.660              1.377
 Vibration    14          0.737              1.547              1.107
 Vibration    15          0.765              1.473              0.968
 Vibration    16          0.774              1.450              0.929
 Vibration    17          0.816              1.343              0.772
 Vibration    18          0.882              1.190              0.593
 Vibration    19          0.926              1.096              0.504

 Optimization completed.
    -- Stationary point found.
 Normal termination of Gaussian 16 at Mon May 29 05:46:52 2023.
