 Gaussian 16, Revision A.03,
 Gaussian 16:  ES64L-G16RevA.03 25-Dec-2016

 -----------------------------
 # opt freq b3lyp/6-31g(2df,p)
 -----------------------------

 -------------------
 Title Card Required
 -------------------
 Symbolic Z-matrix:
 Charge =  0 Multiplicity = 2

 SCF Done:  E(UB3LYP) =  -1463.52116895     A.U. after   20 cycles
 SCF Done:  E(UB3LYP) =  -1463.53498247     A.U. after   17 cycles
 SCF Done:  E(UB3LYP) =  -1463.53795590     A.U. after   16 cycles
 SCF Done:  E(UB3LYP) =  -1463.53925329     A.U. after   16 cycles
 SCF Done:  E(UB3LYP) =  -1463.53969977     A.U. after   16 cycles
 SCF Done:  E(UB3LYP) =  -1463.53984718     A.U. after   17 cycles
 SCF Done:  E(UB3LYP) =  -1463.54037563     A.U. after   15 cycles
 SCF Done:  E(UB3LYP) =  -1463.54070111     A.U. after   16 cycles
 SCF Done:  E(UB3LYP) =  -1463.54111521     A.U. after   16 cycles
 SCF Done:  E(UB3LYP) =  -1463.54164504     A.U. after   17 cycles
 SCF Done:  E(UB3LYP) =  -1463.54767235     A.U. after   15 cycles
 SCF Done:  E(UB3LYP) =  -1463.54775992     A.U. after   15 cycles
 SCF Done:  E(UB3LYP) =  -1463.54785187     A.U. after   15 cycles
 SCF Done:  E(UB3LYP) =  -1463.54793994     A.U. after   14 cycles
 SCF Done:  E(UB3LYP) =  -1463.54798276     A.U. after   15 cycles
 SCF Done:  E(UB3LYP) =  -1463.54798619     A.U. after   14 cycles
 SCF Done:  E(UB3LYP) =  -1463.54798736     A.U. after   14 cycles
 SCF Done:  E(UB3LYP) =  -1463.54798841     A.U. after   14 cycles
 SCF Done:  E(UB3LYP) =  -1463.54798847     A.U. after   11 cycles
 Optimization completed.
    -- Stationary point found.
 Normal termination of Gaussian 16 at Mon May 29 02:46:28 2023.

 ----------------------------------------------------------------------
 #N Geom=AllCheck Guess=TCheck SCRF=Check GenChk UB3LYP/6-31G(2df,p) Fr
 eq
 ----------------------------------------------------------------------

 Structure from the checkpoint file:  "CCqOrSCSS[O].chk"
 -------------------
 Title Card Required
 -------------------
 Charge =  0 Multiplicity = 2

                         Standard orientation:
 ---------------------------------------------------------------------
 Center     Atomic      Atomic             Coordinates (Angstroms)
 Number     Number       Type             X           Y           Z
 ---------------------------------------------------------------------
      1          6           0        3.713758   -0.328804   -0.516834
      2          6           0        2.478762    0.088179    0.274853
      3          8           0        2.101422    1.423371    0.052316
      4         16           0        1.114439   -1.107005   -0.105439
      5          6           0       -0.204786   -0.376835    0.899462
      6         16           0       -1.059534    1.096178    0.203199
      7         16           0       -2.800792    0.141212   -0.561453
      8          8           0       -3.075345   -1.102879    0.224926
      9          1           0        4.530470    0.363649   -0.294849
     10          1           0        3.515618   -0.298928   -1.593418
     11          1           0        4.028214   -1.342449   -0.253598
     12          1           0        2.672631    0.023340    1.349565
     13          1           0        1.844334    1.513747   -0.874140
     14          1           0        0.183774   -0.068304    1.870752
     15          1           0       -0.975854   -1.136380    1.051972
 ---------------------------------------------------------------------

 SCF Done:  E(UB3LYP) =  -1463.54798847     A.U. after    1 cycles

 The electronic state is 2-A.
 Alpha  occ. eigenvalues --  -88.98002 -88.90095 -88.88136 -19.17111 -19.16323
 Alpha  occ. eigenvalues --  -10.27768 -10.25467 -10.19642  -8.03306  -7.96548
 Alpha  occ. eigenvalues --   -7.94549  -5.99683  -5.99535  -5.99268  -5.92937
 Alpha  occ. eigenvalues --   -5.92630  -5.92203  -5.91010  -5.90666  -5.90100
 Alpha  occ. eigenvalues --   -1.05421  -1.04786  -0.82703  -0.78356  -0.73710
 Alpha  occ. eigenvalues --   -0.67192  -0.62711  -0.59504  -0.50157  -0.48508
 Alpha  occ. eigenvalues --   -0.48015  -0.44920  -0.44038  -0.43112  -0.41077
 Alpha  occ. eigenvalues --   -0.40277  -0.39120  -0.37753  -0.37159  -0.33172
 Alpha  occ. eigenvalues --   -0.29792  -0.28842  -0.27973  -0.24629  -0.21596
 Alpha virt. eigenvalues --   -0.03584  -0.01449   0.02190   0.04917   0.07552
 Alpha virt. eigenvalues --    0.08162   0.09725   0.12577   0.13665   0.14419
 Alpha virt. eigenvalues --    0.15735   0.16951   0.18527   0.20070   0.20947

  Beta  occ. eigenvalues --  -88.97687 -88.90036 -88.88125 -19.16323 -19.16030
  Beta  occ. eigenvalues --  -10.27768 -10.25456 -10.19642  -8.02998  -7.96490
  Beta  occ. eigenvalues --   -7.94538  -5.99503  -5.99112  -5.98491  -5.92923
  Beta  occ. eigenvalues --   -5.92606  -5.91984  -5.90989  -5.90654  -5.90085
  Beta  occ. eigenvalues --   -1.04786  -1.03376  -0.82498  -0.78127  -0.73126
  Beta  occ. eigenvalues --   -0.66337  -0.62314  -0.58554  -0.50107  -0.48363
  Beta  occ. eigenvalues --   -0.47947  -0.44359  -0.43456  -0.40665  -0.40466
  Beta  occ. eigenvalues --   -0.39217  -0.37948  -0.37387  -0.36560  -0.33118
  Beta  occ. eigenvalues --   -0.29413  -0.27748  -0.26255  -0.24148
  Beta virt. eigenvalues --   -0.11338  -0.02812  -0.00991   0.02351   0.05256
  Beta virt. eigenvalues --    0.07845   0.08208   0.09754   0.12643   0.13716
  Beta virt. eigenvalues --    0.14503   0.15771   0.16984   0.18785   0.20134

 Mulliken charges and spin densities:
               1          2
     1  C   -0.410090   0.000032
     2  C    0.122256  -0.000096
     3  O   -0.399915   0.000171
     4  S   -0.139652   0.016918
     5  C   -0.236883   0.004470
     6  S   -0.106740   0.089999
     7  S    0.231464   0.510413
     8  O   -0.251963   0.380477
     9  H    0.135543   0.000062
    10  H    0.132174  -0.000013
    11  H    0.141034  -0.000003
    12  H    0.122120  -0.000038
    13  H    0.296581   0.000091
    14  H    0.167777  -0.000887
    15  H    0.196295  -0.001598
 Sum of Mulliken charges =   0.00000   1.00000

 Dipole moment (field-independent basis, Debye):
    X=              2.3591    Y=              0.7924    Z=             -0.4596  Tot=              2.5308
 Quadrupole moment (field-independent basis, Debye-Ang):
   XX=            -66.1948   YY=            -73.5478   ZZ=            -65.3698
   XY=             -3.8689   XZ=              1.0340   YZ=             -2.6619

  Exact polarizability: 139.024   4.188  88.165   5.590  -0.603  72.884
 Approx polarizability: 202.744  27.402 171.762  13.368  -1.552 126.441

                      1                      2                      3
                      A                      A                      A
 Frequencies --     32.0614                54.3121                66.7411
 Red. masses --      7.6282                 6.5842                 6.8635
 Frc consts  --      0.0046                 0.0114                 0.0180
 IR Inten    --      0.2270                 2.8307                 0.3625

                      4                      5                      6
                      A                      A                      A
 Frequencies --     75.1796               131.8869               227.1166
 Red. masses --      8.4466                 8.7080                 3.4579
 Frc consts  --      0.0281                 0.0892                 0.1051
 IR Inten    --      2.1204                 0.1632                 1.4118

                      7                      8                      9
                      A                      A                      A
 Frequencies --    228.7615               270.1181               325.7629
 Red. masses --      1.0943                 4.3408                 2.5224
 Frc consts  --      0.0337                 0.1866                 0.1577
 IR Inten    --      0.3504                10.3460                19.8749

                     10                     11                     12
                      A                      A                      A
 Frequencies --    360.1873               366.4137               437.8428
 Red. masses --      4.9232                 2.1236                 3.6513
 Frc consts  --      0.3763                 0.1680                 0.4124
 IR Inten    --     17.3900                65.9481               124.3068

                     13                     14                     15
                      A                      A                      A
 Frequencies --    459.1821               466.4824               634.0052
 Red. masses --      5.1841                 2.7384                 4.2168
 Frc consts  --      0.6440                 0.3511                 0.9987
 IR Inten    --      8.1083                40.1798                32.2329

                     16                     17                     18
                      A                      A                      A
 Frequencies --    637.2841               710.5591               816.3048
 Red. masses --      5.4668                 6.8621                 1.6366
 Frc consts  --      1.3081                 2.0413                 0.6425
 IR Inten    --      5.7362                45.8640                 5.8074

                     19                     20                     21
                      A                      A                      A
 Frequencies --    893.2905              1017.7151              1086.5335
 Red. masses --      2.3769                 1.4239                 1.8050
 Frc consts  --      1.1175                 0.8689                 1.2555
 IR Inten    --     25.6938                27.0479                35.6619

                     22                     23                     24
                      A                      A                      A
 Frequencies --   1091.0504              1122.8682              1167.5110
 Red. masses --     14.3020                 2.8062                 1.0795
 Frc consts  --     10.0308                 2.0846                 0.8670
 IR Inten    --     83.1652                63.4285                17.0098

                     25                     26                     27
                      A                      A                      A
 Frequencies --   1228.5869              1242.7245              1315.3784
 Red. masses --      1.1539                 1.2364                 1.3725
 Frc consts  --      1.0262                 1.1250                 1.3991
 IR Inten    --     64.7963                 4.8048                19.6547

                     28                     29                     30
                      A                      A                      A
 Frequencies --   1403.1963              1420.4021              1425.8928
 Red. masses --      1.2295                 1.0858                 1.1764
 Frc consts  --      1.4264                 1.2906                 1.4092
 IR Inten    --      4.7114                 7.9091                36.6407

                     31                     32                     33
                      A                      A                      A
 Frequencies --   1486.8337              1489.9331              3039.9481
 Red. masses --      1.0479                 1.0466                 1.0351
 Frc consts  --      1.3649                 1.3689                 5.6362
 IR Inten    --      8.3567                 1.1982                10.2569

                     34                     35                     36
                      A                      A                      A
 Frequencies --   3067.1738              3070.5746              3115.5278
 Red. masses --      1.0732                 1.0692                 1.1011
 Frc consts  --      5.9487                 5.9397                 6.2970
 IR Inten    --     16.0143                 2.0176                19.0253

                     37                     38                     39
                      A                      A                      A
 Frequencies --   3126.2572              3137.4645              3779.4414
 Red. masses --      1.1025                 1.1080                 1.0655
 Frc consts  --      6.3489                 6.4261                 8.9676
 IR Inten    --     10.6799                 5.2531                22.4744

 - Thermochemistry -
 -------------------
 Temperature   298.150 Kelvin.  Pressure   1.00000 Atm.
 Atom     1 has atomic number  6 and mass  12.00000

 Molecular mass:   170.96082 amu.
 Principal axes and moments of inertia in atomic units:
                           1         2         3
     Eigenvalues --   625.532963157.141483523.47213
           X            0.99997  -0.00156  -0.00793
           Y            0.00141   0.99983  -0.01836
           Z            0.00795   0.01835   0.99980
 This molecule is an asymmetric top.
 Rotational symmetry number  1.
 Warning -- assumption of classical behavior for rotation
           may cause significant error
 Rotational temperatures (Kelvin)      0.13846     0.02743     0.02458
 Rotational constants (GHZ):           2.88513     0.57164     0.51221
 Zero-point vibrational energy     275311.6 (Joules/Mol)
                                   65.80105 (Kcal/Mol)
 Warning -- explicit consideration of  14 degrees of freedom as
           vibrations may cause significant error
 Vibrational temperatures:     46.13    78.14    96.03   108.17   189.76
          (Kelvin)            326.77   329.14   388.64   468.70   518.23
                              527.19   629.96   660.66   671.16   912.19
                              916.91  1022.34  1174.48  1285.25  1464.26
                             1563.28  1569.78  1615.56  1679.79  1767.66
                             1788.00  1892.54  2018.89  2043.64  2051.54
                             2139.22  2143.68  4373.81  4412.98  4417.87
                             4482.55  4497.99  4514.11  5437.77

 Zero-point correction=                           0.104861 (Hartree/Particle)
 Thermal correction to Energy=                    0.115729
 Thermal correction to Enthalpy=                  0.116673
 Thermal correction to Gibbs Free Energy=         0.065508
 Sum of electronic and zero-point Energies=          -1463.443128
 Sum of electronic and thermal Energies=             -1463.432259
 Sum of electronic and thermal Enthalpies=           -1463.431315
 Sum of electronic and thermal Free Energies=        -1463.482481

                     E (Thermal)             CV                S
                      KCal/Mol        Cal/Mol-Kelvin    Cal/Mol-Kelvin
 Total                   72.621             36.121            107.687
 Electronic               0.000              0.000              1.377
 Translational            0.889              2.981             41.317
 Rotational               0.889              2.981             30.321
 Vibrational             70.844             30.160             34.672
 Vibration     1          0.594              1.983              5.698
 Vibration     2          0.596              1.976              4.654
 Vibration     3          0.598              1.970              4.247
 Vibration     4          0.599              1.966              4.013
 Vibration     5          0.612              1.921              2.918
 Vibration     6          0.651              1.800              1.902
 Vibration     7          0.651              1.797              1.889
 Vibration     8          0.674              1.728              1.595
 Vibration     9          0.710              1.624              1.281
 Vibration    10          0.735              1.554              1.121
 Vibration    11          0.739              1.541              1.095
 Vibration    12          0.798              1.388              0.833
 Vibration    13          0.817              1.341              0.768
 Vibration    14          0.824              1.324              0.747

 Optimization completed.
    -- Stationary point found.
 Normal termination of Gaussian 16 at Mon May 29 03:16:23 2023.
