 Gaussian 16, Revision A.03,
 Gaussian 16:  ES64L-G16RevA.03 25-Dec-2016

 -----------------------------
 # opt freq b3lyp/6-31g(2df,p)
 -----------------------------

 -------------------
 Title Card Required
 -------------------
 Symbolic Z-matrix:
 Charge =  0 Multiplicity = 1

 SCF Done:  E(RB3LYP) =  -661.519837600     A.U. after   12 cycles
 SCF Done:  E(RB3LYP) =  -661.528281822     A.U. after   11 cycles
 SCF Done:  E(RB3LYP) =  -661.532759673     A.U. after   10 cycles
 SCF Done:  E(RB3LYP) =  -661.534370884     A.U. after   10 cycles
 SCF Done:  E(RB3LYP) =  -661.534934164     A.U. after   10 cycles
 SCF Done:  E(RB3LYP) =  -661.535238839     A.U. after    9 cycles
 SCF Done:  E(RB3LYP) =  -661.535555025     A.U. after   10 cycles
 SCF Done:  E(RB3LYP) =  -661.536208683     A.U. after   10 cycles
 SCF Done:  E(RB3LYP) =  -661.492462904     A.U. after   11 cycles
 SCF Done:  E(RB3LYP) =  -661.538488055     A.U. after   11 cycles
 SCF Done:  E(RB3LYP) =  -661.542741406     A.U. after   11 cycles
 SCF Done:  E(RB3LYP) =  -661.537729760     A.U. after   11 cycles
 SCF Done:  E(RB3LYP) =  -661.542859611     A.U. after   10 cycles
 SCF Done:  E(RB3LYP) =  -661.543236340     A.U. after    9 cycles
 SCF Done:  E(RB3LYP) =  -661.543285908     A.U. after    9 cycles
 SCF Done:  E(RB3LYP) =  -661.543296051     A.U. after    8 cycles
 SCF Done:  E(RB3LYP) =  -661.543297617     A.U. after    7 cycles
 SCF Done:  E(RB3LYP) =  -661.543298433     A.U. after    7 cycles
 SCF Done:  E(RB3LYP) =  -661.543298686     A.U. after    7 cycles
 Optimization completed.
    -- Stationary point found.
 Normal termination of Gaussian 16 at Mon May 22 05:08:35 2023.

 ----------------------------------------------------------------------
 #N Geom=AllCheck Guess=TCheck SCRF=Check GenChk RB3LYP/6-31G(2df,p) Fr
 eq
 ----------------------------------------------------------------------

 Structure from the checkpoint file:  "CCqOrCC1CCCCC1CCCCO.chk"
 -------------------
 Title Card Required
 -------------------
 Charge =  0 Multiplicity = 1

                         Standard orientation:
 ---------------------------------------------------------------------
 Center     Atomic      Atomic             Coordinates (Angstroms)
 Number     Number       Type             X           Y           Z
 ---------------------------------------------------------------------
      1          6           0        0.287457    3.725442   -0.163990
      2          6           0        0.995831    2.415224    0.187325
      3          8           0        0.496030    1.880693    1.414591
      4          6           0        0.946259    1.413285   -0.979640
      5          6           0        1.605191    0.030906   -0.761894
      6          6           0        3.036794    0.177196   -0.208412
      7          6           0        3.778783   -1.161530   -0.142853
      8          6           0        2.987976   -2.171410    0.694678
      9          6           0        1.559681   -2.324651    0.162494
     10          6           0        0.786653   -0.990231    0.076659
     11          6           0       -0.635649   -1.258274   -0.482080
     12          6           0       -1.787553   -0.508408    0.203605
     13          6           0       -3.169378   -0.940078   -0.300846
     14          6           0       -4.317512   -0.184219    0.368701
     15          8           0       -5.597586   -0.628586   -0.051426
     16          1           0        0.337189    4.420385    0.678700
     17          1           0       -0.769936    3.546945   -0.398163
     18          1           0        0.743215    4.203535   -1.037161
     19          1           0        2.044284    2.641660    0.410310
     20          1           0       -0.446522    1.715464    1.305456
     21          1           0        1.451923    1.896027   -1.827285
     22          1           0       -0.095776    1.285780   -1.299664
     23          1           0        1.694295   -0.414022   -1.766487
     24          1           0        2.990790    0.604325    0.801354
     25          1           0        3.597288    0.891020   -0.825907
     26          1           0        4.782579   -1.018189    0.273331
     27          1           0        3.914954   -1.556915   -1.159306
     28          1           0        2.952094   -1.826267    1.737263
     29          1           0        3.492820   -3.144352    0.705387
     30          1           0        0.997259   -3.023936    0.793314
     31          1           0        1.594088   -2.777375   -0.840095
     32          1           0        0.695312   -0.589308    1.092972
     33          1           0       -0.849090   -2.330896   -0.389008
     34          1           0       -0.657919   -1.052309   -1.561196
     35          1           0       -1.682286    0.574175    0.053698
     36          1           0       -1.729439   -0.676454    1.287854
     37          1           0       -3.313452   -2.014282   -0.132343
     38          1           0       -3.225982   -0.785884   -1.388793
     39          1           0       -4.198014    0.900343    0.205698
     40          1           0       -4.291731   -0.347380    1.452171
     41          1           0       -5.662687   -0.478458   -0.999899
 ---------------------------------------------------------------------

 SCF Done:  E(RB3LYP) =  -661.543298686     A.U. after    1 cycles

 The electronic state is 1-A.
 Alpha  occ. eigenvalues --  -19.13197 -19.13189 -10.22848 -10.22515 -10.18604
 Alpha  occ. eigenvalues --  -10.18136 -10.17958 -10.17647 -10.17596 -10.17522
 Alpha  occ. eigenvalues --  -10.17426 -10.17091 -10.17022 -10.16998 -10.16936
 Alpha  occ. eigenvalues --   -1.01301  -1.01262  -0.83343  -0.79652  -0.77618
 Alpha  occ. eigenvalues --   -0.75012  -0.73497  -0.69971  -0.67120  -0.62886
 Alpha  occ. eigenvalues --   -0.61302  -0.59306  -0.57972  -0.57027  -0.54247
 Alpha  occ. eigenvalues --   -0.50336  -0.47843  -0.47220  -0.46232  -0.45007
 Alpha  occ. eigenvalues --   -0.44451  -0.44069  -0.42987  -0.42178  -0.41298
 Alpha  occ. eigenvalues --   -0.41066  -0.40116  -0.38223  -0.37812  -0.37474
 Alpha  occ. eigenvalues --   -0.36187  -0.35434  -0.35012  -0.34936  -0.33897
 Alpha  occ. eigenvalues --   -0.33366  -0.32492  -0.32205  -0.31809  -0.31311
 Alpha  occ. eigenvalues --   -0.30708  -0.28544  -0.28384  -0.26199  -0.25803
 Alpha virt. eigenvalues --    0.05880   0.07494   0.08833   0.09168   0.09981
 Alpha virt. eigenvalues --    0.11406   0.11987   0.12567   0.12810   0.13834
 Alpha virt. eigenvalues --    0.14974   0.15399   0.15942   0.16087   0.16602

 Mulliken charges:
               1
     1  C   -0.404262
     2  C    0.145069
     3  O   -0.425959
     4  C   -0.256944
     5  C    0.032578
     6  C   -0.202989
     7  C   -0.206684
     8  C   -0.200648
     9  C   -0.200517
    10  C    0.021647
    11  C   -0.213179
    12  C   -0.192966
    13  C   -0.200087
    14  C   -0.057773
    15  O   -0.417299
    16  H    0.122296
    17  H    0.104580
    18  H    0.115293
    19  H    0.091714
    20  H    0.279237
    21  H    0.092626
    22  H    0.088532
    23  H    0.060107
    24  H    0.111484
    25  H    0.080317
    26  H    0.086197
    27  H    0.087597
    28  H    0.094439
    29  H    0.085738
    30  H    0.085428
    31  H    0.086230
    32  H    0.084610
    33  H    0.090411
    34  H    0.090479
    35  H    0.077991
    36  H    0.101257
    37  H    0.108710
    38  H    0.084361
    39  H    0.079955
    40  H    0.111081
    41  H    0.279342
 Sum of Mulliken charges =  -0.00000

 Dipole moment (field-independent basis, Debye):
    X=              0.4772    Y=              0.6311    Z=             -1.9802  Tot=              2.1324
 Quadrupole moment (field-independent basis, Debye-Ang):
   XX=           -106.2462   YY=            -95.7912   ZZ=            -95.8572
   XY=             -3.3229   XZ=              4.1676   YZ=             -2.2348

  Exact polarizability: 168.892  -3.202 151.392   0.781  -2.336 124.914
 Approx polarizability: 208.880   3.220 203.107   0.690  -1.214 205.637

                      1                      2                      3
                      A                      A                      A
 Frequencies --     35.1244                40.7893                52.3598
 Red. masses --      3.7788                 2.1215                 3.4947
 Frc consts  --      0.0027                 0.0021                 0.0056
 IR Inten    --      0.6942                 2.1888                 0.2176

                      4                      5                      6
                      A                      A                      A
 Frequencies --     73.0520                95.0463               101.1264
 Red. masses --      3.1423                 2.7674                 3.1443
 Frc consts  --      0.0099                 0.0147                 0.0189
 IR Inten    --      1.4394                 1.9664                 0.1506

                      7                      8                      9
                      A                      A                      A
 Frequencies --    121.6157               142.1587               158.2673
 Red. masses --      3.0581                 2.3373                 2.8534
 Frc consts  --      0.0266                 0.0278                 0.0421
 IR Inten    --      1.2093                 1.1688                 0.7159

                     10                     11                     12
                      A                      A                      A
 Frequencies --    194.0093               217.2747               240.0029
 Red. masses --      3.2603                 2.9242                 1.1211
 Frc consts  --      0.0723                 0.0813                 0.0380
 IR Inten    --      0.3215                 1.0386                 1.2684

                     13                     14                     15
                      A                      A                      A
 Frequencies --    252.0053               284.5126               299.8762
 Red. masses --      2.6762                 2.2238                 1.1559
 Frc consts  --      0.1001                 0.1061                 0.0612
 IR Inten    --      0.2187                13.4474                33.6267

                     16                     17                     18
                      A                      A                      A
 Frequencies --    308.0158               314.4332               328.2982
 Red. masses --      1.6554                 1.5528                 1.9252
 Frc consts  --      0.0925                 0.0905                 0.1223
 IR Inten    --     76.3599               114.5013                 2.0967

                     19                     20                     21
                      A                      A                      A
 Frequencies --    366.7519               399.8786               424.7241
 Red. masses --      2.2285                 2.7619                 3.4792
 Frc consts  --      0.1766                 0.2602                 0.3698
 IR Inten    --      9.6463                14.7854                 7.2670

                     22                     23                     24
                      A                      A                      A
 Frequencies --    444.4735               462.7859               469.1229
 Red. masses --      2.9431                 2.0398                 2.5772
 Frc consts  --      0.3426                 0.2574                 0.3342
 IR Inten    --      1.6263                 2.9860                 6.0559

                     25                     26                     27
                      A                      A                      A
 Frequencies --    508.2269               562.0674               643.3179
 Red. masses --      3.1102                 2.0882                 2.9208
 Frc consts  --      0.4733                 0.3887                 0.7122
 IR Inten    --      3.1322                 4.3151                 3.1236

                     28                     29                     30
                      A                      A                      A
 Frequencies --    728.0560               752.4780               785.0073
 Red. masses --      1.3312                 1.5367                 1.3097
 Frc consts  --      0.4157                 0.5127                 0.4755
 IR Inten    --      3.8039                 1.0840                 0.5067

                     31                     32                     33
                      A                      A                      A
 Frequencies --    812.4943               845.3207               860.9471
 Red. masses --      1.9320                 1.9183                 2.1555
 Frc consts  --      0.7514                 0.8076                 0.9413
 IR Inten    --      2.6140                 0.5339                 2.3762

                     34                     35                     36
                      A                      A                      A
 Frequencies --    876.4921               904.9910               913.4701
 Red. masses --      1.6455                 1.5540                 1.7085
 Frc consts  --      0.7448                 0.7499                 0.8400
 IR Inten    --      2.9467                 2.8295                 2.3839

                     37                     38                     39
                      A                      A                      A
 Frequencies --    926.2021               945.7995               956.0576
 Red. masses --      1.6824                 2.1415                 1.8389
 Frc consts  --      0.8504                 1.1287                 0.9903
 IR Inten    --      1.6378                 6.9537                 3.3162

                     40                     41                     42
                      A                      A                      A
 Frequencies --    992.8850              1019.6741              1040.3489
 Red. masses --      2.9995                 1.9942                 2.7430
 Frc consts  --      1.7422                 1.2217                 1.7492
 IR Inten    --     14.0104                 9.2136                 5.7747

                     43                     44                     45
                      A                      A                      A
 Frequencies --   1042.5234              1052.2528              1063.7687
 Red. masses --      1.9684                 2.3400                 2.0723
 Frc consts  --      1.2605                 1.5265                 1.3817
 IR Inten    --      2.6707                22.6286                 6.0027

                     46                     47                     48
                      A                      A                      A
 Frequencies --   1070.8911              1078.2294              1081.4029
 Red. masses --      1.8775                 1.5262                 3.5993
 Frc consts  --      1.2686                 1.0454                 2.4799
 IR Inten    --     18.7440                21.6756               102.7666

                     49                     50                     51
                      A                      A                      A
 Frequencies --   1088.9269              1096.7540              1111.8969
 Red. masses --      1.7734                 2.3232                 1.7938
 Frc consts  --      1.2390                 1.6465                 1.3067
 IR Inten    --      3.7391                 6.1403                 5.0512

                     52                     53                     54
                      A                      A                      A
 Frequencies --   1133.1795              1147.6401              1153.5488
 Red. masses --      1.4592                 1.8439                 1.9513
 Frc consts  --      1.1040                 1.4309                 1.5298
 IR Inten    --      6.9770                 5.1822                21.2194

                     55                     56                     57
                      A                      A                      A
 Frequencies --   1180.2032              1209.8500              1243.9900
 Red. masses --      1.7672                 1.4855                 1.2932
 Frc consts  --      1.4503                 1.2811                 1.1791
 IR Inten    --      3.4164                 1.7022                 2.8313

                     58                     59                     60
                      A                      A                      A
 Frequencies --   1254.1544              1264.9205              1269.9552
 Red. masses --      1.4020                 1.3577                 1.3736
 Frc consts  --      1.2992                 1.2799                 1.3052
 IR Inten    --      0.8654                 8.9878                 5.8012

                     61                     62                     63
                      A                      A                      A
 Frequencies --   1291.7878              1313.8857              1317.6578
 Red. masses --      1.3079                 1.2987                 1.2378
 Frc consts  --      1.2859                 1.3209                 1.2662
 IR Inten    --      2.1978                 1.2480                 1.4375

                     64                     65                     66
                      A                      A                      A
 Frequencies --   1321.2084              1325.2465              1335.0013
 Red. masses --      1.1165                 1.2682                 1.2104
 Frc consts  --      1.1483                 1.3123                 1.2710
 IR Inten    --      0.4326                 2.1426                 1.3262

                     67                     68                     69
                      A                      A                      A
 Frequencies --   1336.2713              1348.4359              1360.2426
 Red. masses --      1.3274                 1.2258                 1.2984
 Frc consts  --      1.3965                 1.3132                 1.4154
 IR Inten    --      3.9251                 2.6304                 0.3369

                     70                     71                     72
                      A                      A                      A
 Frequencies --   1370.7742              1375.7409              1383.0260
 Red. masses --      1.4112                 1.3718                 1.4459
 Frc consts  --      1.5623                 1.5298                 1.6294
 IR Inten    --      1.1810                 0.6818                 2.9082

                     73                     74                     75
                      A                      A                      A
 Frequencies --   1388.0133              1395.3729              1396.5180
 Red. masses --      1.4622                 1.4828                 1.3827
 Frc consts  --      1.6597                 1.7010                 1.5888
 IR Inten    --      1.5766                 0.4841                 7.6278

                     76                     77                     78
                      A                      A                      A
 Frequencies --   1399.6555              1401.8466              1409.0479
 Red. masses --      1.3683                 1.3022                 1.3451
 Frc consts  --      1.5794                 1.5077                 1.5734
 IR Inten    --      4.2500                 3.2120                 1.6710

                     79                     80                     81
                      A                      A                      A
 Frequencies --   1424.5282              1427.7597              1474.9333
 Red. masses --      1.2900                 1.1797                 1.0841
 Frc consts  --      1.5424                 1.4168                 1.3896
 IR Inten    --     54.9498                30.0511                 2.9237

                     82                     83                     84
                      A                      A                      A
 Frequencies --   1482.2863              1485.7304              1486.5541
 Red. masses --      1.0875                 1.0908                 1.0791
 Frc consts  --      1.4078                 1.4186                 1.4049
 IR Inten    --      0.2187                 2.2028                 0.7740

                     85                     86                     87
                      A                      A                      A
 Frequencies --   1488.3193              1491.7098              1494.1762
 Red. masses --      1.0722                 1.0828                 1.0637
 Frc consts  --      1.3993                 1.4196                 1.3991
 IR Inten    --      0.1812                 5.7853                 6.6835

                     88                     89                     90
                      A                      A                      A
 Frequencies --   1496.0262              1503.5432              1503.9477
 Red. masses --      1.0619                 1.0961                 1.0942
 Frc consts  --      1.4003                 1.4599                 1.4581
 IR Inten    --      1.2740                 0.4192                 1.0477

                     91                     92                     93
                      A                      A                      A
 Frequencies --   1518.0684              2959.9445              2962.2184
 Red. masses --      1.0962                 1.0712                 1.0807
 Frc consts  --      1.4884                 5.5297                 5.5874
 IR Inten    --      0.5431                51.8550                17.3603

                     94                     95                     96
                      A                      A                      A
 Frequencies --   2993.0892              2997.9894              3003.6816
 Red. masses --      1.0652                 1.0650                 1.0586
 Frc consts  --      5.6221                 5.6396                 5.6270
 IR Inten    --     19.7412                 8.3336                 2.3852

                     97                     98                     99
                      A                      A                      A
 Frequencies --   3006.8451              3011.5971              3012.0914
 Red. masses --      1.0668                 1.0621                 1.0619
 Frc consts  --      5.6829                 5.6758                 5.6765
 IR Inten    --     25.0357                12.3707                70.8117

                    100                    101                    102
                      A                      A                      A
 Frequencies --   3013.2118              3015.3872              3022.6450
 Red. masses --      1.0613                 1.0603                 1.0437
 Frc consts  --      5.6776                 5.6800                 5.6184
 IR Inten    --     30.5138                31.6274                29.0029

                    103                    104                    105
                      A                      A                      A
 Frequencies --   3028.5011              3038.1896              3039.3159
 Red. masses --      1.0964                 1.0853                 1.0922
 Frc consts  --      5.9250                 5.9027                 5.9446
 IR Inten    --      3.8669                35.6522                 1.6781

                    106                    107                    108
                      A                      A                      A
 Frequencies --   3044.8260              3052.6002              3052.9579
 Red. masses --      1.0949                 1.0931                 1.0959
 Frc consts  --      5.9805                 6.0015                 6.0183
 IR Inten    --      2.5210                24.1646                51.2132

                    109                    110                    111
                      A                      A                      A
 Frequencies --   3056.4782              3057.5418              3059.5565
 Red. masses --      1.0926                 1.0962                 1.0928
 Frc consts  --      6.0137                 6.0379                 6.0270
 IR Inten    --     50.2526                40.5347                35.4233

                    112                    113                    114
                      A                      A                      A
 Frequencies --   3066.0142              3073.9108              3093.0204
 Red. masses --      1.1013                 1.1005                 1.0968
 Frc consts  --      6.0999                 6.1268                 6.1823
 IR Inten    --     80.8114                99.6723                51.5641

                    115                    116                    117
                      A                      A                      A
 Frequencies --   3116.5710              3809.3232              3814.5289
 Red. masses --      1.1017                 1.0657                 1.0661
 Frc consts  --      6.3045                 9.1112                 9.1395
 IR Inten    --     22.2975                24.2134                14.8795

 - Thermochemistry -
 -------------------
 Temperature   298.150 Kelvin.  Pressure   1.00000 Atm.
 Atom     1 has atomic number  6 and mass  12.00000

 Molecular mass:   214.19328 amu.
 Principal axes and moments of inertia in atomic units:
                           1         2         3
     Eigenvalues --  2552.257395930.418167809.77544
           X            0.99995  -0.00963   0.00072
           Y            0.00964   0.99990  -0.01028
           Z           -0.00062   0.01029   0.99995
 This molecule is an asymmetric top.
 Rotational symmetry number  1.
 Warning -- assumption of classical behavior for rotation
           may cause significant error
 Rotational temperatures (Kelvin)      0.03394     0.01461     0.01109
 Rotational constants (GHZ):           0.70712     0.30432     0.23109
 Zero-point vibrational energy     990466.0 (Joules/Mol)
                                  236.72705 (Kcal/Mol)
 Warning -- explicit consideration of  26 degrees of freedom as
           vibrations may cause significant error
 Vibrational temperatures:     50.54    58.69    75.33   105.11   136.75
          (Kelvin)            145.50   174.98   204.53   227.71   279.14
                              312.61   345.31   362.58   409.35   431.46
                              443.17   452.40   472.35   527.67   575.34
                              611.08   639.50   665.85   674.96   731.23
                              808.69   925.59  1047.51  1082.65  1129.45
                             1169.00  1216.23  1238.71  1261.08  1302.08
                             1314.28  1332.60  1360.79  1375.55  1428.54
                             1467.08  1496.83  1499.96  1513.96  1530.53
                             1540.77  1551.33  1555.90  1566.72  1577.98
                             1599.77  1630.39  1651.20  1659.70  1698.05
                             1740.70  1789.82  1804.45  1819.94  1827.18
                             1858.59  1890.39  1895.82  1900.92  1906.73
                             1920.77  1922.60  1940.10  1957.09  1972.24
                             1979.38  1989.87  1997.04  2007.63  2009.28
                             2013.79  2016.94  2027.31  2049.58  2054.23
                             2122.10  2132.68  2137.63  2138.82  2141.36
                             2146.24  2149.79  2152.45  2163.26  2163.85
                             2184.16  4258.70  4261.97  4306.39  4313.44
                             4321.63  4326.18  4333.02  4333.73  4335.34
                             4338.47  4348.91  4357.34  4371.28  4372.90
                             4380.83  4392.01  4392.53  4397.59  4399.12
                             4402.02  4411.31  4422.67  4450.17  4484.05
                             5480.77  5488.26

 Zero-point correction=                           0.377249 (Hartree/Particle)
 Thermal correction to Energy=                    0.394782
 Thermal correction to Enthalpy=                  0.395726
 Thermal correction to Gibbs Free Energy=         0.331442
 Sum of electronic and zero-point Energies=           -661.166050
 Sum of electronic and thermal Energies=              -661.148517
 Sum of electronic and thermal Enthalpies=            -661.147572
 Sum of electronic and thermal Free Energies=         -661.211857

                     E (Thermal)             CV                S
                      KCal/Mol        Cal/Mol-Kelvin    Cal/Mol-Kelvin
 Total                  247.729             66.394            135.299
 Electronic               0.000              0.000              0.000
 Translational            0.889              2.981             41.989
 Rotational               0.889              2.981             33.135
 Vibrational            245.952             60.432             60.175
 Vibration     1          0.594              1.982              5.517
 Vibration     2          0.594              1.981              5.220
 Vibration     3          0.596              1.977              4.726
 Vibration     4          0.599              1.967              4.069
 Vibration     5          0.603              1.953              3.553
 Vibration     6          0.604              1.948              3.432
 Vibration     7          0.609              1.931              3.075
 Vibration     8          0.616              1.911              2.775
 Vibration     9          0.621              1.893              2.570
 Vibration    10          0.635              1.848              2.189
 Vibration    11          0.646              1.815              1.982
 Vibration    12          0.657              1.779              1.803
 Vibration    13          0.664              1.759              1.717
 Vibration    14          0.683              1.702              1.506
 Vibration    15          0.692              1.674              1.418
 Vibration    16          0.698              1.658              1.373
 Vibration    17          0.702              1.646              1.339
 Vibration    18          0.712              1.619              1.268
 Vibration    19          0.740              1.541              1.093
 Vibration    20          0.766              1.470              0.963
 Vibration    21          0.787              1.416              0.876
 Vibration    22          0.804              1.373              0.813
 Vibration    23          0.820              1.333              0.758
 Vibration    24          0.826              1.319              0.740
 Vibration    25          0.863              1.232              0.638
 Vibration    26          0.918              1.113              0.520

                           ! Non-Optimized Parameters !
 Normal termination of Gaussian 16 at Mon May 22 08:54:02 2023.
