 Gaussian 16, Revision A.03,
 Gaussian 16:  ES64L-G16RevA.03 25-Dec-2016

 -----------------------------
 # opt freq b3lyp/6-31g(2df,p)
 -----------------------------

 -------------------
 Title Card Required
 -------------------
 Symbolic Z-matrix:
 Charge =  0 Multiplicity = 1

 SCF Done:  E(RB3LYP) =  -1373.08753894     A.U. after   14 cycles
 SCF Done:  E(RB3LYP) =  -1373.10790758     A.U. after   13 cycles
 SCF Done:  E(RB3LYP) =  -1373.11286377     A.U. after   13 cycles
 SCF Done:  E(RB3LYP) =  -1373.11537277     A.U. after   13 cycles
 SCF Done:  E(RB3LYP) =  -1373.12043258     A.U. after   15 cycles
 SCF Done:  E(RB3LYP) =  -1373.12377493     A.U. after   13 cycles
 SCF Done:  E(RB3LYP) =  -1373.12734907     A.U. after   14 cycles
 SCF Done:  E(RB3LYP) =  -1373.13063897     A.U. after   14 cycles
 SCF Done:  E(RB3LYP) =  -1373.13233225     A.U. after   15 cycles
 SCF Done:  E(RB3LYP) =  -1373.13385857     A.U. after   12 cycles
 SCF Done:  E(RB3LYP) =  -1373.14593735     A.U. after   11 cycles
 SCF Done:  E(RB3LYP) =  -1373.14598707     A.U. after   11 cycles
 SCF Done:  E(RB3LYP) =  -1373.14605651     A.U. after   11 cycles
 SCF Done:  E(RB3LYP) =  -1373.14609269     A.U. after   10 cycles
 SCF Done:  E(RB3LYP) =  -1373.14610933     A.U. after   10 cycles
 SCF Done:  E(RB3LYP) =  -1373.14611787     A.U. after    9 cycles
 SCF Done:  E(RB3LYP) =  -1373.14611835     A.U. after    8 cycles
 SCF Done:  E(RB3LYP) =  -1373.14611849     A.U. after    7 cycles
 SCF Done:  E(RB3LYP) =  -1373.14611853     A.U. after    6 cycles
 Optimization completed.
    -- Stationary point found.
 Normal termination of Gaussian 16 at Sun May 28 07:04:28 2023.

 ----------------------------------------------------------------------
 #N Geom=AllCheck Guess=TCheck SCRF=Check GenChk RB3LYP/6-31G(2df,p) Fr
 eq
 ----------------------------------------------------------------------

 Structure from the checkpoint file:  "CCqOrCqdCdOrC1CCCCqNNPCqOrOOOrCC1.chk"
 -------------------
 Title Card Required
 -------------------
 Charge =  0 Multiplicity = 1

                         Standard orientation:
 ---------------------------------------------------------------------
 Center     Atomic      Atomic             Coordinates (Angstroms)
 Number     Number       Type             X           Y           Z
 ---------------------------------------------------------------------
      1          6           0       -5.929920   -2.255019   -0.143031
      2          6           0       -5.076704   -1.150169   -0.768691
      3          8           0       -5.850177    0.039475   -0.960644
      4          6           0       -3.769663   -0.875280   -0.031888
      5          6           0       -3.639050   -1.314563    1.199433
      6          8           0       -3.532457   -1.724192    2.288290
      7          6           0       -2.642567   -0.099977   -0.723501
      8          6           0       -2.915737    1.426474   -0.771796
      9          6           0       -2.460579    2.232087    0.456588
     10          6           0       -1.000481    2.706225    0.382400
     11          6           0        0.076200    1.617438    0.479932
     12          7           0        1.375235    2.277919    0.267520
     13          7           0        2.472584    1.533433    0.738567
     14         15           0        3.819316    1.298096   -0.253479
     15          6           0        4.033720   -0.595546   -0.173068
     16          8           0        3.041848   -1.272716   -0.882329
     17          8           0        5.327743   -0.786455   -0.702360
     18          8           0        5.782099   -2.132731   -0.411689
     19          8           0        6.286823   -2.125901    0.908942
     20          6           0       -0.090942    0.447343   -0.502404
     21          6           0       -1.260985   -0.485058   -0.146717
     22          1           0       -6.851887   -2.369768   -0.717913
     23          1           0       -6.205856   -2.009248    0.889564
     24          1           0       -5.398650   -3.211235   -0.133376
     25          1           0       -4.810008   -1.446009   -1.791098
     26          1           0       -6.087884    0.367801   -0.085444
     27          1           0       -2.666023   -0.443158   -1.767358
     28          1           0       -3.986546    1.559991   -0.938061
     29          1           0       -2.420432    1.841384   -1.658672
     30          1           0       -2.632422    1.660754    1.378693
     31          1           0       -3.089313    3.125623    0.542059
     32          1           0       -0.823010    3.435184    1.185574
     33          1           0       -0.853439    3.247235   -0.562177
     34          1           0        0.035264    1.191274    1.502350
     35          1           0        1.366784    3.183576    0.731330
     36          1           0        2.449078    1.261916    1.716329
     37          1           0        4.866876    1.548265    0.681609
     38          1           0        3.991413   -0.975217    0.851928
     39          1           0        3.034258   -0.929590   -1.785300
     40          1           0        7.173024   -1.749412    0.782714
     41          1           0        0.835234   -0.132880   -0.476050
     42          1           0       -0.184878    0.836536   -1.523703
     43          1           0       -1.318824   -0.543641    0.948865
     44          1           0       -1.034018   -1.503848   -0.477506
 ---------------------------------------------------------------------

 SCF Done:  E(RB3LYP) =  -1373.14611853     A.U. after    1 cycles

 The electronic state is 1-A.
 Alpha  occ. eigenvalues --  -77.09598 -19.25273 -19.20985 -19.20575 -19.19860
 Alpha  occ. eigenvalues --  -19.15569 -19.14107 -14.35123 -14.34995 -10.29013
 Alpha  occ. eigenvalues --  -10.27955 -10.25080 -10.21201 -10.20127 -10.18866
 Alpha  occ. eigenvalues --  -10.18359 -10.18318 -10.18242 -10.18086 -10.17339
 Alpha  occ. eigenvalues --  -10.17133  -6.56441  -4.72747  -4.72631  -4.72239
 Alpha  occ. eigenvalues --   -1.17669  -1.10383  -1.06098  -1.02221  -1.01084
 Alpha  occ. eigenvalues --   -0.97308  -0.85178  -0.84172  -0.81922  -0.78260
 Alpha  occ. eigenvalues --   -0.76044  -0.73946  -0.71394  -0.67332  -0.65010
 Alpha  occ. eigenvalues --   -0.64441  -0.62801  -0.60198  -0.57190  -0.56709
 Alpha  occ. eigenvalues --   -0.55836  -0.52383  -0.51777  -0.50936  -0.49851
 Alpha  occ. eigenvalues --   -0.49358  -0.48158  -0.47951  -0.47701  -0.46878
 Alpha  occ. eigenvalues --   -0.46263  -0.44737  -0.44312  -0.43820  -0.43374
 Alpha  occ. eigenvalues --   -0.43079  -0.42302  -0.41454  -0.40695  -0.40199
 Alpha  occ. eigenvalues --   -0.38913  -0.38664  -0.37897  -0.37237  -0.35656
 Alpha  occ. eigenvalues --   -0.34533  -0.33630  -0.33229  -0.33017  -0.32146
 Alpha  occ. eigenvalues --   -0.31923  -0.31671  -0.30983  -0.30919  -0.29847
 Alpha  occ. eigenvalues --   -0.28297  -0.27367  -0.26134  -0.24974  -0.23087
 Alpha  occ. eigenvalues --   -0.22080
 Alpha virt. eigenvalues --   -0.02820  -0.00477   0.03255   0.03545   0.05674
 Alpha virt. eigenvalues --    0.05766   0.07502   0.08199   0.08694   0.09285
 Alpha virt. eigenvalues --    0.09451   0.10077   0.10892   0.11831   0.12410

 Mulliken charges:
               1
     1  C   -0.418552
     2  C    0.062321
     3  O   -0.405520
     4  C   -0.162776
     5  C    0.448517
     6  O   -0.257166
     7  C   -0.053490
     8  C   -0.205920
     9  C   -0.216542
    10  C   -0.214340
    11  C    0.077364
    12  N   -0.282662
    13  N   -0.237285
    14  P   -0.051648
    15  C    0.196820
    16  O   -0.393597
    17  O   -0.161315
    18  O   -0.101859
    19  O   -0.266261
    20  C   -0.220729
    21  C   -0.242012
    22  H    0.128729
    23  H    0.119966
    24  H    0.128769
    25  H    0.099220
    26  H    0.274640
    27  H    0.082097
    28  H    0.113851
    29  H    0.091572
    30  H    0.094451
    31  H    0.096156
    32  H    0.083484
    33  H    0.109119
    34  H    0.048496
    35  H    0.223068
    36  H    0.227019
    37  H    0.036346
    38  H    0.112002
    39  H    0.292503
    40  H    0.317400
    41  H    0.125773
    42  H    0.094118
    43  H    0.102026
    44  H    0.105845
 Sum of Mulliken charges =  -0.00000

 Dipole moment (field-independent basis, Debye):
    X=             -0.1591    Y=              1.7228    Z=              1.6013  Tot=              2.3574
 Quadrupole moment (field-independent basis, Debye-Ang):
   XX=           -122.0186   YY=           -135.4640   ZZ=           -132.5023
   XY=              4.1427   XZ=              6.0695   YZ=              9.0712

  Exact polarizability: 237.519  -5.625 185.729   8.510  -5.160 163.785
 Approx polarizability: 279.290 -13.305 274.492  13.963 -20.499 299.301

                      1                      2                      3
                      A                      A                      A
 Frequencies --     17.2053                19.0484                27.7461
 Red. masses --      7.7607                 7.2643                 5.7391
 Frc consts  --      0.0014                 0.0016                 0.0026
 IR Inten    --      0.0207                 0.3285                 0.4498

                      4                      5                      6
                      A                      A                      A
 Frequencies --     34.5730                43.1100                56.2205
 Red. masses --      4.4368                 5.4793                 3.9602
 Frc consts  --      0.0031                 0.0060                 0.0074
 IR Inten    --      0.3650                 0.5289                 0.3968

                      7                      8                      9
                      A                      A                      A
 Frequencies --     64.6780                72.5224                88.3153
 Red. masses --      5.7267                 5.0671                 5.9144
 Frc consts  --      0.0141                 0.0157                 0.0272
 IR Inten    --      0.8465                 1.0244                 1.5509

                     10                     11                     12
                      A                      A                      A
 Frequencies --    114.8038               131.2384               137.1360
 Red. masses --      5.8160                 6.0718                 6.2018
 Frc consts  --      0.0452                 0.0616                 0.0687
 IR Inten    --      2.9226                 3.7103                 4.6029

                     13                     14                     15
                      A                      A                      A
 Frequencies --    153.4870               187.7882               192.0822
 Red. masses --      4.9579                 3.2806                 3.3059
 Frc consts  --      0.0688                 0.0682                 0.0719
 IR Inten    --      1.8724                 2.4954                 0.8611

                     16                     17                     18
                      A                      A                      A
 Frequencies --    215.8455               243.1132               249.8785
 Red. masses --      4.3906                 1.8749                 3.5528
 Frc consts  --      0.1205                 0.0653                 0.1307
 IR Inten    --      5.1681                 1.2220                 2.4688

                     19                     20                     21
                      A                      A                      A
 Frequencies --    259.2144               264.5183               276.6911
 Red. masses --      1.6263                 2.9481                 2.5184
 Frc consts  --      0.0644                 0.1215                 0.1136
 IR Inten    --      1.9770                12.0563                12.9932

                     22                     23                     24
                      A                      A                      A
 Frequencies --    297.4440               307.4218               322.1688
 Red. masses --      3.1062                 1.9775                 1.9782
 Frc consts  --      0.1619                 0.1101                 0.1210
 IR Inten    --     20.7230                25.0428                15.6193

                     25                     26                     27
                      A                      A                      A
 Frequencies --    338.9251               345.4700               375.9932
 Red. masses --      1.7345                 1.9336                 2.1596
 Frc consts  --      0.1174                 0.1360                 0.1799
 IR Inten    --     63.0172                 3.2315               116.6006

                     28                     29                     30
                      A                      A                      A
 Frequencies --    393.4105               413.7301               420.7480
 Red. masses --      1.7242                 2.6182                 1.3232
 Frc consts  --      0.1572                 0.2640                 0.1380
 IR Inten    --     12.4498                11.4252               272.9397

                     31                     32                     33
                      A                      A                      A
 Frequencies --    433.6532               464.7553               483.0941
 Red. masses --      2.1750                 2.5920                 3.5897
 Frc consts  --      0.2410                 0.3299                 0.4936
 IR Inten    --      4.3769                 2.7247                20.3594

                     34                     35                     36
                      A                      A                      A
 Frequencies --    489.1382               498.6788               542.7380
 Red. masses --      2.1263                 4.3637                 3.7163
 Frc consts  --      0.2997                 0.6394                 0.6450
 IR Inten    --     13.1680                 3.7797                 0.7489

                     37                     38                     39
                      A                      A                      A
 Frequencies --    550.3085               562.9824               605.1112
 Red. masses --      2.8342                 3.6156                 4.5913
 Frc consts  --      0.5057                 0.6752                 0.9905
 IR Inten    --      4.3931                 3.6019                13.8951

                     40                     41                     42
                      A                      A                      A
 Frequencies --    610.0386               690.3937               707.4895
 Red. masses --      6.7361                 3.3071                 3.2987
 Frc consts  --      1.4770                 0.9287                 0.9728
 IR Inten    --     14.9349                 0.6221                 7.9141

                     43                     44                     45
                      A                      A                      A
 Frequencies --    722.3815               752.2749               765.6231
 Red. masses --      8.1544                 2.3201                 2.6814
 Frc consts  --      2.5071                 0.7736                 0.9261
 IR Inten    --     30.5646                53.3397                 3.3581

                     46                     47                     48
                      A                      A                      A
 Frequencies --    806.3777               834.2755               836.2245
 Red. masses --      2.1234                 1.9382                 2.7319
 Frc consts  --      0.8135                 0.7948                 1.1255
 IR Inten    --     15.4077                73.3941                 2.8644

                     49                     50                     51
                      A                      A                      A
 Frequencies --    851.4789               876.0518               877.7341
 Red. masses --      1.4778                 2.3628                 2.0619
 Frc consts  --      0.6313                 1.0684                 0.9359
 IR Inten    --      5.2610                24.3928                30.1980

                     52                     53                     54
                      A                      A                      A
 Frequencies --    900.9671               931.0707               935.2812
 Red. masses --      2.3959                 1.9259                12.0943
 Frc consts  --      1.1459                 0.9837                 6.2332
 IR Inten    --     21.7837                 1.3776                40.1735

                     55                     56                     57
                      A                      A                      A
 Frequencies --    964.0115               967.1591               985.1250
 Red. masses --      2.0665                 3.0039                 1.7677
 Frc consts  --      1.1315                 1.6555                 1.0107
 IR Inten    --     22.5709                51.8492                12.6573

                     58                     59                     60
                      A                      A                      A
 Frequencies --   1008.1005              1015.6319              1027.5944
 Red. masses --      1.8486                 1.7673                 2.0196
 Frc consts  --      1.1069                 1.0741                 1.2565
 IR Inten    --     35.0062                 7.7248                 3.1662

                     61                     62                     63
                      A                      A                      A
 Frequencies --   1045.0942              1053.5016              1069.5150
 Red. masses --      2.3602                 1.8959                 2.6089
 Frc consts  --      1.5188                 1.2398                 1.7583
 IR Inten    --      3.0686                 9.4104                 1.5647

                     64                     65                     66
                      A                      A                      A
 Frequencies --   1091.6732              1098.3828              1101.3077
 Red. masses --      4.1438                 2.0065                 2.4244
 Frc consts  --      2.9096                 1.4263                 1.7325
 IR Inten    --    150.9827                31.0100                42.4586

                     67                     68                     69
                      A                      A                      A
 Frequencies --   1134.2061              1156.5609              1162.2266
 Red. masses --      1.9989                 2.6033                 2.9169
 Frc consts  --      1.5151                 2.0517                 2.3214
 IR Inten    --      5.1179                30.0134                24.9600

                     70                     71                     72
                      A                      A                      A
 Frequencies --   1172.6528              1191.5162              1211.2220
 Red. masses --      1.5831                 2.8504                 1.3296
 Frc consts  --      1.2826                 2.3843                 1.1493
 IR Inten    --      7.2374                 9.9788                 4.6466

                     73                     74                     75
                      A                      A                      A
 Frequencies --   1217.7181              1254.4844              1271.2529
 Red. masses --      1.3677                 1.2080                 1.4152
 Frc consts  --      1.1949                 1.1201                 1.3475
 IR Inten    --      0.7110                 6.9741                 6.5278

                     76                     77                     78
                      A                      A                      A
 Frequencies --   1277.8402              1288.3668              1312.2054
 Red. masses --      1.2728                 1.3570                 1.2703
 Frc consts  --      1.2245                 1.3271                 1.2887
 IR Inten    --     15.5946                 6.3124                13.7327

                     79                     80                     81
                      A                      A                      A
 Frequencies --   1319.4262              1324.9404              1331.6183
 Red. masses --      1.3828                 1.1900                 1.5198
 Frc consts  --      1.4183                 1.2308                 1.5878
 IR Inten    --      6.5375                20.7090                38.8084

                     82                     83                     84
                      A                      A                      A
 Frequencies --   1348.5216              1355.0075              1371.3541
 Red. masses --      1.2473                 1.3031                 1.3499
 Frc consts  --      1.3364                 1.4096                 1.4957
 IR Inten    --      3.7114                 2.0786                 3.6087

                     85                     86                     87
                      A                      A                      A
 Frequencies --   1380.6080              1390.5994              1400.3327
 Red. masses --      1.3180                 1.4548                 1.4402
 Frc consts  --      1.4801                 1.6576                 1.6640
 IR Inten    --      6.6469                 1.5105                 1.4634

                     88                     89                     90
                      A                      A                      A
 Frequencies --   1403.3878              1408.2111              1417.1063
 Red. masses --      1.3271                 1.4350                 1.5027
 Frc consts  --      1.5399                 1.6766                 1.7779
 IR Inten    --      7.6369                 0.5709                33.4559

                     91                     92                     93
                      A                      A                      A
 Frequencies --   1417.7994              1422.2907              1423.7885
 Red. masses --      1.1190                 1.1895                 1.5369
 Frc consts  --      1.3253                 1.4177                 1.8356
 IR Inten    --     54.6670                51.2680                20.0391

                     94                     95                     96
                      A                      A                      A
 Frequencies --   1439.8972              1485.4259              1489.1047
 Red. masses --      1.3298                 1.0864                 1.0858
 Frc consts  --      1.6244                 1.4124                 1.4185
 IR Inten    --      7.3596                 1.7027                 0.6034

                     97                     98                     99
                      A                      A                      A
 Frequencies --   1489.6197              1495.8856              1497.6337
 Red. masses --      1.0585                 1.0873                 1.0837
 Frc consts  --      1.3839                 1.4335                 1.4320
 IR Inten    --      4.7593                 3.3530                 5.0714

                    100                    101                    102
                      A                      A                      A
 Frequencies --   1498.3799              1514.1996              1530.3445
 Red. masses --      1.0479                 1.0836                 1.1811
 Frc consts  --      1.3862                 1.4638                 1.6297
 IR Inten    --      5.3762                 8.8153                 1.3564

                    103                    104                    105
                      A                      A                      A
 Frequencies --   2194.0979              2333.4105              2891.5837
 Red. masses --     12.3960                 1.0386                 1.0804
 Frc consts  --     35.1597                 3.3319                 5.3226
 IR Inten    --    542.5665               127.4899                45.4727

                    106                    107                    108
                      A                      A                      A
 Frequencies --   2993.1765              3000.9489              3012.0597
 Red. masses --      1.0820                 1.0609                 1.0676
 Frc consts  --      5.7114                 5.6293                 5.7065
 IR Inten    --     13.0830                36.1046                 9.6749

                    109                    110                    111
                      A                      A                      A
 Frequencies --   3019.1826              3027.1720              3028.4797
 Red. masses --      1.0664                 1.0706                 1.0646
 Frc consts  --      5.7272                 5.7802                 5.7527
 IR Inten    --     12.9520                11.1570                 8.1981

                    112                    113                    114
                      A                      A                      A
 Frequencies --   3034.4802              3037.7054              3044.8979
 Red. masses --      1.0575                 1.0697                 1.0921
 Frc consts  --      5.7374                 5.8155                 5.9657
 IR Inten    --     24.9220                18.2990                52.5535

                    115                    116                    117
                      A                      A                      A
 Frequencies --   3059.0017              3067.2767              3077.1250
 Red. masses --      1.0994                 1.0960                 1.0847
 Frc consts  --      6.0611                 6.0754                 6.0516
 IR Inten    --     56.7010                30.4056                10.6114

                    118                    119                    120
                      A                      A                      A
 Frequencies --   3098.4319              3102.1962              3106.5315
 Red. masses --      1.0958                 1.0974                 1.0917
 Frc consts  --      6.1981                 6.2221                 6.2075
 IR Inten    --      4.9432                23.8210                 9.0549

                    121                    122                    123
                      A                      A                      A
 Frequencies --   3127.2996              3455.8360              3486.0409
 Red. masses --      1.1022                 1.0748                 1.0745
 Frc consts  --      6.3512                 7.5628                 7.6934
 IR Inten    --     16.8554                 5.8731                 8.9730

                    124                    125                    126
                      A                      A                      A
 Frequencies --   3702.7203              3774.9013              3790.0781
 Red. masses --      1.0684                 1.0655                 1.0658
 Frc consts  --      8.6302                 8.9453                 9.0207
 IR Inten    --     38.7118                27.1836                13.4888

 - Thermochemistry -
 -------------------
 Temperature   298.150 Kelvin.  Pressure   1.00000 Atm.
 Atom     1 has atomic number  6 and mass  12.00000

 Molecular mass:   322.12938 amu.
 Principal axes and moments of inertia in atomic units:
                           1         2         3
     Eigenvalues --  3632.45240********************
           X            0.99998   0.00315   0.00596
           Y           -0.00327   0.99979   0.02012
           Z           -0.00590  -0.02014   0.99978
 This molecule is an asymmetric top.
 Rotational symmetry number  1.
 Warning -- assumption of classical behavior for rotation
           may cause significant error
 Rotational temperatures (Kelvin)      0.02384     0.00468     0.00422
 Rotational constants (GHZ):           0.49684     0.09751     0.08785
 Zero-point vibrational energy     947981.4 (Joules/Mol)
                                  226.57300 (Kcal/Mol)
 Warning -- explicit consideration of  40 degrees of freedom as
           vibrations may cause significant error
 Vibrational temperatures:     24.75    27.41    39.92    49.74    62.03
          (Kelvin)             80.89    93.06   104.34   127.07   165.18
                              188.82   197.31   220.83   270.19   276.36
                              310.55   349.79   359.52   372.95   380.58
                              398.10   427.96   442.31   463.53   487.64
                              497.05   540.97   566.03   595.27   605.36
                              623.93   668.68   695.06   703.76   717.49
                              780.88   791.77   810.01   870.62   877.71
                              993.32  1017.92  1039.35  1082.36  1101.56
                             1160.20  1200.34  1203.14  1225.09  1260.44
                             1262.86  1296.29  1339.60  1345.66  1387.00
                             1391.53  1417.38  1450.43  1461.27  1478.48
                             1503.66  1515.75  1538.79  1570.67  1580.33
                             1584.54  1631.87  1664.03  1672.18  1687.19
                             1714.33  1742.68  1752.02  1804.92  1829.05
                             1838.53  1853.67  1887.97  1898.36  1906.29
                             1915.90  1940.22  1949.55  1973.07  1986.39
                             2000.76  2014.77  2019.16  2026.10  2038.90
                             2039.90  2046.36  2048.51  2071.69  2137.20
                             2142.49  2143.23  2152.25  2154.76  2155.83
                             2178.60  2201.82  3156.82  3357.26  4160.34
                             4306.51  4317.70  4333.68  4343.93  4355.43
                             4357.31  4365.94  4370.58  4380.93  4401.22
                             4413.13  4427.30  4457.95  4463.37  4469.61
                             4499.49  4972.18  5015.64  5327.39  5431.24
                             5453.08

 Zero-point correction=                           0.361067 (Hartree/Particle)
 Thermal correction to Energy=                    0.385338
 Thermal correction to Enthalpy=                  0.386282
 Thermal correction to Gibbs Free Energy=         0.303926
 Sum of electronic and zero-point Energies=          -1372.785051
 Sum of electronic and thermal Energies=             -1372.760780
 Sum of electronic and thermal Enthalpies=           -1372.759836
 Sum of electronic and thermal Free Energies=        -1372.842192

                     E (Thermal)             CV                S
                      KCal/Mol        Cal/Mol-Kelvin    Cal/Mol-Kelvin
 Total                  241.803             89.306            173.333
 Electronic               0.000              0.000              0.000
 Translational            0.889              2.981             43.205
 Rotational               0.889              2.981             35.578
 Vibrational            240.026             83.345             94.550
 Vibration     1          0.593              1.986              6.933
 Vibration     2          0.593              1.986              6.731
 Vibration     3          0.593              1.984              5.984
 Vibration     4          0.594              1.983              5.548
 Vibration     5          0.595              1.980              5.111
 Vibration     6          0.596              1.975              4.586
 Vibration     7          0.597              1.971              4.309
 Vibration     8          0.599              1.967              4.084
 Vibration     9          0.601              1.957              3.697
 Vibration    10          0.608              1.937              3.186
 Vibration    11          0.612              1.922              2.928
 Vibration    12          0.614              1.916              2.843
 Vibration    13          0.619              1.899              2.629
 Vibration    14          0.632              1.857              2.250
 Vibration    15          0.634              1.851              2.208
 Vibration    16          0.645              1.817              1.994
 Vibration    17          0.659              1.774              1.780
 Vibration    18          0.663              1.763              1.731
 Vibration    19          0.668              1.747              1.667
 Vibration    20          0.671              1.738              1.632
 Vibration    21          0.678              1.717              1.554
 Vibration    22          0.691              1.678              1.431
 Vibration    23          0.697              1.660              1.376
 Vibration    24          0.707              1.631              1.299
 Vibration    25          0.719              1.598              1.217
 Vibration    26          0.724              1.584              1.187
 Vibration    27          0.747              1.521              1.055
 Vibration    28          0.761              1.484              0.987
 Vibration    29          0.777              1.440              0.914
 Vibration    30          0.783              1.425              0.889
 Vibration    31          0.794              1.397              0.847
 Vibration    32          0.822              1.328              0.752
 Vibration    33          0.839              1.288              0.702
 Vibration    34          0.845              1.274              0.686
 Vibration    35          0.854              1.253              0.661
 Vibration    36          0.898              1.156              0.559
 Vibration    37          0.906              1.139              0.544
 Vibration    38          0.919              1.111              0.518
 Vibration    39          0.964              1.021              0.441
 Vibration    40          0.969              1.011              0.433

                           ! Non-Optimized Parameters !
 Normal termination of Gaussian 16 at Sun May 28 14:11:09 2023.
