 Gaussian 16, Revision A.03,
 Gaussian 16:  ES64L-G16RevA.03 25-Dec-2016

 -----------------------------
 # opt freq b3lyp/6-31g(2df,p)
 -----------------------------

 -------------------
 Title Card Required
 -------------------
 Symbolic Z-matrix:
 Charge =  0 Multiplicity = 1

 SCF Done:  E(RB3LYP) =  -766.739000465     A.U. after   14 cycles
 SCF Done:  E(RB3LYP) =  -766.759386841     A.U. after   14 cycles
 SCF Done:  E(RB3LYP) =  -766.774228582     A.U. after   12 cycles
 SCF Done:  E(RB3LYP) =  -766.780332415     A.U. after   12 cycles
 SCF Done:  E(RB3LYP) =  -766.783632031     A.U. after   12 cycles
 SCF Done:  E(RB3LYP) =  -766.784281877     A.U. after   13 cycles
 SCF Done:  E(RB3LYP) =  -766.785631044     A.U. after   12 cycles
 SCF Done:  E(RB3LYP) =  -766.786029905     A.U. after   11 cycles
 SCF Done:  E(RB3LYP) =  -766.786370196     A.U. after   12 cycles
 SCF Done:  E(RB3LYP) =  -766.786622303     A.U. after   12 cycles
 SCF Done:  E(RB3LYP) =  -766.787059987     A.U. after   10 cycles
 SCF Done:  E(RB3LYP) =  -766.787014730     A.U. after   12 cycles
 SCF Done:  E(RB3LYP) =  -766.787077081     A.U. after   11 cycles
 SCF Done:  E(RB3LYP) =  -766.787082226     A.U. after    9 cycles
 SCF Done:  E(RB3LYP) =  -766.787086621     A.U. after    9 cycles
 SCF Done:  E(RB3LYP) =  -766.787087396     A.U. after    7 cycles
 SCF Done:  E(RB3LYP) =  -766.787087555     A.U. after    7 cycles
 SCF Done:  E(RB3LYP) =  -766.787087612     A.U. after    6 cycles
 SCF Done:  E(RB3LYP) =  -766.787087670     A.U. after    6 cycles
 Optimization completed.
    -- Stationary point found.
 Normal termination of Gaussian 16 at Sun May 28 15:22:21 2023.

 ----------------------------------------------------------------------
 #N Geom=AllCheck Guess=TCheck SCRF=Check GenChk RB3LYP/6-31G(2df,p) Fr
 eq
 ----------------------------------------------------------------------

 Structure from the checkpoint file:  "CCqOrCOC1CdCCqOrCqdOrCOC1.chk"
 -------------------
 Title Card Required
 -------------------
 Charge =  0 Multiplicity = 1

                         Standard orientation:
 ---------------------------------------------------------------------
 Center     Atomic      Atomic             Coordinates (Angstroms)
 Number     Number       Type             X           Y           Z
 ---------------------------------------------------------------------
      1          6           0       -4.176451    0.577245   -1.408146
      2          6           0       -3.471596   -0.128934   -0.251010
      3          8           0       -3.298492   -1.520263   -0.511138
      4          6           0       -2.137293    0.533896    0.096670
      5          8           0       -1.692760    0.025950    1.343377
      6          6           0       -0.315175   -0.286325    1.490533
      7          6           0        0.121251   -1.327814    0.482158
      8          6           0        1.318520   -1.544553   -0.060753
      9          6           0        2.596124   -0.748985    0.109995
     10          8           0        3.694547   -1.495019   -0.340020
     11          6           0        2.534172    0.583536   -0.666361
     12          8           0        3.459634    0.862689   -1.398024
     13          6           0        1.287497    1.470022   -0.651351
     14          8           0        0.682628    1.855657    0.565849
     15          6           0        0.549550    0.971509    1.667068
     16          1           0       -5.106766    0.058700   -1.653334
     17          1           0       -3.544956    0.587635   -2.306368
     18          1           0       -4.413086    1.615967   -1.157817
     19          1           0       -4.101410   -0.091282    0.645071
     20          1           0       -2.908289   -1.605909   -1.388306
     21          1           0       -2.249204    1.625705    0.153097
     22          1           0       -1.419642    0.313966   -0.706206
     23          1           0       -0.279007   -0.773227    2.478479
     24          1           0       -0.691321   -2.007374    0.234574
     25          1           0        1.453035   -2.389203   -0.731199
     26          1           0        2.742229   -0.488491    1.170381
     27          1           0        4.191719   -0.894572   -0.919742
     28          1           0        0.565239    0.950018   -1.301685
     29          1           0        1.569365    2.399932   -1.150167
     30          1           0        0.057396    1.581727    2.430000
     31          1           0        1.530656    0.686717    2.070047
 ---------------------------------------------------------------------

 SCF Done:  E(RB3LYP) =  -766.787087670     A.U. after    1 cycles

 The electronic state is 1-A.
 Alpha  occ. eigenvalues --  -19.16343 -19.16330 -19.14385 -19.13965 -19.13766
 Alpha  occ. eigenvalues --  -10.29216 -10.25478 -10.25415 -10.24972 -10.24391
 Alpha  occ. eigenvalues --  -10.23529 -10.22963 -10.19925 -10.19571 -10.18554
 Alpha  occ. eigenvalues --   -1.07936  -1.05280  -1.03713  -1.02144  -1.01685
 Alpha  occ. eigenvalues --   -0.81717  -0.78923  -0.76748  -0.72203  -0.71372
 Alpha  occ. eigenvalues --   -0.67866  -0.62157  -0.60715  -0.58977  -0.54405
 Alpha  occ. eigenvalues --   -0.53573  -0.51584  -0.50116  -0.49321  -0.48791
 Alpha  occ. eigenvalues --   -0.48347  -0.46780  -0.46018  -0.45133  -0.43653
 Alpha  occ. eigenvalues --   -0.43460  -0.42548  -0.41673  -0.40729  -0.38988
 Alpha  occ. eigenvalues --   -0.37967  -0.37258  -0.35661  -0.35359  -0.33736
 Alpha  occ. eigenvalues --   -0.33299  -0.31656  -0.29995  -0.29131  -0.27863
 Alpha  occ. eigenvalues --   -0.27616  -0.25766  -0.24131
 Alpha virt. eigenvalues --   -0.04706   0.00206   0.06401   0.07482   0.08196
 Alpha virt. eigenvalues --    0.10100   0.10963   0.11329   0.12591   0.13289
 Alpha virt. eigenvalues --    0.13765   0.14224   0.14684   0.15317   0.16400

 Mulliken charges:
               1
     1  C   -0.415434
     2  C    0.124446
     3  O   -0.423631
     4  C   -0.067447
     5  O   -0.263069
     6  C    0.042246
     7  C   -0.101151
     8  C   -0.107736
     9  C   -0.016230
    10  O   -0.448061
    11  C    0.334142
    12  O   -0.311877
    13  C   -0.162346
    14  O   -0.257714
    15  C   -0.099014
    16  H    0.131003
    17  H    0.107700
    18  H    0.123855
    19  H    0.102202
    20  H    0.276080
    21  H    0.099780
    22  H    0.083351
    23  H    0.111351
    24  H    0.123057
    25  H    0.117441
    26  H    0.110678
    27  H    0.293994
    28  H    0.124225
    29  H    0.141978
    30  H    0.125579
    31  H    0.100602
 Sum of Mulliken charges =  -0.00000

 Dipole moment (field-independent basis, Debye):
    X=             -1.3860    Y=              1.1207    Z=             -0.7172  Tot=              1.9213
 Quadrupole moment (field-independent basis, Debye-Ang):
   XX=            -98.4579   YY=            -94.6832   ZZ=            -84.4563
   XY=             -2.2071   XZ=              8.0724   YZ=              2.4139

  Exact polarizability: 149.968  -4.909 110.710  -9.065  -0.207 109.378
 Approx polarizability: 200.632  -4.744 166.533 -24.604  -0.774 172.208

                      1                      2                      3
                      A                      A                      A
 Frequencies --     31.1912                38.0132                50.5925
 Red. masses --      4.7981                 5.0676                 5.1132
 Frc consts  --      0.0028                 0.0043                 0.0077
 IR Inten    --      0.5833                 0.3461                 1.6646

                      4                      5                      6
                      A                      A                      A
 Frequencies --     75.7246               108.0004               149.2511
 Red. masses --      4.7839                 3.7746                 3.2469
 Frc consts  --      0.0162                 0.0259                 0.0426
 IR Inten    --      3.9236                 1.3508                 9.2777

                      7                      8                      9
                      A                      A                      A
 Frequencies --    169.4784               187.3993               228.8115
 Red. masses --      5.0367                 3.9225                 3.6330
 Frc consts  --      0.0852                 0.0812                 0.1121
 IR Inten    --      0.2687                 4.6956                 0.3462

                     10                     11                     12
                      A                      A                      A
 Frequencies --    230.2777               250.0049               277.1091
 Red. masses --      1.3322                 3.4353                 2.2651
 Frc consts  --      0.0416                 0.1265                 0.1025
 IR Inten    --      3.3840                 1.8190                33.2281

                     13                     14                     15
                      A                      A                      A
 Frequencies --    292.9367               335.2933               356.7645
 Red. masses --      1.2852                 3.4339                 4.4066
 Frc consts  --      0.0650                 0.2275                 0.3305
 IR Inten    --    105.8403                 2.0835                17.9037

                     16                     17                     18
                      A                      A                      A
 Frequencies --    368.7250               404.8951               426.3359
 Red. masses --      4.0333                 2.8103                 2.3131
 Frc consts  --      0.3231                 0.2715                 0.2477
 IR Inten    --      9.4843                 4.2714                22.1388

                     19                     20                     21
                      A                      A                      A
 Frequencies --    439.2578               468.6753               486.9245
 Red. masses --      2.3056                 2.1854                 2.3253
 Frc consts  --      0.2621                 0.2828                 0.3248
 IR Inten    --      8.8572                 6.1430                 2.4966

                     22                     23                     24
                      A                      A                      A
 Frequencies --    500.7314               510.3204               543.2538
 Red. masses --      3.0871                 2.5639                 3.3441
 Frc consts  --      0.4560                 0.3934                 0.5815
 IR Inten    --     16.6017                27.3212                17.5193

                     25                     26                     27
                      A                      A                      A
 Frequencies --    646.2173               694.0937               720.7662
 Red. masses --      2.8558                 4.3295                 2.5306
 Frc consts  --      0.7026                 1.2289                 0.7746
 IR Inten    --     15.5696                 8.6759                 4.3441

                     28                     29                     30
                      A                      A                      A
 Frequencies --    773.1135               810.5894               836.2268
 Red. masses --      3.2847                 3.6430                 2.7105
 Frc consts  --      1.1567                 1.4103                 1.1167
 IR Inten    --     18.5209                 2.2839                16.2225

                     31                     32                     33
                      A                      A                      A
 Frequencies --    851.6940               905.6521               924.9969
 Red. masses --      2.7925                 2.5112                 1.6527
 Frc consts  --      1.1935                 1.2136                 0.8332
 IR Inten    --     49.5485                 8.7928                 2.7911

                     34                     35                     36
                      A                      A                      A
 Frequencies --    936.7435               961.1227               980.8156
 Red. masses --      2.2258                 2.4366                 2.7140
 Frc consts  --      1.1508                 1.3262                 1.5383
 IR Inten    --      6.4836                 5.3024                16.3898

                     37                     38                     39
                      A                      A                      A
 Frequencies --   1008.8905              1027.7771              1052.0841
 Red. masses --      2.6587                 1.2695                 2.5902
 Frc consts  --      1.5944                 0.7901                 1.6892
 IR Inten    --      1.7266                 0.5056                44.7248

                     40                     41                     42
                      A                      A                      A
 Frequencies --   1074.7720              1098.3938              1112.0591
 Red. masses --      1.5775                 2.1510                 2.7970
 Frc consts  --      1.0736                 1.5290                 2.0380
 IR Inten    --     37.1836                14.2798                39.0909

                     43                     44                     45
                      A                      A                      A
 Frequencies --   1128.8323              1144.1527              1173.3694
 Red. masses --      4.8090                 4.3002                 4.0384
 Frc consts  --      3.6104                 3.3167                 3.2759
 IR Inten    --     90.9706               171.0675                39.1539

                     46                     47                     48
                      A                      A                      A
 Frequencies --   1177.3300              1186.3303              1215.8439
 Red. masses --      2.7054                 2.1104                 1.3278
 Frc consts  --      2.2094                 1.7500                 1.1565
 IR Inten    --     42.7208                65.2862                29.4494

                     49                     50                     51
                      A                      A                      A
 Frequencies --   1251.2269              1258.4075              1286.8043
 Red. masses --      1.2467                 1.3328                 1.2193
 Frc consts  --      1.1500                 1.2435                 1.1896
 IR Inten    --     10.9970                42.1826                15.5995

                     52                     53                     54
                      A                      A                      A
 Frequencies --   1313.1363              1317.5971              1334.6566
 Red. masses --      1.2146                 1.3377                 1.2274
 Frc consts  --      1.2340                 1.3683                 1.2882
 IR Inten    --     10.7750                 4.0842                16.9248

                     55                     56                     57
                      A                      A                      A
 Frequencies --   1338.4103              1343.0789              1366.4986
 Red. masses --      1.3394                 1.5388                 1.2571
 Frc consts  --      1.4136                 1.6354                 1.3830
 IR Inten    --      3.4680                17.7597                 9.2192

                     58                     59                     60
                      A                      A                      A
 Frequencies --   1386.6108              1400.7251              1402.8689
 Red. masses --      1.2771                 1.3161                 1.2943
 Frc consts  --      1.4467                 1.5214                 1.5008
 IR Inten    --      7.5758                 3.3100                17.7245

                     61                     62                     63
                      A                      A                      A
 Frequencies --   1414.2034              1418.6943              1423.1869
 Red. masses --      1.3105                 1.2885                 1.3515
 Frc consts  --      1.5442                 1.5280                 1.6128
 IR Inten    --     19.8438                40.2096                71.0308

                     64                     65                     66
                      A                      A                      A
 Frequencies --   1424.6621              1476.5531              1486.2255
 Red. masses --      1.2560                 1.0763                 1.0737
 Frc consts  --      1.5019                 1.3825                 1.3974
 IR Inten    --     21.3951                 6.0385                 0.0555

                     67                     68                     69
                      A                      A                      A
 Frequencies --   1494.5615              1496.9872              1498.5496
 Red. masses --      1.0579                 1.0826                 1.0644
 Frc consts  --      1.3923                 1.4294                 1.4083
 IR Inten    --     11.8375                 5.9762                 1.5552

                     70                     71                     72
                      A                      A                      A
 Frequencies --   1716.2235              1782.9626              2966.2922
 Red. masses --      7.9748                11.6009                 1.0789
 Frc consts  --     13.8395                21.7283                 5.5932
 IR Inten    --      6.4330               157.3655                14.4130

                     73                     74                     75
                      A                      A                      A
 Frequencies --   2976.1499              2979.6458              2993.5141
 Red. masses --      1.0692                 1.0806                 1.0552
 Frc consts  --      5.5798                 5.6524                 5.5713
 IR Inten    --     29.9405                19.8890                22.9172

                     76                     77                     78
                      A                      A                      A
 Frequencies --   3019.8321              3022.1494              3033.1927
 Red. masses --      1.0676                 1.0436                 1.1018
 Frc consts  --      5.7362                 5.6157                 5.9723
 IR Inten    --     64.0667                14.6509                27.1998

                     79                     80                     81
                      A                      A                      A
 Frequencies --   3057.5427              3089.0427              3095.0694
 Red. masses --      1.0862                 1.0954                 1.0946
 Frc consts  --      5.9830                 6.1583                 6.1780
 IR Inten    --     23.2268                17.9220                41.3221

                     82                     83                     84
                      A                      A                      A
 Frequencies --   3106.9437              3123.0158              3152.7714
 Red. masses --      1.0909                 1.1017                 1.0843
 Frc consts  --      6.2045                 6.3311                 6.3502
 IR Inten    --     12.0230                18.2534                 0.1202

                     85                     86                     87
                      A                      A                      A
 Frequencies --   3174.3079              3669.8096              3795.3089
 Red. masses --      1.0941                 1.0642                 1.0659
 Frc consts  --      6.4951                 8.4439                 9.0463
 IR Inten    --      4.9830                76.3175                10.0766

 - Thermochemistry -
 -------------------
 Temperature   298.150 Kelvin.  Pressure   1.00000 Atm.
 Atom     1 has atomic number  6 and mass  12.00000

 Molecular mass:   216.09977 amu.
 Principal axes and moments of inertia in atomic units:
                           1         2         3
     Eigenvalues --  1711.246575632.380645889.50597
           X            0.99978  -0.00905   0.01878
           Y            0.00917   0.99994  -0.00615
           Z           -0.01872   0.00632   0.99980
 This molecule is an asymmetric top.
 Rotational symmetry number  1.
 Warning -- assumption of classical behavior for rotation
           may cause significant error
 Rotational temperatures (Kelvin)      0.05061     0.01538     0.01471
 Rotational constants (GHZ):           1.05464     0.32042     0.30643
 Zero-point vibrational energy     677440.8 (Joules/Mol)
                                  161.91223 (Kcal/Mol)
 Warning -- explicit consideration of  24 degrees of freedom as
           vibrations may cause significant error
 Vibrational temperatures:     44.88    54.69    72.79   108.95   155.39
          (Kelvin)            214.74   243.84   269.63   329.21   331.32
                              359.70   398.70   421.47   482.41   513.30
                              530.51   582.55   613.40   631.99   674.32
                              700.58   720.44   734.24   781.62   929.76
                              998.65  1037.02  1112.34  1166.26  1203.14
                             1225.40  1303.03  1330.86  1347.76  1382.84
                             1411.17  1451.57  1478.74  1513.71  1546.36
                             1580.34  1600.01  1624.14  1646.18  1688.22
                             1693.92  1706.86  1749.33  1800.24  1810.57
                             1851.42  1889.31  1895.73  1920.27  1925.67
                             1932.39  1966.09  1995.02  2015.33  2018.42
                             2034.72  2041.18  2047.65  2049.77  2124.43
                             2138.35  2150.34  2153.83  2156.08  2469.26
                             2565.29  4267.83  4282.02  4287.05  4307.00
                             4344.86  4348.20  4364.09  4399.12  4444.44
                             4453.11  4470.20  4493.32  4536.13  4567.12
                             5280.04  5460.60

 Zero-point correction=                           0.258024 (Hartree/Particle)
 Thermal correction to Energy=                    0.273558
 Thermal correction to Enthalpy=                  0.274502
 Thermal correction to Gibbs Free Energy=         0.214452
 Sum of electronic and zero-point Energies=           -766.529064
 Sum of electronic and thermal Energies=              -766.513530
 Sum of electronic and thermal Enthalpies=            -766.512586
 Sum of electronic and thermal Free Energies=         -766.572636

                     E (Thermal)             CV                S
                      KCal/Mol        Cal/Mol-Kelvin    Cal/Mol-Kelvin
 Total                  171.660             58.388            126.385
 Electronic               0.000              0.000              0.000
 Translational            0.889              2.981             42.015
 Rotational               0.889              2.981             32.407
 Vibrational            169.883             52.427             51.964
 Vibration     1          0.594              1.983              5.752
 Vibration     2          0.594              1.982              5.360
 Vibration     3          0.595              1.977              4.794
 Vibration     4          0.599              1.965              3.999
 Vibration     5          0.606              1.943              3.305
 Vibration     6          0.618              1.903              2.682
 Vibration     7          0.625              1.880              2.441
 Vibration     8          0.632              1.857              2.253
 Vibration     9          0.651              1.797              1.888
 Vibration    10          0.652              1.795              1.877
 Vibration    11          0.663              1.763              1.731
 Vibration    12          0.678              1.716              1.551
 Vibration    13          0.688              1.687              1.457
 Vibration    14          0.716              1.605              1.234
 Vibration    15          0.732              1.561              1.136
 Vibration    16          0.741              1.537              1.085
 Vibration    17          0.770              1.460              0.945
 Vibration    18          0.788              1.413              0.871
 Vibration    19          0.799              1.385              0.829
 Vibration    20          0.826              1.320              0.741
 Vibration    21          0.843              1.279              0.692
 Vibration    22          0.856              1.248              0.656
 Vibration    23          0.865              1.227              0.633
 Vibration    24          0.898              1.154              0.558

 Optimization completed.
    -- Stationary point found.
 Normal termination of Gaussian 16 at Sun May 28 17:37:28 2023.
