 Gaussian 16, Revision A.03,
 Gaussian 16:  ES64L-G16RevA.03 25-Dec-2016

 -----------------------------
 # opt freq b3lyp/6-31g(2df,p)
 -----------------------------

 -------------------
 Title Card Required
 -------------------
 Symbolic Z-matrix:
 Charge =  0 Multiplicity = 1

 SCF Done:  E(RB3LYP) =  -613.792675421     A.U. after   14 cycles
 SCF Done:  E(RB3LYP) =  -613.799207345     A.U. after   12 cycles
 SCF Done:  E(RB3LYP) =  -613.801289357     A.U. after   12 cycles
 SCF Done:  E(RB3LYP) =  -613.802526643     A.U. after   11 cycles
 SCF Done:  E(RB3LYP) =  -613.803370964     A.U. after   12 cycles
 SCF Done:  E(RB3LYP) =  -613.804674508     A.U. after   14 cycles
 SCF Done:  E(RB3LYP) =  -613.805713052     A.U. after   11 cycles
 SCF Done:  E(RB3LYP) =  -613.806608163     A.U. after   12 cycles
 SCF Done:  E(RB3LYP) =  -613.806687418     A.U. after   11 cycles
 SCF Done:  E(RB3LYP) =  -613.806768209     A.U. after   10 cycles
 SCF Done:  E(RB3LYP) =  -613.808335224     A.U. after   10 cycles
 SCF Done:  E(RB3LYP) =  -613.808376794     A.U. after   10 cycles
 SCF Done:  E(RB3LYP) =  -613.808376301     A.U. after   10 cycles
 SCF Done:  E(RB3LYP) =  -613.808408994     A.U. after   10 cycles
 SCF Done:  E(RB3LYP) =  -613.808411276     A.U. after    9 cycles
 SCF Done:  E(RB3LYP) =  -613.808410579     A.U. after    7 cycles
 SCF Done:  E(RB3LYP) =  -613.808413911     A.U. after    9 cycles
 SCF Done:  E(RB3LYP) =  -613.808413965     A.U. after    7 cycles
 SCF Done:  E(RB3LYP) =  -613.808414043     A.U. after    7 cycles
 Optimization completed.
    -- Stationary point found.
 Normal termination of Gaussian 16 at Sun May 28 06:54:52 2023.

 ----------------------------------------------------------------------
 #N Geom=AllCheck Guess=TCheck SCRF=Check GenChk RB3LYP/6-31G(2df,p) Fr
 eq
 ----------------------------------------------------------------------

 Structure from the checkpoint file:  "CCqOrCCqCrCCdCNCqNrdO.chk"
 -------------------
 Title Card Required
 -------------------
 Charge =  0 Multiplicity = 1

                         Standard orientation:
 ---------------------------------------------------------------------
 Center     Atomic      Atomic             Coordinates (Angstroms)
 Number     Number       Type             X           Y           Z
 ---------------------------------------------------------------------
      1          6           0       -5.329976   -0.785938    0.046062
      2          6           0       -4.093846    0.052270   -0.290577
      3          8           0       -4.253306    1.389092    0.185813
      4          6           0       -2.800254   -0.616224    0.201684
      5          6           0       -1.477104    0.012234   -0.279931
      6          6           0       -1.161856    1.346669    0.409371
      7          6           0       -0.316930   -0.999763   -0.096490
      8          6           0        0.979914   -0.577343   -0.722593
      9          6           0        2.114240   -0.373967   -0.047375
     10          7           0        3.315963    0.054178   -0.606720
     11          6           0        4.555953    0.159670   -0.001143
     12          7           0        4.648828   -0.405810    1.262739
     13          8           0        5.478268    0.740489   -0.539150
     14          1           0       -6.234927   -0.272233   -0.289160
     15          1           0       -5.408604   -0.944946    1.129151
     16          1           0       -5.289502   -1.769945   -0.431967
     17          1           0       -4.032028    0.166572   -1.380603
     18          1           0       -4.316366    1.349472    1.146855
     19          1           0       -2.832960   -1.662927   -0.129314
     20          1           0       -2.815145   -0.650694    1.302655
     21          1           0       -1.575941    0.199072   -1.360116
     22          1           0       -1.062581    1.203131    1.493618
     23          1           0       -1.956698    2.073064    0.237227
     24          1           0       -0.215754    1.759250    0.047821
     25          1           0       -0.630011   -1.959867   -0.532350
     26          1           0       -0.166889   -1.183123    0.976322
     27          1           0        0.972741   -0.422791   -1.801655
     28          1           0        2.148551   -0.508061    1.029079
     29          1           0        3.308084    0.433159   -1.541809
     30          1           0        4.129415   -1.252278    1.439971
     31          1           0        5.604526   -0.437735    1.584802
 ---------------------------------------------------------------------

 SCF Done:  E(RB3LYP) =  -613.808414043     A.U. after    1 cycles

 The electronic state is 1-A.
 Alpha  occ. eigenvalues --  -19.13405 -19.09479 -14.36158 -14.34654 -10.30349
 Alpha  occ. eigenvalues --  -10.23223 -10.22325 -10.18701 -10.18590 -10.18017
 Alpha  occ. eigenvalues --  -10.17964 -10.17658 -10.16103  -1.04258  -1.01548
 Alpha  occ. eigenvalues --   -0.93607  -0.89314  -0.81670  -0.77420  -0.74540
 Alpha  occ. eigenvalues --   -0.68281  -0.67874  -0.61405  -0.60859  -0.58798
 Alpha  occ. eigenvalues --   -0.56219  -0.54501  -0.50735  -0.48470  -0.47182
 Alpha  occ. eigenvalues --   -0.46637  -0.44479  -0.43813  -0.43242  -0.42164
 Alpha  occ. eigenvalues --   -0.41097  -0.40983  -0.39286  -0.38242  -0.37383
 Alpha  occ. eigenvalues --   -0.36194  -0.35469  -0.34401  -0.32763  -0.32452
 Alpha  occ. eigenvalues --   -0.32346  -0.31191  -0.27840  -0.26218  -0.25559
 Alpha  occ. eigenvalues --   -0.21301
 Alpha virt. eigenvalues --    0.01010   0.06951   0.07493   0.08389   0.08917
 Alpha virt. eigenvalues --    0.10171   0.11109   0.12372   0.13694   0.13775
 Alpha virt. eigenvalues --    0.14224   0.14973   0.15896   0.16665   0.16883

 Mulliken charges:
               1
     1  C   -0.397796
     2  C    0.128168
     3  O   -0.420006
     4  C   -0.201487
     5  C    0.039756
     6  C   -0.398066
     7  C   -0.237248
     8  C   -0.162569
     9  C    0.063088
    10  N   -0.348505
    11  C    0.434341
    12  N   -0.550201
    13  O   -0.388823
    14  H    0.123717
    15  H    0.105298
    16  H    0.114650
    17  H    0.087792
    18  H    0.274938
    19  H    0.089669
    20  H    0.079587
    21  H    0.069553
    22  H    0.095785
    23  H    0.138158
    24  H    0.112083
    25  H    0.094767
    26  H    0.087163
    27  H    0.075914
    28  H    0.111692
    29  H    0.259506
    30  H    0.255348
    31  H    0.263730
 Sum of Mulliken charges =  -0.00000

 Dipole moment (field-independent basis, Debye):
    X=             -2.1949    Y=             -3.2671    Z=              1.7868  Tot=              4.3225
 Quadrupole moment (field-independent basis, Debye-Ang):
   XX=            -96.0572   YY=            -83.0873   ZZ=            -73.4962
   XY=             -6.4109   XZ=              4.9306   YZ=             -0.7383

  Exact polarizability: 183.298  12.362  95.986   6.655  -3.303 104.533
 Approx polarizability: 217.138  20.833 145.906   9.854  -6.716 169.050

                      1                      2                      3
                      A                      A                      A
 Frequencies --     27.4044                32.3151                39.3263
 Red. masses --      4.0217                 4.1012                 4.2055
 Frc consts  --      0.0018                 0.0025                 0.0038
 IR Inten    --      0.2219                 0.3662                 0.0495

                      4                      5                      6
                      A                      A                      A
 Frequencies --     61.0952                89.8540               109.4250
 Red. masses --      3.9792                 4.8932                 2.9929
 Frc consts  --      0.0088                 0.0233                 0.0211
 IR Inten    --      1.8491                 4.0037                 1.2299

                      7                      8                      9
                      A                      A                      A
 Frequencies --    137.4698               169.3409               213.4370
 Red. masses --      2.4476                 2.9418                 2.9659
 Frc consts  --      0.0273                 0.0497                 0.0796
 IR Inten    --      2.0181                 1.4288                 1.9730

                     10                     11                     12
                      A                      A                      A
 Frequencies --    240.2003               250.8818               264.7936
 Red. masses --      1.0977                 1.3341                 2.2611
 Frc consts  --      0.0373                 0.0495                 0.0934
 IR Inten    --      0.1019                 5.0345                 4.1514

                     13                     14                     15
                      A                      A                      A
 Frequencies --    296.4877               313.3093               324.1603
 Red. masses --      1.4601                 1.9172                 2.5793
 Frc consts  --      0.0756                 0.1109                 0.1597
 IR Inten    --     88.2969                20.0818                14.1645

                     16                     17                     18
                      A                      A                      A
 Frequencies --    352.7053               399.5767               428.4029
 Red. masses --      2.9302                 3.7260                 1.7529
 Frc consts  --      0.2148                 0.3505                 0.1895
 IR Inten    --      7.4186                37.2202                 4.0194

                     19                     20                     21
                      A                      A                      A
 Frequencies --    430.7657               455.2237               498.0183
 Red. masses --      1.1542                 2.2763                 3.0260
 Frc consts  --      0.1262                 0.2779                 0.4422
 IR Inten    --     41.0725                 5.8844                 3.7624

                     22                     23                     24
                      A                      A                      A
 Frequencies --    530.8588               554.6801               574.0738
 Red. masses --      2.6455                 1.4858                 1.4018
 Frc consts  --      0.4393                 0.2693                 0.2722
 IR Inten    --      8.4992                25.2855               121.0076

                     25                     26                     27
                      A                      A                      A
 Frequencies --    605.0597               611.9321               774.1958
 Red. masses --      2.0475                 2.6589                 7.7370
 Frc consts  --      0.4416                 0.5866                 2.7323
 IR Inten    --     65.1349                36.1264                57.6720

                     28                     29                     30
                      A                      A                      A
 Frequencies --    814.1573               833.5154               862.9487
 Red. masses --      1.9227                 2.8509                 2.2728
 Frc consts  --      0.7509                 1.1670                 0.9972
 IR Inten    --      3.0164                 4.6585                 0.2786

                     31                     32                     33
                      A                      A                      A
 Frequencies --    882.9882               898.2741               926.9192
 Red. masses --      1.5671                 1.4601                 2.2146
 Frc consts  --      0.7199                 0.6941                 1.1211
 IR Inten    --      1.7563                 0.1590                14.2365

                     34                     35                     36
                      A                      A                      A
 Frequencies --    955.1428               971.3282               992.2096
 Red. masses --      3.3463                 1.7441                 1.1060
 Frc consts  --      1.7987                 0.9695                 0.6415
 IR Inten    --      2.5245                 9.4179                44.0411

                     37                     38                     39
                      A                      A                      A
 Frequencies --   1014.6383              1050.3395              1061.0151
 Red. masses --      1.5647                 2.0708                 2.2566
 Frc consts  --      0.9491                 1.3460                 1.4967
 IR Inten    --     22.7757                 8.4396                 6.9194

                     40                     41                     42
                      A                      A                      A
 Frequencies --   1104.9038              1119.0107              1128.9460
 Red. masses --      1.7084                 1.6220                 2.2108
 Frc consts  --      1.2288                 1.1967                 1.6601
 IR Inten    --     46.1011                69.7574                15.3098

                     43                     44                     45
                      A                      A                      A
 Frequencies --   1145.4634              1163.5744              1196.9435
 Red. masses --      1.9206                 2.2429                 1.5232
 Frc consts  --      1.4848                 1.7892                 1.2858
 IR Inten    --      7.6781                20.6581                55.7290

                     46                     47                     48
                      A                      A                      A
 Frequencies --   1237.6394              1261.2735              1284.6936
 Red. masses --      1.9172                 1.6865                 1.1777
 Frc consts  --      1.7303                 1.5807                 1.1452
 IR Inten    --     39.2119                55.0663                 5.9593

                     49                     50                     51
                      A                      A                      A
 Frequencies --   1302.9876              1332.4189              1333.7828
 Red. masses --      1.2782                 1.4071                 1.2958
 Frc consts  --      1.2786                 1.4718                 1.3581
 IR Inten    --      6.4470                 1.9400                 4.0981

                     52                     53                     54
                      A                      A                      A
 Frequencies --   1344.4710              1368.6358              1376.8977
 Red. masses --      1.2372                 1.3407                 1.3559
 Frc consts  --      1.3177                 1.4797                 1.5146
 IR Inten    --      1.3516                 5.2509                20.3631

                     55                     56                     57
                      A                      A                      A
 Frequencies --   1386.5251              1403.1893              1409.8068
 Red. masses --      1.5364                 1.2450                 1.3798
 Frc consts  --      1.7402                 1.4443                 1.6158
 IR Inten    --      7.9114                 4.0743                75.2975

                     58                     59                     60
                      A                      A                      A
 Frequencies --   1416.6402              1421.8805              1464.3095
 Red. masses --      2.5529                 1.1961                 1.3415
 Frc consts  --      3.0186                 1.4248                 1.6947
 IR Inten    --    310.1633                34.6101                59.8498

                     61                     62                     63
                      A                      A                      A
 Frequencies --   1470.3329              1482.2078              1492.0638
 Red. masses --      1.2631                 1.2477                 1.0577
 Frc consts  --      1.6088                 1.6150                 1.3873
 IR Inten    --     34.3037                13.5236                 4.8141

                     64                     65                     66
                      A                      A                      A
 Frequencies --   1495.3906              1500.1683              1510.9821
 Red. masses --      1.0492                 1.0568                 1.0502
 Frc consts  --      1.3823                 1.4013                 1.4127
 IR Inten    --      5.0438                 3.8959                 3.4175

                     67                     68                     69
                      A                      A                      A
 Frequencies --   1623.7616              1738.8649              1813.5687
 Red. masses --      1.1924                 5.6097                 7.1160
 Frc consts  --      1.8523                 9.9937                13.7897
 IR Inten    --    154.8718               119.6545               577.5049

                     70                     71                     72
                      A                      A                      A
 Frequencies --   2982.3174              2989.0364              2991.9477
 Red. masses --      1.0710                 1.0664                 1.0698
 Frc consts  --      5.6124                 5.6134                 5.6426
 IR Inten    --      0.7371                16.6591                49.2574

                     73                     74                     75
                      A                      A                      A
 Frequencies --   3021.1651              3022.7757              3028.4799
 Red. masses --      1.0566                 1.0485                 1.0662
 Frc consts  --      5.6823                 5.6444                 5.7616
 IR Inten    --      4.0924                15.9796                42.5866

                     76                     77                     78
                      A                      A                      A
 Frequencies --   3035.2135              3042.7868              3093.1273
 Red. masses --      1.0950                 1.0958                 1.0971
 Frc consts  --      5.9436                 5.9776                 6.1841
 IR Inten    --      4.5812                73.3895                36.7685

                     79                     80                     81
                      A                      A                      A
 Frequencies --   3095.1889              3118.5476              3123.8786
 Red. masses --      1.0915                 1.1017                 1.0882
 Frc consts  --      6.1609                 6.3127                 6.2566
 IR Inten    --     35.1704                24.2821                22.4435

                     82                     83                     84
                      A                      A                      A
 Frequencies --   3147.0849              3185.1680              3576.3357
 Red. masses --      1.0987                 1.0886                 1.0467
 Frc consts  --      6.4111                 6.5068                 7.8880
 IR Inten    --      7.6144                 8.3189                24.8602

                     85                     86                     87
                      A                      A                      A
 Frequencies --   3628.0214              3688.1572              3795.1207
 Red. masses --      1.0757                 1.0994                 1.0658
 Frc consts  --      8.3423                 8.8110                 9.0443
 IR Inten    --     31.1596                34.0868                12.2341

 - Thermochemistry -
 -------------------
 Temperature   298.150 Kelvin.  Pressure   1.00000 Atm.
 Atom     1 has atomic number  6 and mass  12.00000

 Molecular mass:   186.13683 amu.
 Principal axes and moments of inertia in atomic units:
                           1         2         3
     Eigenvalues --   665.271868949.484939137.59790
           X            1.00000   0.00188   0.00224
           Y           -0.00186   0.99995  -0.00986
           Z           -0.00225   0.00986   0.99995
 This molecule is an asymmetric top.
 Rotational symmetry number  1.
 Warning -- assumption of classical behavior for rotation
           may cause significant error
 Rotational temperatures (Kelvin)      0.13019     0.00968     0.00948
 Rotational constants (GHZ):           2.71279     0.20166     0.19751
 Zero-point vibrational energy     711444.1 (Joules/Mol)
                                  170.03921 (Kcal/Mol)
 Warning -- explicit consideration of  26 degrees of freedom as
           vibrations may cause significant error
 Vibrational temperatures:     39.43    46.49    56.58    87.90   129.28
          (Kelvin)            157.44   197.79   243.64   307.09   345.59
                              360.96   380.98   426.58   450.78   466.39
                              507.46   574.90   616.38   619.78   654.97
                              716.54   763.79   798.06   825.96   870.55
                              880.43  1113.90  1171.39  1199.24  1241.59
                             1270.42  1292.42  1333.63  1374.24  1397.52
                             1427.57  1459.84  1511.20  1526.56  1589.71
                             1610.01  1624.30  1648.07  1674.12  1722.13
                             1780.69  1814.69  1848.39  1874.71  1917.05
                             1919.02  1934.39  1969.16  1981.05  1994.90
                             2018.88  2028.40  2038.23  2045.77  2106.81
                             2115.48  2132.57  2146.75  2151.53  2158.41
                             2173.97  2336.23  2501.84  2609.32  4290.89
                             4300.56  4304.75  4346.78  4349.10  4357.31
                             4367.00  4377.89  4450.32  4453.29  4486.89
                             4494.56  4527.95  4582.75  5145.55  5219.91
                             5306.44  5460.33

 Zero-point correction=                           0.270975 (Hartree/Particle)
 Thermal correction to Energy=                    0.286752
 Thermal correction to Enthalpy=                  0.287696
 Thermal correction to Gibbs Free Energy=         0.226382
 Sum of electronic and zero-point Energies=           -613.537439
 Sum of electronic and thermal Energies=              -613.521662
 Sum of electronic and thermal Enthalpies=            -613.520718
 Sum of electronic and thermal Free Energies=         -613.582032

                     E (Thermal)             CV                S
                      KCal/Mol        Cal/Mol-Kelvin    Cal/Mol-Kelvin
 Total                  179.939             57.625            129.046
 Electronic               0.000              0.000              0.000
 Translational            0.889              2.981             41.570
 Rotational               0.889              2.981             32.364
 Vibrational            178.162             51.663             55.112
 Vibration     1          0.593              1.984              6.009
 Vibration     2          0.594              1.983              5.682
 Vibration     3          0.594              1.981              5.293
 Vibration     4          0.597              1.973              4.421
 Vibration     5          0.602              1.956              3.663
 Vibration     6          0.606              1.942              3.279
 Vibration     7          0.614              1.916              2.839
 Vibration     8          0.625              1.880              2.443
 Vibration     9          0.644              1.820              2.014
 Vibration    10          0.657              1.779              1.801
 Vibration    11          0.663              1.761              1.724
 Vibration    12          0.671              1.738              1.630
 Vibration    13          0.690              1.680              1.437
 Vibration    14          0.701              1.648              1.345
 Vibration    15          0.709              1.627              1.289
 Vibration    16          0.729              1.570              1.154
 Vibration    17          0.766              1.471              0.964
 Vibration    18          0.790              1.408              0.864
 Vibration    19          0.792              1.403              0.856
 Vibration    20          0.814              1.349              0.780
 Vibration    21          0.854              1.254              0.663
 Vibration    22          0.886              1.182              0.585
 Vibration    23          0.910              1.129              0.535
 Vibration    24          0.930              1.087              0.496
 Vibration    25          0.964              1.021              0.441
 Vibration    26          0.971              1.007              0.430

                           ! Non-Optimized Parameters !
 Normal termination of Gaussian 16 at Sun May 28 08:09:29 2023.
