 Gaussian 16, Revision A.03,
 Gaussian 16:  ES64L-G16RevA.03 25-Dec-2016

 -----------------------------
 # opt freq b3lyp/6-31g(2df,p)
 -----------------------------

 -------------------
 Title Card Required
 -------------------
 Symbolic Z-matrix:
 Charge =  0 Multiplicity = 1

 SCF Done:  E(RB3LYP) =  -652.494060030     A.U. after   12 cycles
 SCF Done:  E(RB3LYP) =  -652.503953657     A.U. after   11 cycles
 SCF Done:  E(RB3LYP) =  -652.505797171     A.U. after   10 cycles
 SCF Done:  E(RB3LYP) =  -652.506250874     A.U. after   10 cycles
 SCF Done:  E(RB3LYP) =  -652.506427359     A.U. after    9 cycles
 SCF Done:  E(RB3LYP) =  -652.506604507     A.U. after   10 cycles
 SCF Done:  E(RB3LYP) =  -652.506910440     A.U. after   11 cycles
 SCF Done:  E(RB3LYP) =  -652.507071861     A.U. after   11 cycles
 SCF Done:  E(RB3LYP) =  -652.507510114     A.U. after   10 cycles
 SCF Done:  E(RB3LYP) =  -652.507375196     A.U. after   11 cycles
 SCF Done:  E(RB3LYP) =  -652.516379538     A.U. after    9 cycles
 SCF Done:  E(RB3LYP) =  -652.516383021     A.U. after    8 cycles
 SCF Done:  E(RB3LYP) =  -652.516385373     A.U. after    8 cycles
 SCF Done:  E(RB3LYP) =  -652.516387531     A.U. after    8 cycles
 SCF Done:  E(RB3LYP) =  -652.516390150     A.U. after    8 cycles
 SCF Done:  E(RB3LYP) =  -652.516392190     A.U. after    9 cycles
 SCF Done:  E(RB3LYP) =  -652.516393204     A.U. after    7 cycles
 SCF Done:  E(RB3LYP) =  -652.516393282     A.U. after    6 cycles
 SCF Done:  E(RB3LYP) =  -652.516393293     A.U. after    5 cycles
 Optimization completed.
    -- Stationary point found.
 Normal termination of Gaussian 16 at Wed May 24 09:10:44 2023.

 ----------------------------------------------------------------------
 #N Geom=AllCheck Guess=TCheck SCRF=Check GenChk RB3LYP/6-31G(2df,p) Fr
 eq
 ----------------------------------------------------------------------

 Structure from the checkpoint file:  "CCqOrqCOrCqCrqOrOCCO.chk"
 -------------------
 Title Card Required
 -------------------
 Charge =  0 Multiplicity = 1

                         Standard orientation:
 ---------------------------------------------------------------------
 Center     Atomic      Atomic             Coordinates (Angstroms)
 Number     Number       Type             X           Y           Z
 ---------------------------------------------------------------------
      1          6           0        2.741134    0.922561   -0.196981
      2          6           0        1.514188    0.000128   -0.173616
      3          8           0        1.390560   -0.651626   -1.438259
      4          6           0        1.716657   -1.157876    0.821407
      5          8           0        2.832898   -1.946351    0.451234
      6          6           0        0.196686    0.795874    0.091250
      7          6           0        0.232834    1.691026    1.333329
      8          8           0        0.004358    1.581813   -1.081392
      9          8           0       -0.820433   -0.179441    0.195124
     10          6           0       -2.165647    0.256318    0.213910
     11          6           0       -3.038295   -0.943510   -0.151617
     12          8           0       -4.415187   -0.609858   -0.135352
     13          1           0        3.611058    0.326673   -0.476616
     14          1           0        2.942710    1.369070    0.781202
     15          1           0        2.604902    1.725371   -0.926463
     16          1           0        1.081361    0.008998   -2.068570
     17          1           0        0.798384   -1.753401    0.861583
     18          1           0        1.925768   -0.770042    1.823540
     19          1           0        2.685750   -2.179934   -0.473539
     20          1           0        1.012699    2.450218    1.251710
     21          1           0        0.412057    1.098152    2.233145
     22          1           0       -0.728362    2.201221    1.458461
     23          1           0       -0.390923    2.425911   -0.847510
     24          1           0       -2.336578    1.058764   -0.513656
     25          1           0       -2.452777    0.629970    1.211358
     26          1           0       -2.804214   -1.783498    0.518085
     27          1           0       -2.803119   -1.261780   -1.171007
     28          1           0       -4.681630   -0.489112    0.781338
 ---------------------------------------------------------------------

 SCF Done:  E(RB3LYP) =  -652.516393293     A.U. after    1 cycles

 The electronic state is 1-A.
 Alpha  occ. eigenvalues --  -19.16087 -19.14699 -19.14039 -19.13019 -19.12034
 Alpha  occ. eigenvalues --  -10.29386 -10.23448 -10.23182 -10.22830 -10.21303
 Alpha  occ. eigenvalues --  -10.19450 -10.16760  -1.07784  -1.02353  -1.02009
 Alpha  occ. eigenvalues --   -1.01019  -0.99341  -0.79267  -0.74225  -0.72806
 Alpha  occ. eigenvalues --   -0.67626  -0.65204  -0.61003  -0.57483  -0.53899
 Alpha  occ. eigenvalues --   -0.51892  -0.50124  -0.49051  -0.47692  -0.46850
 Alpha  occ. eigenvalues --   -0.45629  -0.43579  -0.42528  -0.41885  -0.40566
 Alpha  occ. eigenvalues --   -0.40147  -0.39047  -0.37520  -0.36836  -0.35951
 Alpha  occ. eigenvalues --   -0.35023  -0.33451  -0.32723  -0.31517  -0.30330
 Alpha  occ. eigenvalues --   -0.27742  -0.26878  -0.26364  -0.25126
 Alpha virt. eigenvalues --    0.04899   0.06595   0.09068   0.10088   0.11676
 Alpha virt. eigenvalues --    0.12320   0.13404   0.14046   0.14428   0.15156
 Alpha virt. eigenvalues --    0.16189   0.16520   0.16754   0.17839   0.19242

 Mulliken charges:
               1
     1  C   -0.439170
     2  C    0.329951
     3  O   -0.494147
     4  C   -0.076143
     5  O   -0.433105
     6  C    0.390722
     7  C   -0.473295
     8  O   -0.463795
     9  O   -0.271473
    10  C   -0.086905
    11  C   -0.082793
    12  O   -0.413652
    13  H    0.134228
    14  H    0.108560
    15  H    0.110337
    16  H    0.291103
    17  H    0.109001
    18  H    0.094061
    19  H    0.292396
    20  H    0.135184
    21  H    0.141668
    22  H    0.117925
    23  H    0.291797
    24  H    0.097325
    25  H    0.076824
    26  H    0.100727
    27  H    0.127612
    28  H    0.285056
 Sum of Mulliken charges =  -0.00000

 Dipole moment (field-independent basis, Debye):
    X=             -1.5159    Y=              3.4025    Z=              1.4846  Tot=              4.0098
 Quadrupole moment (field-independent basis, Debye-Ang):
   XX=            -81.8302   YY=            -69.8534   ZZ=            -69.9784
   XY=              2.4111   XZ=             -8.5050   YZ=              1.3078

  Exact polarizability: 109.727  -0.756  92.000  -1.833   1.398  87.352
 Approx polarizability: 135.581  -4.719 131.816  -1.332   0.846 133.920

                      1                      2                      3
                      A                      A                      A
 Frequencies --     36.7877                53.6887                75.3553
 Red. masses --      2.4862                 3.3505                 3.7728
 Frc consts  --      0.0020                 0.0057                 0.0126
 IR Inten    --      1.9943                 1.7141                 5.9014

                      4                      5                      6
                      A                      A                      A
 Frequencies --     83.2497               122.4800               144.4935
 Red. masses --      3.4581                 3.0277                 1.8070
 Frc consts  --      0.0141                 0.0268                 0.0222
 IR Inten    --      0.2113                15.2629                62.7316

                      7                      8                      9
                      A                      A                      A
 Frequencies --    168.1317               200.5632               224.7787
 Red. masses --      1.9877                 2.1146                 1.2665
 Frc consts  --      0.0331                 0.0501                 0.0377
 IR Inten    --     33.0945                 3.1705                 0.9616

                     10                     11                     12
                      A                      A                      A
 Frequencies --    236.8068               264.1218               289.6311
 Red. masses --      2.2837                 1.7638                 2.9427
 Frc consts  --      0.0755                 0.0725                 0.1454
 IR Inten    --      1.0471                 1.6039                 6.5163

                     13                     14                     15
                      A                      A                      A
 Frequencies --    300.0324               308.8932               316.1950
 Red. masses --      1.2127                 2.1147                 1.7030
 Frc consts  --      0.0643                 0.1189                 0.1003
 IR Inten    --    113.8867                12.5557                41.3965

                     16                     17                     18
                      A                      A                      A
 Frequencies --    345.9844               361.6610               375.5111
 Red. masses --      1.7529                 3.7846                 2.0311
 Frc consts  --      0.1236                 0.2917                 0.1687
 IR Inten    --     21.4403                16.7475                25.0923

                     19                     20                     21
                      A                      A                      A
 Frequencies --    409.7758               438.0878               455.0034
 Red. masses --      2.9593                 3.3827                 3.8085
 Frc consts  --      0.2928                 0.3825                 0.4646
 IR Inten    --     12.6362                 4.5572                 9.3346

                     22                     23                     24
                      A                      A                      A
 Frequencies --    471.5538               542.0641               558.6681
 Red. masses --      1.2508                 4.3887                 4.2381
 Frc consts  --      0.1639                 0.7598                 0.7793
 IR Inten    --     94.4266                 5.0555                 5.5295

                     25                     26                     27
                      A                      A                      A
 Frequencies --    667.8076               744.8417               820.6164
 Red. masses --      3.1817                 4.0195                 1.1197
 Frc consts  --      0.8360                 1.3139                 0.4443
 IR Inten    --     14.7768                 8.8646                 1.1807

                     28                     29                     30
                      A                      A                      A
 Frequencies --    860.6557               903.1617               925.1024
 Red. masses --      3.2575                 1.8910                 2.4185
 Frc consts  --      1.4216                 0.9088                 1.2195
 IR Inten    --      4.7093                 5.4486                69.5818

                     31                     32                     33
                      A                      A                      A
 Frequencies --    934.8334               975.2949              1047.7476
 Red. masses --      1.6352                 2.0502                 2.2470
 Frc consts  --      0.8419                 1.1490                 1.4534
 IR Inten    --     15.0273                24.6570                91.8822

                     34                     35                     36
                      A                      A                      A
 Frequencies --   1060.6551              1074.6845              1086.3018
 Red. masses --      2.1197                 3.0829                 4.1375
 Frc consts  --      1.4050                 2.0979                 2.8767
 IR Inten    --     74.0444                40.0219               150.9672

                     37                     38                     39
                      A                      A                      A
 Frequencies --   1091.8549              1115.2835              1125.4155
 Red. masses --      2.7693                 1.8881                 2.1489
 Frc consts  --      1.9452                 1.3837                 1.6036
 IR Inten    --     12.5694                 6.0371               112.5413

                     40                     41                     42
                      A                      A                      A
 Frequencies --   1143.2717              1159.7641              1179.2234
 Red. masses --      2.2113                 1.9866                 2.8976
 Frc consts  --      1.7029                 1.5743                 2.3740
 IR Inten    --    131.1522                59.5275                55.4099

                     43                     44                     45
                      A                      A                      A
 Frequencies --   1210.8217              1216.8549              1265.4226
 Red. masses --      1.2637                 2.9570                 1.6650
 Frc consts  --      1.0916                 2.5797                 1.5709
 IR Inten    --     11.1543                73.7788                17.7798

                     46                     47                     48
                      A                      A                      A
 Frequencies --   1309.4288              1345.8292              1356.2566
 Red. masses --      1.1419                 1.3728                 1.3562
 Frc consts  --      1.1535                 1.4650                 1.4698
 IR Inten    --      3.9947                14.8368                 1.1675

                     49                     50                     51
                      A                      A                      A
 Frequencies --   1369.2365              1390.2701              1397.5474
 Red. masses --      1.5440                 1.4195                 1.2233
 Frc consts  --      1.7055                 1.6165                 1.4077
 IR Inten    --     61.2499                20.4611                45.4759

                     52                     53                     54
                      A                      A                      A
 Frequencies --   1404.9095              1409.2330              1430.5100
 Red. masses --      1.2664                 1.3408                 1.3948
 Frc consts  --      1.4727                 1.5689                 1.6816
 IR Inten    --     25.8722                59.7730                 2.6026

                     55                     56                     57
                      A                      A                      A
 Frequencies --   1440.4448              1488.1575              1489.8448
 Red. masses --      1.2603                 1.0655                 1.0596
 Frc consts  --      1.5407                 1.3903                 1.3857
 IR Inten    --     43.3706                 5.9725                 2.9052

                     58                     59                     60
                      A                      A                      A
 Frequencies --   1492.8912              1504.7619              1508.0401
 Red. masses --      1.0522                 1.0802                 1.0824
 Frc consts  --      1.3817                 1.4411                 1.4503
 IR Inten    --      2.6247                 0.8039                 1.6648

                     61                     62                     63
                      A                      A                      A
 Frequencies --   1509.2919              1520.6968              2958.9896
 Red. masses --      1.0691                 1.0914                 1.0671
 Frc consts  --      1.4348                 1.4871                 5.5046
 IR Inten    --      3.5042                 2.5358                60.6585

                     64                     65                     66
                      A                      A                      A
 Frequencies --   3005.3397              3039.9100              3045.8479
 Red. masses --      1.0689                 1.0551                 1.0389
 Frc consts  --      5.6880                 5.7446                 5.6785
 IR Inten    --     33.3730                30.9335                 9.5724

                     67                     68                     69
                      A                      A                      A
 Frequencies --   3049.4048              3051.5496              3088.8474
 Red. masses --      1.0394                 1.0887                 1.1071
 Frc consts  --      5.6949                 5.9732                 6.2236
 IR Inten    --     18.9530                29.6830                26.9078

                     70                     71                     72
                      A                      A                      A
 Frequencies --   3099.1452              3113.0314              3118.9779
 Red. masses --      1.0976                 1.0980                 1.0987
 Frc consts  --      6.2111                 6.2695                 6.2975
 IR Inten    --     28.7373                16.6654                31.4381

                     73                     74                     75
                      A                      A                      A
 Frequencies --   3142.4848              3145.3520              3788.6755
 Red. masses --      1.1020                 1.1005                 1.0651
 Frc consts  --      6.4119                 6.4146                 9.0079
 IR Inten    --      9.6771                11.1656                31.8377

                     76                     77                     78
                      A                      A                      A
 Frequencies --   3803.8209              3819.2730              3843.1243
 Red. masses --      1.0654                 1.0663                 1.0669
 Frc consts  --      9.0827                 9.1638                 9.2842
 IR Inten    --     41.6921                19.4577                30.9873

 - Thermochemistry -
 -------------------
 Temperature   298.150 Kelvin.  Pressure   1.00000 Atm.
 Atom     1 has atomic number  6 and mass  12.00000

 Molecular mass:   180.09977 amu.
 Principal axes and moments of inertia in atomic units:
                           1         2         3
     Eigenvalues --  1222.401203595.294624027.24687
           X            0.99992   0.01238  -0.00374
           Y           -0.01223   0.99922   0.03742
           Z            0.00420  -0.03737   0.99929
 This molecule is an asymmetric top.
 Rotational symmetry number  1.
 Warning -- assumption of classical behavior for rotation
           may cause significant error
 Rotational temperatures (Kelvin)      0.07086     0.02409     0.02151
 Rotational constants (GHZ):           1.47639     0.50197     0.44813
 Zero-point vibrational energy     627287.4 (Joules/Mol)
                                  149.92528 (Kcal/Mol)
 Warning -- explicit consideration of  24 degrees of freedom as
           vibrations may cause significant error
 Vibrational temperatures:     52.93    77.25   108.42   119.78   176.22
          (Kelvin)            207.89   241.90   288.57   323.41   340.71
                              380.01   416.71   431.68   444.43   454.93
                              497.79   520.35   540.28   589.58   630.31
                              654.65   678.46   779.91   803.80   960.83
                             1071.66  1180.68  1238.29  1299.45  1331.02
                             1345.02  1403.23  1507.48  1526.05  1546.23
                             1562.95  1570.94  1604.64  1619.22  1644.91
                             1668.64  1696.64  1742.10  1750.78  1820.66
                             1883.98  1936.35  1951.35  1970.03  2000.29
                             2010.76  2021.35  2027.57  2058.18  2072.48
                             2141.13  2143.55  2147.94  2165.02  2169.73
                             2171.53  2187.94  4257.33  4324.01  4373.75
                             4382.30  4387.41  4390.50  4444.16  4458.98
                             4478.96  4487.51  4521.33  4525.46  5451.06
                             5472.85  5495.08  5529.40

 Zero-point correction=                           0.238921 (Hartree/Particle)
 Thermal correction to Energy=                    0.254127
 Thermal correction to Enthalpy=                  0.255071
 Thermal correction to Gibbs Free Energy=         0.197027
 Sum of electronic and zero-point Energies=           -652.277472
 Sum of electronic and thermal Energies=              -652.262266
 Sum of electronic and thermal Enthalpies=            -652.261322
 Sum of electronic and thermal Free Energies=         -652.319366

                     E (Thermal)             CV                S
                      KCal/Mol        Cal/Mol-Kelvin    Cal/Mol-Kelvin
 Total                  159.467             55.414            122.165
 Electronic               0.000              0.000              0.000
 Translational            0.889              2.981             41.472
 Rotational               0.889              2.981             31.249
 Vibrational            157.690             49.452             49.444
 Vibration     1          0.594              1.982              5.425
 Vibration     2          0.596              1.976              4.677
 Vibration     3          0.599              1.965              4.008
 Vibration     4          0.600              1.961              3.813
 Vibration     5          0.610              1.930              3.061
 Vibration     6          0.616              1.909              2.744
 Vibration     7          0.625              1.882              2.456
 Vibration     8          0.638              1.839              2.128
 Vibration     9          0.649              1.803              1.920
 Vibration    10          0.656              1.784              1.827
 Vibration    11          0.671              1.739              1.634
 Vibration    12          0.686              1.693              1.476
 Vibration    13          0.693              1.674              1.417
 Vibration    14          0.698              1.657              1.368
 Vibration    15          0.703              1.643              1.330
 Vibration    16          0.724              1.583              1.184
 Vibration    17          0.736              1.551              1.115
 Vibration    18          0.746              1.522              1.057
 Vibration    19          0.774              1.449              0.927
 Vibration    20          0.798              1.387              0.833
 Vibration    21          0.813              1.350              0.781
 Vibration    22          0.828              1.313              0.733
 Vibration    23          0.897              1.157              0.561
 Vibration    24          0.914              1.121              0.526

 Optimization completed.
    -- Stationary point found.
 Normal termination of Gaussian 16 at Wed May 24 10:33:30 2023.
