 Gaussian 16, Revision A.03,
 Gaussian 16:  ES64L-G16RevA.03 25-Dec-2016

 -----------------------------
 # opt freq b3lyp/6-31g(2df,p)
 -----------------------------

 -------------------
 Title Card Required
 -------------------
 Symbolic Z-matrix:
 Charge =  0 Multiplicity = 1

 SCF Done:  E(RB3LYP) =  -695.147376980     A.U. after   13 cycles
 SCF Done:  E(RB3LYP) =  -695.154652271     A.U. after   11 cycles
 SCF Done:  E(RB3LYP) =  -695.155653905     A.U. after   10 cycles
 SCF Done:  E(RB3LYP) =  -695.156154491     A.U. after   11 cycles
 SCF Done:  E(RB3LYP) =  -695.156329048     A.U. after   13 cycles
 SCF Done:  E(RB3LYP) =  -695.156874913     A.U. after   11 cycles
 SCF Done:  E(RB3LYP) =  -695.157021356     A.U. after   10 cycles
 SCF Done:  E(RB3LYP) =  -695.157067554     A.U. after   10 cycles
 SCF Done:  E(RB3LYP) =  -695.157135880     A.U. after   10 cycles
 SCF Done:  E(RB3LYP) =  -695.157138208     A.U. after    7 cycles
 SCF Done:  E(RB3LYP) =  -695.157139378     A.U. after    7 cycles
 SCF Done:  E(RB3LYP) =  -695.157139797     A.U. after    7 cycles
 SCF Done:  E(RB3LYP) =  -695.157140102     A.U. after    7 cycles
 SCF Done:  E(RB3LYP) =  -695.157140162     A.U. after    6 cycles
 Optimization completed.
    -- Stationary point found.
 Normal termination of Gaussian 16 at Wed May 24 00:31:23 2023.

 ----------------------------------------------------------------------
 #N Geom=AllCheck Guess=TCheck SCRF=Check GenChk RB3LYP/6-31G(2df,p) Fr
 eq
 ----------------------------------------------------------------------

 Structure from the checkpoint file:  "CCqOrqCCCCCCCOrCOO.chk"
 -------------------
 Title Card Required
 -------------------
 Charge =  0 Multiplicity = 1

                         Standard orientation:
 ---------------------------------------------------------------------
 Center     Atomic      Atomic             Coordinates (Angstroms)
 Number     Number       Type             X           Y           Z
 ---------------------------------------------------------------------
      1          6           0        3.035629    2.082335   -0.763767
      2          6           0        2.942284    0.750538   -0.001405
      3          8           0        3.016501    0.990949    1.407107
      4          6           0        1.666915   -0.045817   -0.363474
      5          6           0        0.344410    0.614898    0.043535
      6          6           0       -0.876337   -0.245267   -0.306200
      7          6           0       -2.208097    0.388168    0.109481
      8          6           0       -3.427030   -0.471430   -0.243045
      9          6           0       -4.759603    0.162768    0.169281
     10          6           0       -5.969916   -0.704224   -0.178573
     11          8           0       -7.207277   -0.091636    0.150443
     12          6           0        4.197958   -0.066628   -0.333904
     13          8           0        4.102208   -1.328274    0.307023
     14          8           0        5.261164   -2.087821   -0.097534
     15          1           0        2.210717    2.746015   -0.486134
     16          1           0        2.990983    1.931974   -1.846980
     17          1           0        3.970915    2.594123   -0.519035
     18          1           0        2.303789    1.593795    1.640492
     19          1           0        1.739587   -1.026248    0.115500
     20          1           0        1.666249   -0.225636   -1.446700
     21          1           0        0.235824    1.595348   -0.438415
     22          1           0        0.344353    0.796985    1.127325
     23          1           0       -0.774213   -1.228609    0.172553
     24          1           0       -0.886266   -0.436215   -1.388225
     25          1           0       -2.308839    1.372645   -0.368324
     26          1           0       -2.198516    0.577542    1.192034
     27          1           0       -3.326122   -1.455857    0.234818
     28          1           0       -3.434978   -0.661300   -1.325356
     29          1           0       -4.880891    1.140076   -0.314244
     30          1           0       -4.754917    0.351214    1.253351
     31          1           0       -5.873265   -1.692561    0.300926
     32          1           0       -6.007418   -0.877983   -1.259990
     33          1           0       -7.220041    0.046997    1.102787
     34          1           0        5.084179    0.473415    0.025316
     35          1           0        4.280547   -0.206210   -1.419149
     36          1           0        5.780283   -2.067301    0.719560
 ---------------------------------------------------------------------

 SCF Done:  E(RB3LYP) =  -695.157140162     A.U. after    1 cycles

 The electronic state is 1-A.
 Alpha  occ. eigenvalues --  -19.18618 -19.18526 -19.13312 -19.12963 -10.24264
 Alpha  occ. eigenvalues --  -10.22426 -10.22217 -10.18294 -10.18173 -10.18091
 Alpha  occ. eigenvalues --  -10.18039 -10.18001 -10.17886 -10.17550  -1.11111
 Alpha  occ. eigenvalues --   -1.01824  -1.01047  -0.90449  -0.81260  -0.79069
 Alpha  occ. eigenvalues --   -0.76399  -0.72225  -0.67812  -0.66562  -0.62016
 Alpha  occ. eigenvalues --   -0.58836  -0.57978  -0.56474  -0.52487  -0.50092
 Alpha  occ. eigenvalues --   -0.49217  -0.48139  -0.47014  -0.46486  -0.45653
 Alpha  occ. eigenvalues --   -0.43248  -0.42959  -0.42074  -0.40674  -0.40172
 Alpha  occ. eigenvalues --   -0.39698  -0.38972  -0.38440  -0.36612  -0.36025
 Alpha  occ. eigenvalues --   -0.35396  -0.34141  -0.33439  -0.32996  -0.32818
 Alpha  occ. eigenvalues --   -0.32389  -0.31843  -0.30638  -0.28798  -0.26639
 Alpha  occ. eigenvalues --   -0.26040  -0.25727
 Alpha virt. eigenvalues --    0.03553   0.06707   0.07871   0.08651   0.08948
 Alpha virt. eigenvalues --    0.09938   0.10928   0.11480   0.11749   0.12635
 Alpha virt. eigenvalues --    0.14135   0.15041   0.15516   0.15748   0.16970

 Mulliken charges:
               1
     1  C   -0.434337
     2  C    0.290648
     3  O   -0.466480
     4  C   -0.199194
     5  C   -0.218426
     6  C   -0.180045
     7  C   -0.181482
     8  C   -0.181887
     9  C   -0.198563
    10  C   -0.056859
    11  O   -0.419113
    12  C    0.001154
    13  O   -0.199920
    14  O   -0.319020
    15  H    0.113395
    16  H    0.118358
    17  H    0.123245
    18  H    0.279195
    19  H    0.125095
    20  H    0.090621
    21  H    0.093670
    22  H    0.088288
    23  H    0.098840
    24  H    0.094552
    25  H    0.092618
    26  H    0.091589
    27  H    0.095055
    28  H    0.096493
    29  H    0.104131
    30  H    0.082550
    31  H    0.083754
    32  H    0.109874
    33  H    0.278775
    34  H    0.092966
    35  H    0.098638
    36  H    0.311824
 Sum of Mulliken charges =  -0.00000

 Dipole moment (field-independent basis, Debye):
    X=              0.8072    Y=              1.5802    Z=              0.8128  Tot=              1.9518
 Quadrupole moment (field-independent basis, Debye-Ang):
   XX=           -100.3257   YY=            -88.0666   ZZ=            -84.6554
   XY=              4.7281   XZ=             -6.8880   YZ=             -1.7004

  Exact polarizability: 163.725  -4.958 118.663  -1.653   0.457 109.734
 Approx polarizability: 181.385  -9.692 172.626  -1.299   1.706 174.642

                      1                      2                      3
                      A                      A                      A
 Frequencies --     25.4326                31.5204                39.3225
 Red. masses --      3.7313                 1.9883                 4.8415
 Frc consts  --      0.0014                 0.0012                 0.0044
 IR Inten    --      0.7359                 1.5638                 0.2515

                      4                      5                      6
                      A                      A                      A
 Frequencies --     68.9423                71.1660                87.5321
 Red. masses --      3.5135                 5.8653                 1.8021
 Frc consts  --      0.0098                 0.0175                 0.0081
 IR Inten    --      0.3852                 6.7209                 3.0294

                      7                      8                      9
                      A                      A                      A
 Frequencies --    109.2547               120.9890               132.0559
 Red. masses --      4.1898                 2.5773                 3.2662
 Frc consts  --      0.0295                 0.0222                 0.0336
 IR Inten    --      3.3892                 4.2302                 0.6976

                     10                     11                     12
                      A                      A                      A
 Frequencies --    149.8020               161.4212               169.1611
 Red. masses --      1.9105                 3.5850                 2.1612
 Frc consts  --      0.0253                 0.0550                 0.0364
 IR Inten    --      2.4399                 0.4750                 0.3289

                     13                     14                     15
                      A                      A                      A
 Frequencies --    196.5018               230.8887               236.1926
 Red. masses --      4.4216                 1.1746                 1.1306
 Frc consts  --      0.1006                 0.0369                 0.0372
 IR Inten    --      7.4549                 2.9055                61.1578

                     16                     17                     18
                      A                      A                      A
 Frequencies --    255.2155               265.3484               302.6188
 Red. masses --      1.4841                 1.5573                 1.1781
 Frc consts  --      0.0570                 0.0646                 0.0636
 IR Inten    --     27.3888               127.5090                85.1415

                     19                     20                     21
                      A                      A                      A
 Frequencies --    330.9649               344.0591               357.1166
 Red. masses --      3.1136                 3.3521                 3.6499
 Frc consts  --      0.2009                 0.2338                 0.2743
 IR Inten    --      6.8209                23.7562                 3.8055

                     22                     23                     24
                      A                      A                      A
 Frequencies --    372.2361               419.1104               460.4299
 Red. masses --      3.8128                 2.9088                 3.1292
 Frc consts  --      0.3113                 0.3010                 0.3909
 IR Inten    --      1.9843                 0.9132                 0.3520

                     25                     26                     27
                      A                      A                      A
 Frequencies --    497.9131               514.0417               613.0252
 Red. masses --      3.4419                 3.3113                 3.0903
 Frc consts  --      0.5028                 0.5155                 0.6842
 IR Inten    --      0.4750                13.6431                11.1325

                     28                     29                     30
                      A                      A                      A
 Frequencies --    733.1314               740.6846               766.2017
 Red. masses --      1.0649                 1.1020                 1.1764
 Frc consts  --      0.3372                 0.3562                 0.4069
 IR Inten    --      4.6148                 0.2079                 1.3734

                     31                     32                     33
                      A                      A                      A
 Frequencies --    790.1561               823.7038               905.6250
 Red. masses --      3.3801                 1.2677                 1.3902
 Frc consts  --      1.2434                 0.5068                 0.6718
 IR Inten    --      7.0635                 1.4328                 0.0419

                     34                     35                     36
                      A                      A                      A
 Frequencies --    918.6134               935.5186               955.9449
 Red. masses --      2.0673                 2.0805                 6.2368
 Frc consts  --      1.0278                 1.0728                 3.3580
 IR Inten    --     18.5354                 9.7843                17.9337

                     37                     38                     39
                      A                      A                      A
 Frequencies --    979.6815               991.8580              1007.1178
 Red. masses --      1.6890                 3.4745                 1.8549
 Frc consts  --      0.9551                 2.0139                 1.1085
 IR Inten    --      5.8402                16.0259                 3.4985

                     40                     41                     42
                      A                      A                      A
 Frequencies --   1017.1254              1038.1323              1049.5126
 Red. masses --      2.3224                 3.1245                 1.8043
 Frc consts  --      1.4156                 1.9840                 1.1710
 IR Inten    --      3.0281                12.9438                17.1971

                     43                     44                     45
                      A                      A                      A
 Frequencies --   1062.3655              1069.2946              1078.6548
 Red. masses --      2.4022                 2.2212                 2.8061
 Frc consts  --      1.5974                 1.4963                 1.9236
 IR Inten    --      0.5136                 6.5707                46.2465

                     46                     47                     48
                      A                      A                      A
 Frequencies --   1081.8980              1096.2970              1135.3846
 Red. masses --      4.0288                 3.1437                 1.3762
 Frc consts  --      2.7784                 2.2262                 1.0453
 IR Inten    --     76.8342                13.6710                13.9405

                     49                     50                     51
                      A                      A                      A
 Frequencies --   1143.5080              1206.0049              1210.3959
 Red. masses --      1.8596                 1.8356                 2.4648
 Frc consts  --      1.4327                 1.5730                 2.1276
 IR Inten    --     23.3728                10.7768                 9.2086

                     52                     53                     54
                      A                      A                      A
 Frequencies --   1229.7855              1247.0599              1277.7343
 Red. masses --      1.2367                 1.5848                 1.3267
 Frc consts  --      1.1020                 1.4521                 1.2761
 IR Inten    --      3.6737                 5.6420                 1.8777

                     55                     56                     57
                      A                      A                      A
 Frequencies --   1282.8860              1296.0021              1317.7837
 Red. masses --      1.3613                 1.3481                 1.1608
 Frc consts  --      1.3201                 1.3341                 1.1877
 IR Inten    --     13.8589                 9.2541                 2.3389

                     58                     59                     60
                      A                      A                      A
 Frequencies --   1325.1753              1328.7553              1335.6614
 Red. masses --      1.2481                 1.1158                 1.1070
 Frc consts  --      1.2913                 1.1607                 1.1635
 IR Inten    --     15.9050                 3.8486                 0.2329

                     61                     62                     63
                      A                      A                      A
 Frequencies --   1345.3297              1350.7596              1379.7910
 Red. masses --      1.1240                 1.3925                 1.3782
 Frc consts  --      1.1986                 1.4970                 1.5459
 IR Inten    --      1.9704                24.1069                 5.8349

                     64                     65                     66
                      A                      A                      A
 Frequencies --   1387.1493              1395.8659              1401.2048
 Red. masses --      1.1455                 1.3522                 1.5459
 Frc consts  --      1.2987                 1.5523                 1.7882
 IR Inten    --     51.5473                 6.7548                 2.5048

                     67                     68                     69
                      A                      A                      A
 Frequencies --   1403.7745              1410.2474              1417.0667
 Red. masses --      1.4909                 1.3112                 1.5638
 Frc consts  --      1.7309                 1.5364                 1.8501
 IR Inten    --      3.7234                12.9527                12.2405

                     70                     71                     72
                      A                      A                      A
 Frequencies --   1424.4383              1475.8786              1482.6601
 Red. masses --      1.2958                 1.0810                 1.0756
 Frc consts  --      1.5491                 1.3873                 1.3932
 IR Inten    --     50.8338                 0.9986                 0.1235

                     73                     74                     75
                      A                      A                      A
 Frequencies --   1483.8952              1489.1985              1494.0796
 Red. masses --      1.0722                 1.0858                 1.0672
 Frc consts  --      1.3910                 1.4187                 1.4036
 IR Inten    --      0.0998                 0.1328                 1.1103

                     76                     77                     78
                      A                      A                      A
 Frequencies --   1496.3028              1500.8215              1506.5959
 Red. masses --      1.0786                 1.0926                 1.0790
 Frc consts  --      1.4228                 1.4500                 1.4430
 IR Inten    --      5.5500                 1.4510                12.6313

                     79                     80                     81
                      A                      A                      A
 Frequencies --   1511.4395              1518.3347              2966.1245
 Red. masses --      1.0978                 1.0972                 1.0709
 Frc consts  --      1.4776                 1.4903                 5.5509
 IR Inten    --      2.0960                 1.3254                52.4688

                     82                     83                     84
                      A                      A                      A
 Frequencies --   2996.7297              2999.9883              3002.3276
 Red. masses --      1.0641                 1.0578                 1.0581
 Frc consts  --      5.6304                 5.6089                 5.6196
 IR Inten    --      9.3024                 0.7797                 4.3372

                     85                     86                     87
                      A                      A                      A
 Frequencies --   3006.1572              3006.9657              3015.1351
 Red. masses --      1.0599                 1.0562                 1.0612
 Frc consts  --      5.6433                 5.6266                 5.6838
 IR Inten    --     10.7460                22.4455                85.3096

                     88                     89                     90
                      A                      A                      A
 Frequencies --   3022.6196              3025.7723              3030.7028
 Red. masses --      1.0973                 1.0706                 1.0881
 Frc consts  --      5.9066                 5.7750                 5.8883
 IR Inten    --      1.6416                34.9305                12.6159

                     91                     92                     93
                      A                      A                      A
 Frequencies --   3036.9846              3042.7768              3052.9806
 Red. masses --      1.0501                 1.0889                 1.0941
 Frc consts  --      5.7063                 5.9400                 6.0082
 IR Inten    --      9.4166                10.1533                10.5196

                     94                     95                     96
                      A                      A                      A
 Frequencies --   3055.5229              3062.7523              3073.3940
 Red. masses --      1.1066                 1.1017                 1.1007
 Frc consts  --      6.0872                 6.0886                 6.1257
 IR Inten    --     37.0333                44.7412               116.4230

                     97                     98                     99
                      A                      A                      A
 Frequencies --   3096.2288              3105.9961              3114.6820
 Red. masses --      1.0962                 1.1006                 1.1022
 Frc consts  --      6.1915                 6.2558                 6.2999
 IR Inten    --     28.6493                28.9996                28.0166

                    100                    101                    102
                      A                      A                      A
 Frequencies --   3745.6170              3814.6079              3822.0043
 Red. masses --      1.0686                 1.0661                 1.0659
 Frc consts  --      8.8334                 9.1398                 9.1736
 IR Inten    --     32.5440                14.7343                10.1597

 - Thermochemistry -
 -------------------
 Temperature   298.150 Kelvin.  Pressure   1.00000 Atm.
 Atom     1 has atomic number  6 and mass  12.00000

 Molecular mass:   206.15181 amu.
 Principal axes and moments of inertia in atomic units:
                           1         2         3
     Eigenvalues --  1066.25380********************
           X            0.99996   0.00787  -0.00369
           Y           -0.00793   0.99983  -0.01685
           Z            0.00356   0.01688   0.99985
 This molecule is an asymmetric top.
 Rotational symmetry number  1.
 Warning -- assumption of classical behavior for rotation
           may cause significant error
 Rotational temperatures (Kelvin)      0.08123     0.00703     0.00672
 Rotational constants (GHZ):           1.69260     0.14647     0.13996
 Zero-point vibrational energy     836852.5 (Joules/Mol)
                                  200.01256 (Kcal/Mol)
 Warning -- explicit consideration of  27 degrees of freedom as
           vibrations may cause significant error
 Vibrational temperatures:     36.59    45.35    56.58    99.19   102.39
          (Kelvin)            125.94   157.19   174.08   190.00   215.53
                              232.25   243.39   282.72   332.20   339.83
                              367.20   381.78   435.40   476.18   495.02
                              513.81   535.56   603.01   662.46   716.39
                              739.59   882.01  1054.81  1065.68  1102.39
                             1136.86  1185.13  1302.99  1321.68  1346.00
                             1375.39  1409.54  1427.06  1449.02  1463.42
                             1493.64  1510.01  1528.51  1538.48  1551.94
                             1556.61  1577.33  1633.57  1645.25  1735.17
                             1741.49  1769.39  1794.24  1838.37  1845.79
                             1864.66  1896.00  1906.63  1911.78  1921.72
                             1935.63  1943.44  1985.21  1995.80  2008.34
                             2016.02  2019.72  2029.03  2038.84  2049.45
                             2123.46  2133.22  2134.99  2142.62  2149.65
                             2152.85  2159.35  2167.66  2174.62  2184.54
                             4267.59  4311.63  4316.31  4319.68  4325.19
                             4326.35  4338.11  4348.88  4353.41  4360.51
                             4369.54  4377.88  4392.56  4396.22  4406.62
                             4421.93  4454.78  4468.84  4481.33  5389.11
                             5488.37  5499.01

 Zero-point correction=                           0.318740 (Hartree/Particle)
 Thermal correction to Energy=                    0.337318
 Thermal correction to Enthalpy=                  0.338262
 Thermal correction to Gibbs Free Energy=         0.270120
 Sum of electronic and zero-point Energies=           -694.838400
 Sum of electronic and thermal Energies=              -694.819822
 Sum of electronic and thermal Enthalpies=            -694.818878
 Sum of electronic and thermal Free Energies=         -694.887020

                     E (Thermal)             CV                S
                      KCal/Mol        Cal/Mol-Kelvin    Cal/Mol-Kelvin
 Total                  211.670             65.547            143.418
 Electronic               0.000              0.000              0.000
 Translational            0.889              2.981             41.874
 Rotational               0.889              2.981             33.493
 Vibrational            209.893             59.586             68.050
 Vibration     1          0.593              1.985              6.157
 Vibration     2          0.594              1.983              5.731
 Vibration     3          0.594              1.981              5.293
 Vibration     4          0.598              1.969              4.183
 Vibration     5          0.598              1.968              4.121
 Vibration     6          0.601              1.958              3.714
 Vibration     7          0.606              1.942              3.282
 Vibration     8          0.609              1.932              3.085
 Vibration     9          0.612              1.921              2.916
 Vibration    10          0.618              1.903              2.675
 Vibration    11          0.622              1.890              2.533
 Vibration    12          0.625              1.880              2.445
 Vibration    13          0.636              1.845              2.166
 Vibration    14          0.653              1.794              1.872
 Vibration    15          0.655              1.785              1.831
 Vibration    16          0.666              1.754              1.694
 Vibration    17          0.671              1.737              1.626
 Vibration    18          0.694              1.669              1.402
 Vibration    19          0.713              1.614              1.255
 Vibration    20          0.723              1.587              1.193
 Vibration    21          0.732              1.561              1.135
 Vibration    22          0.744              1.529              1.071
 Vibration    23          0.782              1.429              0.895
 Vibration    24          0.818              1.338              0.765
 Vibration    25          0.853              1.255              0.663
 Vibration    26          0.869              1.219              0.624
 Vibration    27          0.972              1.004              0.428

                           ! Non-Optimized Parameters !
 Normal termination of Gaussian 16 at Wed May 24 02:17:09 2023.
