 Gaussian 16, Revision A.03,
 Gaussian 16:  ES64L-G16RevA.03 25-Dec-2016

 -----------------------------
 # opt freq b3lyp/6-31g(2df,p)
 -----------------------------

 -------------------
 Title Card Required
 -------------------
 Symbolic Z-matrix:
 Charge =  0 Multiplicity = 1

 SCF Done:  E(RB3LYP) =  -964.117385598     A.U. after   13 cycles
 SCF Done:  E(RB3LYP) =  -964.138124271     A.U. after   12 cycles
 SCF Done:  E(RB3LYP) =  -964.151773406     A.U. after   11 cycles
 SCF Done:  E(RB3LYP) =  -964.154389364     A.U. after   11 cycles
 SCF Done:  E(RB3LYP) =  -964.155506476     A.U. after   11 cycles
 SCF Done:  E(RB3LYP) =  -964.158230759     A.U. after   11 cycles
 SCF Done:  E(RB3LYP) =  -964.161131570     A.U. after   11 cycles
 SCF Done:  E(RB3LYP) =  -964.162579184     A.U. after   11 cycles
 SCF Done:  E(RB3LYP) =  -964.161236695     A.U. after   12 cycles
 SCF Done:  E(RB3LYP) =  -964.164012461     A.U. after   11 cycles
 SCF Done:  E(RB3LYP) =  -964.164346976     A.U. after   10 cycles
 SCF Done:  E(RB3LYP) =  -964.164355863     A.U. after    8 cycles
 SCF Done:  E(RB3LYP) =  -964.164355110     A.U. after    8 cycles
 SCF Done:  E(RB3LYP) =  -964.164359528     A.U. after    9 cycles
 SCF Done:  E(RB3LYP) =  -964.164360219     A.U. after    7 cycles
 SCF Done:  E(RB3LYP) =  -964.164360790     A.U. after    7 cycles
 SCF Done:  E(RB3LYP) =  -964.164360874     A.U. after    7 cycles
 SCF Done:  E(RB3LYP) =  -964.164360920     A.U. after    6 cycles
 SCF Done:  E(RB3LYP) =  -964.164360953     A.U. after    6 cycles
 Optimization completed.
    -- Stationary point found.
 Normal termination of Gaussian 16 at Wed May 24 18:01:00 2023.

 ----------------------------------------------------------------------
 #N Geom=AllCheck Guess=TCheck SCRF=Check GenChk RB3LYP/6-31G(2df,p) Fr
 eq
 ----------------------------------------------------------------------

 Structure from the checkpoint file:  "CCqOrCdCqCCCqCrCOrCPqCrC.chk"
 -------------------
 Title Card Required
 -------------------
 Charge =  0 Multiplicity = 1

                         Standard orientation:
 ---------------------------------------------------------------------
 Center     Atomic      Atomic             Coordinates (Angstroms)
 Number     Number       Type             X           Y           Z
 ---------------------------------------------------------------------
      1          6           0       -0.500392    4.048183   -0.650047
      2          6           0        0.004682    2.667999   -0.222760
      3          8           0        0.368435    2.681414    1.169237
      4          6           0       -1.015870    1.597014   -0.533960
      5          6           0       -0.870453    0.275476   -0.720677
      6          6           0        0.392247   -0.565319   -0.701933
      7          6           0        1.728422    0.039360   -0.251210
      8          6           0        2.811415   -1.021616    0.017484
      9          6           0        3.190338   -1.836086   -1.225995
     10          6           0        4.054107   -0.350757    0.623364
     11          8           0        5.079537   -1.268782    0.977032
     12          6           0       -2.109525   -0.555914   -0.985361
     13         15           0       -2.686611   -1.539292    0.514369
     14          6           0       -3.552604   -0.192846    1.455835
     15          6           0       -4.158250   -2.374812   -0.253915
     16          1           0        0.234107    4.814755   -0.390646
     17          1           0       -1.442342    4.290354   -0.142966
     18          1           0       -0.680922    4.083386   -1.729808
     19          1           0        0.944621    2.470360   -0.740918
     20          1           0       -0.444821    2.588205    1.677227
     21          1           0       -2.035699    1.979713   -0.600387
     22          1           0        0.503048   -0.993478   -1.708966
     23          1           0        0.171886   -1.432494   -0.061476
     24          1           0        1.571293    0.633670    0.654485
     25          1           0        2.106504    0.728153   -1.017783
     26          1           0        2.417688   -1.715606    0.778690
     27          1           0        3.483932   -1.171541   -2.048339
     28          1           0        2.363609   -2.459677   -1.577906
     29          1           0        4.040105   -2.486712   -1.004932
     30          1           0        3.758837    0.264246    1.487666
     31          1           0        4.508153    0.323651   -0.112856
     32          1           0        4.735232   -1.833136    1.676807
     33          1           0       -1.902568   -1.301526   -1.763400
     34          1           0       -2.934717    0.069885   -1.341853
     35          1           0       -2.813421    0.535499    1.799138
     36          1           0       -4.038204   -0.619618    2.338052
     37          1           0       -4.306042    0.326031    0.852524
     38          1           0       -3.818476   -3.138618   -0.959342
     39          1           0       -4.814926   -1.673665   -0.780620
     40          1           0       -4.736188   -2.877598    0.526957
 ---------------------------------------------------------------------

 SCF Done:  E(RB3LYP) =  -964.164360953     A.U. after    1 cycles

 The electronic state is 1-A.
 Alpha  occ. eigenvalues --  -77.07219 -19.13041 -19.12769 -10.22950 -10.21516
 Alpha  occ. eigenvalues --  -10.19841 -10.18795 -10.18315 -10.18300 -10.18174
 Alpha  occ. eigenvalues --  -10.17976 -10.17405 -10.17210 -10.17189 -10.16355
 Alpha  occ. eigenvalues --   -6.54163  -4.70418  -4.70409  -4.69938  -1.00907
 Alpha  occ. eigenvalues --   -1.00768  -0.82377  -0.79310  -0.75954  -0.74341
 Alpha  occ. eigenvalues --   -0.71122  -0.68985  -0.67818  -0.67033  -0.63014
 Alpha  occ. eigenvalues --   -0.60506  -0.56338  -0.54397  -0.52408  -0.48802
 Alpha  occ. eigenvalues --   -0.47701  -0.46615  -0.45716  -0.44271  -0.43476
 Alpha  occ. eigenvalues --   -0.42873  -0.42722  -0.42253  -0.41194  -0.40755
 Alpha  occ. eigenvalues --   -0.39910  -0.39353  -0.38973  -0.37876  -0.37458
 Alpha  occ. eigenvalues --   -0.36722  -0.35954  -0.35605  -0.34108  -0.33517
 Alpha  occ. eigenvalues --   -0.32869  -0.32073  -0.31690  -0.30957  -0.29789
 Alpha  occ. eigenvalues --   -0.26835  -0.25754  -0.24317  -0.22014
 Alpha virt. eigenvalues --    0.00447   0.05164   0.05675   0.07226   0.08082
 Alpha virt. eigenvalues --    0.09335   0.09736   0.10898   0.11608   0.12416
 Alpha virt. eigenvalues --    0.12719   0.13560   0.14198   0.14615   0.15132

 Mulliken charges:
               1
     1  C   -0.403636
     2  C    0.104923
     3  O   -0.429478
     4  C   -0.170847
     5  C    0.240482
     6  C   -0.292109
     7  C   -0.225096
     8  C   -0.010395
     9  C   -0.385152
    10  C   -0.068444
    11  O   -0.420054
    12  C   -0.284549
    13  P    0.050019
    14  C   -0.392909
    15  C   -0.399180
    16  H    0.121108
    17  H    0.105573
    18  H    0.115402
    19  H    0.093393
    20  H    0.272494
    21  H    0.067950
    22  H    0.111897
    23  H    0.135073
    24  H    0.130106
    25  H    0.095538
    26  H    0.061220
    27  H    0.107461
    28  H    0.108407
    29  H    0.124993
    30  H    0.090229
    31  H    0.105429
    32  H    0.279316
    33  H    0.108127
    34  H    0.103915
    35  H    0.125765
    36  H    0.128948
    37  H    0.115914
    38  H    0.129242
    39  H    0.118288
    40  H    0.130637
 Sum of Mulliken charges =  -0.00000

 Dipole moment (field-independent basis, Debye):
    X=             -3.5857    Y=             -0.0724    Z=             -0.4140  Tot=              3.6103
 Quadrupole moment (field-independent basis, Debye-Ang):
   XX=           -109.2489   YY=           -103.1561   ZZ=            -99.3830
   XY=             -0.9137   XZ=             -0.2672   YZ=             -1.3658

  Exact polarizability: 180.895   6.857 180.889  -2.768   3.199 138.178
 Approx polarizability: 231.465   5.294 260.248  -5.127   6.305 221.058

                      1                      2                      3
                      A                      A                      A
 Frequencies --     16.2722                30.9146                42.5765
 Red. masses --      3.5942                 3.0540                 3.1029
 Frc consts  --      0.0006                 0.0017                 0.0033
 IR Inten    --      0.1467                 1.3199                 0.2100

                      4                      5                      6
                      A                      A                      A
 Frequencies --     54.9773                65.7062                82.8516
 Red. masses --      3.4785                 4.4415                 3.6163
 Frc consts  --      0.0062                 0.0113                 0.0146
 IR Inten    --      0.6201                 0.6973                 0.3140

                      7                      8                      9
                      A                      A                      A
 Frequencies --     98.8707               103.5788               144.9027
 Red. masses --      3.4584                 2.5225                 2.3734
 Frc consts  --      0.0199                 0.0159                 0.0294
 IR Inten    --      1.3368                 0.3809                 5.0427

                     10                     11                     12
                      A                      A                      A
 Frequencies --    157.2622               172.1097               182.8411
 Red. masses --      2.4031                 2.4997                 1.1408
 Frc consts  --      0.0350                 0.0436                 0.0225
 IR Inten    --      0.5613                 0.0233                 0.2722

                     13                     14                     15
                      A                      A                      A
 Frequencies --    196.4391               198.3597               223.5754
 Red. masses --      2.0790                 1.2947                 1.2780
 Frc consts  --      0.0473                 0.0300                 0.0376
 IR Inten    --      0.0473                 0.1550                89.7186

                     16                     17                     18
                      A                      A                      A
 Frequencies --    232.5092               239.5304               246.4418
 Red. masses --      1.8264                 1.3897                 1.3027
 Frc consts  --      0.0582                 0.0470                 0.0466
 IR Inten    --     21.5987                 1.3717                 2.1306

                     19                     20                     21
                      A                      A                      A
 Frequencies --    261.8921               275.7273               289.5500
 Red. masses --      2.1607                 2.3218                 2.8310
 Frc consts  --      0.0873                 0.1040                 0.1398
 IR Inten    --      0.3636                 1.2989                 5.4720

                     22                     23                     24
                      A                      A                      A
 Frequencies --    314.5136               315.9495               355.2661
 Red. masses --      1.1910                 2.4097                 3.3055
 Frc consts  --      0.0694                 0.1417                 0.2458
 IR Inten    --     94.3179                 4.2021                 6.3028

                     25                     26                     27
                      A                      A                      A
 Frequencies --    413.5712               433.1178               452.1659
 Red. masses --      3.9937                 2.1257                 2.4066
 Frc consts  --      0.4025                 0.2349                 0.2899
 IR Inten    --     13.9268                 7.8344                13.0622

                     28                     29                     30
                      A                      A                      A
 Frequencies --    482.8318               533.8170               535.5937
 Red. masses --      2.5505                 2.4527                 2.5831
 Frc consts  --      0.3503                 0.4118                 0.4366
 IR Inten    --      5.4302                 3.9418                 1.2680

                     31                     32                     33
                      A                      A                      A
 Frequencies --    614.8727               650.3300               686.2360
 Red. masses --      3.6768                 3.8900                 4.0446
 Frc consts  --      0.8190                 0.9693                 1.1222
 IR Inten    --      4.9480                 2.4114                 8.2894

                     34                     35                     36
                      A                      A                      A
 Frequencies --    701.8490               786.4142               797.0279
 Red. masses --      4.3579                 1.4222                 1.3565
 Frc consts  --      1.2648                 0.5182                 0.5077
 IR Inten    --      8.5370                 0.7939                 1.5903

                     37                     38                     39
                      A                      A                      A
 Frequencies --    829.1946               833.5654               863.7131
 Red. masses --      1.2896                 2.4707                 2.5024
 Frc consts  --      0.5224                 1.0115                 1.0999
 IR Inten    --      1.4648                 2.4584                 6.3098

                     40                     41                     42
                      A                      A                      A
 Frequencies --    870.1364               880.8400               907.4472
 Red. masses --      1.3838                 2.4694                 1.4212
 Frc consts  --      0.6173                 1.1289                 0.6895
 IR Inten    --      0.6985                 7.7879                17.1270

                     43                     44                     45
                      A                      A                      A
 Frequencies --    911.4165               926.0365               943.5439
 Red. masses --      1.4241                 1.5699                 1.7524
 Frc consts  --      0.6970                 0.7932                 0.9192
 IR Inten    --     11.4839                19.3686                 6.2239

                     46                     47                     48
                      A                      A                      A
 Frequencies --    960.5696               974.4771               983.4850
 Red. masses --      1.4136                 1.5603                 1.8959
 Frc consts  --      0.7685                 0.8730                 1.0805
 IR Inten    --     34.0411                 1.5616                26.1542

                     49                     50                     51
                      A                      A                      A
 Frequencies --   1036.1573              1042.6974              1064.6498
 Red. masses --      3.3609                 2.0104                 3.0484
 Frc consts  --      2.1260                 1.2878                 2.0358
 IR Inten    --     35.4139                65.0303                82.4818

                     52                     53                     54
                      A                      A                      A
 Frequencies --   1089.6191              1107.3650              1123.5474
 Red. masses --      2.5330                 2.2101                 1.7801
 Frc consts  --      1.7719                 1.5968                 1.3240
 IR Inten    --     31.8240                 6.6026                 6.4681

                     55                     56                     57
                      A                      A                      A
 Frequencies --   1137.0512              1143.1791              1153.4029
 Red. masses --      1.5935                 1.6922                 2.1247
 Frc consts  --      1.2139                 1.3030                 1.6653
 IR Inten    --     11.0634                 2.8590                 3.3339

                     58                     59                     60
                      A                      A                      A
 Frequencies --   1198.5132              1204.5505              1221.4694
 Red. masses --      1.4983                 1.4521                 1.3815
 Frc consts  --      1.2681                 1.2413                 1.2144
 IR Inten    --      3.0986                 7.9095                 2.9018

                     61                     62                     63
                      A                      A                      A
 Frequencies --   1257.1925              1260.5847              1295.9448
 Red. masses --      1.3103                 1.3974                 1.2287
 Frc consts  --      1.2202                 1.3083                 1.2158
 IR Inten    --      8.7713                10.6393                 0.8779

                     64                     65                     66
                      A                      A                      A
 Frequencies --   1308.4297              1325.6572              1331.1669
 Red. masses --      1.2048                 1.1974                 1.2374
 Frc consts  --      1.2153                 1.2399                 1.2919
 IR Inten    --      1.5482                 1.9848                 8.5832

                     67                     68                     69
                      A                      A                      A
 Frequencies --   1336.0993              1363.4023              1378.2563
 Red. masses --      1.1595                 1.3349                 1.3390
 Frc consts  --      1.2196                 1.4620                 1.4986
 IR Inten    --      8.0747                 4.5764                 2.8802

                     70                     71                     72
                      A                      A                      A
 Frequencies --   1393.2674              1400.2584              1401.1585
 Red. masses --      1.2903                 1.3352                 1.2803
 Frc consts  --      1.4758                 1.5424                 1.4809
 IR Inten    --      0.9978                 4.7291                11.2494

                     73                     74                     75
                      A                      A                      A
 Frequencies --   1408.1805              1412.3823              1417.8409
 Red. masses --      1.2737                 1.2254                 1.3705
 Frc consts  --      1.4881                 1.4403                 1.6233
 IR Inten    --     20.1777                60.8605                13.5154

                     76                     77                     78
                      A                      A                      A
 Frequencies --   1425.4551              1457.2699              1461.2617
 Red. masses --      1.3526                 1.0871                 1.0524
 Frc consts  --      1.6193                 1.3602                 1.3240
 IR Inten    --     16.7023                 1.1526                 4.5573

                     79                     80                     81
                      A                      A                      A
 Frequencies --   1465.6580              1471.0798              1472.3633
 Red. masses --      1.0692                 1.0794                 1.0575
 Frc consts  --      1.3533                 1.3762                 1.3507
 IR Inten    --      6.1896                 1.9382                 4.9067

                     82                     83                     84
                      A                      A                      A
 Frequencies --   1476.4508              1489.2576              1492.7823
 Red. masses --      1.0512                 1.0583                 1.0510
 Frc consts  --      1.3501                 1.3829                 1.3798
 IR Inten    --     10.6689                 4.0700                 2.8525

                     85                     86                     87
                      A                      A                      A
 Frequencies --   1493.1538              1501.9450              1504.4931
 Red. masses --      1.0647                 1.0666                 1.0698
 Frc consts  --      1.3986                 1.4176                 1.4267
 IR Inten    --      5.5155                 2.9449                 1.0345

                     88                     89                     90
                      A                      A                      A
 Frequencies --   1515.4855              1706.8806              2965.0725
 Red. masses --      1.0745                 7.4188                 1.0810
 Frc consts  --      1.4539                12.7347                 5.5996
 IR Inten    --      7.5387                31.5442                20.3200

                     91                     92                     93
                      A                      A                      A
 Frequencies --   2983.5268              2993.1429              3012.1284
 Red. masses --      1.0668                 1.0598                 1.0867
 Frc consts  --      5.5949                 5.5939                 5.8093
 IR Inten    --     50.1679                11.5933                 7.7756

                     94                     95                     96
                      A                      A                      A
 Frequencies --   3019.4562              3023.4508              3024.8689
 Red. masses --      1.0580                 1.0672                 1.0356
 Frc consts  --      5.6832                 5.7478                 5.5827
 IR Inten    --     21.1592                15.6902                19.6963

                     97                     98                     99
                      A                      A                      A
 Frequencies --   3025.6559              3025.8152              3028.9505
 Red. masses --      1.0376                 1.0351                 1.0478
 Frc consts  --      5.5964                 5.5839                 5.6637
 IR Inten    --     18.8622                17.5881                29.2988

                    100                    101                    102
                      A                      A                      A
 Frequencies --   3057.6737              3072.0017              3084.2184
 Red. masses --      1.0949                 1.1042                 1.0915
 Frc consts  --      6.0314                 6.1398                 6.1171
 IR Inten    --     34.0093                13.5786                 9.2079

                    103                    104                    105
                      A                      A                      A
 Frequencies --   3086.2175              3096.1760              3099.3612
 Red. masses --      1.0977                 1.0956                 1.0878
 Frc consts  --      6.1602                 6.1882                 6.1566
 IR Inten    --      8.5614                31.5265                14.7346

                    106                    107                    108
                      A                      A                      A
 Frequencies --   3106.6770              3107.8846              3108.7320
 Red. masses --      1.1014                 1.0993                 1.0907
 Frc consts  --      6.2631                 6.2559                 6.2103
 IR Inten    --      9.0480                16.5433                46.9513

                    109                    110                    111
                      A                      A                      A
 Frequencies --   3119.5983              3121.0357              3121.8725
 Red. masses --      1.1013                 1.1006                 1.1000
 Frc consts  --      6.3145                 6.3164                 6.3166
 IR Inten    --      8.7053                19.6212                37.5539

                    112                    113                    114
                      A                      A                      A
 Frequencies --   3125.8969              3803.3236              3812.1797
 Red. masses --      1.1007                 1.0662                 1.0661
 Frc consts  --      6.3367                 9.0870                 9.1280
 IR Inten    --      6.7426                11.4318                15.5692

 - Thermochemistry -
 -------------------
 Temperature   298.150 Kelvin.  Pressure   1.00000 Atm.
 Atom     1 has atomic number  6 and mass  12.00000

 Molecular mass:   232.15922 amu.
 Principal axes and moments of inertia in atomic units:
                           1         2         3
     Eigenvalues --  3392.624106873.731219060.52874
           X            0.99996  -0.00789  -0.00347
           Y            0.00791   0.99995   0.00567
           Z            0.00342  -0.00570   0.99998
 This molecule is an asymmetric top.
 Rotational symmetry number  1.
 Warning -- assumption of classical behavior for rotation
           may cause significant error
 Rotational temperatures (Kelvin)      0.02553     0.01260     0.00956
 Rotational constants (GHZ):           0.53196     0.26256     0.19919
 Zero-point vibrational energy     927377.1 (Joules/Mol)
                                  221.64845 (Kcal/Mol)
 Warning -- explicit consideration of  31 degrees of freedom as
           vibrations may cause significant error
 Vibrational temperatures:     23.41    44.48    61.26    79.10    94.54
          (Kelvin)            119.20   142.25   149.03   208.48   226.27
                              247.63   263.07   282.63   285.40   321.68
                              334.53   344.63   354.57   376.80   396.71
                              416.60   452.51   454.58   511.15   595.04
                              623.16   650.57   694.69   768.04   770.60
                              884.66   935.68   987.34  1009.80  1131.47
                             1146.75  1193.03  1199.31  1242.69  1251.93
                             1267.33  1305.61  1311.33  1332.36  1357.55
                             1382.05  1402.06  1415.02  1490.80  1500.21
                             1531.79  1567.72  1593.25  1616.53  1635.96
                             1644.78  1659.49  1724.39  1733.08  1757.42
                             1808.82  1813.70  1864.58  1882.54  1907.33
                             1915.25  1922.35  1961.63  1983.00  2004.60
                             2014.66  2015.95  2026.06  2032.10  2039.96
                             2050.91  2096.69  2102.43  2108.75  2116.56
                             2118.40  2124.28  2142.71  2147.78  2148.32
                             2160.96  2164.63  2180.45  2455.82  4266.08
                             4292.63  4306.47  4333.78  4344.32  4350.07
                             4352.11  4353.24  4353.47  4357.98  4399.31
                             4419.93  4437.50  4440.38  4454.71  4459.29
                             4469.82  4471.55  4472.77  4488.41  4490.47
                             4491.68  4497.47  5472.13  5484.88

 Zero-point correction=                           0.353219 (Hartree/Particle)
 Thermal correction to Energy=                    0.373974
 Thermal correction to Enthalpy=                  0.374918
 Thermal correction to Gibbs Free Energy=         0.302319
 Sum of electronic and zero-point Energies=           -963.811142
 Sum of electronic and thermal Energies=              -963.790387
 Sum of electronic and thermal Enthalpies=            -963.789443
 Sum of electronic and thermal Free Energies=         -963.862042

                     E (Thermal)             CV                S
                      KCal/Mol        Cal/Mol-Kelvin    Cal/Mol-Kelvin
 Total                  234.672             74.913            152.798
 Electronic               0.000              0.000              0.000
 Translational            0.889              2.981             42.229
 Rotational               0.889              2.981             33.713
 Vibrational            232.895             68.951             76.857
 Vibration     1          0.593              1.986              7.044
 Vibration     2          0.594              1.984              5.770
 Vibration     3          0.595              1.980              5.135
 Vibration     4          0.596              1.976              4.630
 Vibration     5          0.597              1.971              4.278
 Vibration     6          0.600              1.961              3.822
 Vibration     7          0.604              1.950              3.476
 Vibration     8          0.605              1.946              3.386
 Vibration     9          0.616              1.908              2.738
 Vibration    10          0.621              1.895              2.582
 Vibration    11          0.626              1.877              2.412
 Vibration    12          0.630              1.863              2.299
 Vibration    13          0.636              1.845              2.166
 Vibration    14          0.637              1.842              2.148
 Vibration    15          0.649              1.805              1.930
 Vibration    16          0.653              1.791              1.859
 Vibration    17          0.657              1.780              1.806
 Vibration    18          0.661              1.769              1.756
 Vibration    19          0.669              1.743              1.649
 Vibration    20          0.677              1.718              1.560
 Vibration    21          0.686              1.693              1.477
 Vibration    22          0.702              1.646              1.338
 Vibration    23          0.703              1.643              1.331
 Vibration    24          0.731              1.564              1.143
 Vibration    25          0.777              1.441              0.914
 Vibration    26          0.794              1.398              0.849
 Vibration    27          0.811              1.356              0.789
 Vibration    28          0.839              1.288              0.702
 Vibration    29          0.889              1.175              0.579
 Vibration    30          0.891              1.171              0.575
 Vibration    31          0.974              1.000              0.425

                           ! Non-Optimized Parameters !
 Normal termination of Gaussian 16 at Wed May 24 21:08:18 2023.
