 Gaussian 16, Revision A.03,
 Gaussian 16:  ES64L-G16RevA.03 25-Dec-2016

 -----------------------------
 # opt freq b3lyp/6-31g(2df,p)
 -----------------------------

 -------------------
 Title Card Required
 -------------------
 Symbolic Z-matrix:
 Charge =  0 Multiplicity = 1

 SCF Done:  E(RB3LYP) =  -507.671394086     A.U. after   13 cycles
 SCF Done:  E(RB3LYP) =  -507.677442731     A.U. after   11 cycles
 SCF Done:  E(RB3LYP) =  -507.678496567     A.U. after   10 cycles
 SCF Done:  E(RB3LYP) =  -507.678976715     A.U. after   11 cycles
 SCF Done:  E(RB3LYP) =  -507.679593640     A.U. after   11 cycles
 SCF Done:  E(RB3LYP) =  -507.680499593     A.U. after   12 cycles
 SCF Done:  E(RB3LYP) =  -507.681762642     A.U. after   11 cycles
 SCF Done:  E(RB3LYP) =  -507.683547699     A.U. after   11 cycles
 SCF Done:  E(RB3LYP) =  -507.684208518     A.U. after   10 cycles
 SCF Done:  E(RB3LYP) =  -507.684530286     A.U. after   11 cycles
 SCF Done:  E(RB3LYP) =  -507.684616138     A.U. after    9 cycles
 SCF Done:  E(RB3LYP) =  -507.684667522     A.U. after    9 cycles
 SCF Done:  E(RB3LYP) =  -507.684703405     A.U. after    9 cycles
 SCF Done:  E(RB3LYP) =  -507.684705314     A.U. after    7 cycles
 SCF Done:  E(RB3LYP) =  -507.684709025     A.U. after    8 cycles
 SCF Done:  E(RB3LYP) =  -507.684711250     A.U. after    9 cycles
 SCF Done:  E(RB3LYP) =  -507.684713190     A.U. after    9 cycles
 SCF Done:  E(RB3LYP) =  -507.684713938     A.U. after    8 cycles
 Optimization completed.
    -- Stationary point found.
 Normal termination of Gaussian 16 at Tue May 23 20:18:46 2023.

 ----------------------------------------------------------------------
 #N Geom=AllCheck Guess=TCheck SCRF=Check GenChk RB3LYP/6-31G(2df,p) Fr
 eq
 ----------------------------------------------------------------------

 Structure from the checkpoint file:  "CCqOrdCCqCrCCCCqCrC.chk"
 -------------------
 Title Card Required
 -------------------
 Charge =  0 Multiplicity = 1

                         Standard orientation:
 ---------------------------------------------------------------------
 Center     Atomic      Atomic             Coordinates (Angstroms)
 Number     Number       Type             X           Y           Z
 ---------------------------------------------------------------------
      1          6           0       -4.837491   -0.911700    0.632761
      2          6           0       -3.589073   -0.431430   -0.046822
      3          8           0       -3.516802   -0.697321   -1.395371
      4          6           0       -2.590838    0.210745    0.562811
      5          6           0       -1.326297    0.703147   -0.091172
      6          6           0       -1.212855    2.232791    0.052814
      7          6           0       -0.100155   -0.034140    0.495724
      8          6           0        1.235871    0.267083   -0.195779
      9          6           0        2.390481   -0.576061    0.360496
     10          6           0        3.744298   -0.390032   -0.349712
     11          6           0        4.302908    1.031366   -0.191153
     12          6           0        4.760890   -1.424593    0.152674
     13          1           0       -5.730847   -0.453215    0.187050
     14          1           0       -4.827242   -0.667509    1.696252
     15          1           0       -4.946925   -2.000273    0.534173
     16          1           0       -4.319960   -1.148324   -1.669071
     17          1           0       -2.697264    0.393541    1.628957
     18          1           0       -1.381916    0.463487   -1.159217
     19          1           0       -1.138686    2.521493    1.108610
     20          1           0       -2.095745    2.725899   -0.364664
     21          1           0       -0.332685    2.627578   -0.463648
     22          1           0       -0.293082   -1.113068    0.441052
     23          1           0       -0.018255    0.203684    1.566654
     24          1           0        1.474135    1.331489   -0.094262
     25          1           0        1.135461    0.076309   -1.273961
     26          1           0        2.109382   -1.636538    0.301417
     27          1           0        2.517401   -0.358896    1.431572
     28          1           0        3.583718   -0.571300   -1.422925
     29          1           0        4.455947    1.273408    0.867950
     30          1           0        3.633618    1.787105   -0.612031
     31          1           0        5.270186    1.130404   -0.695283
     32          1           0        4.956187   -1.292614    1.223962
     33          1           0        5.717973   -1.330187   -0.371416
     34          1           0        4.396576   -2.446967    0.005945
 ---------------------------------------------------------------------

 SCF Done:  E(RB3LYP) =  -507.684713938     A.U. after    1 cycles

 The electronic state is 1-A.
 Alpha  occ. eigenvalues --  -19.15711 -10.22733 -10.18960 -10.17772 -10.17322
 Alpha  occ. eigenvalues --  -10.16677 -10.16613 -10.16476 -10.16398 -10.16390
 Alpha  occ. eigenvalues --  -10.16063 -10.15315  -1.04392  -0.80920  -0.79383
 Alpha  occ. eigenvalues --   -0.76179  -0.73097  -0.68356  -0.67332  -0.66127
 Alpha  occ. eigenvalues --   -0.60462  -0.56616  -0.55191  -0.54575  -0.47803
 Alpha  occ. eigenvalues --   -0.46827  -0.45939  -0.43427  -0.43269  -0.42805
 Alpha  occ. eigenvalues --   -0.42004  -0.40395  -0.39564  -0.38521  -0.37564
 Alpha  occ. eigenvalues --   -0.37200  -0.36647  -0.35304  -0.35038  -0.34845
 Alpha  occ. eigenvalues --   -0.33557  -0.32706  -0.31705  -0.30966  -0.30669
 Alpha  occ. eigenvalues --   -0.30238  -0.29317  -0.20550
 Alpha virt. eigenvalues --    0.04926   0.06619   0.08961   0.10743   0.11861
 Alpha virt. eigenvalues --    0.12387   0.13017   0.13697   0.14642   0.15649
 Alpha virt. eigenvalues --    0.15817   0.16364   0.17105   0.17264   0.17547

 Mulliken charges:
               1
     1  C   -0.495179
     2  C    0.358507
     3  O   -0.432927
     4  C   -0.162572
     5  C   -0.040871
     6  C   -0.384991
     7  C   -0.169806
     8  C   -0.200772
     9  C   -0.163679
    10  C    0.043709
    11  C   -0.379399
    12  C   -0.387609
    13  H    0.125144
    14  H    0.136470
    15  H    0.125683
    16  H    0.292099
    17  H    0.072120
    18  H    0.084839
    19  H    0.104182
    20  H    0.112227
    21  H    0.110134
    22  H    0.092217
    23  H    0.082416
    24  H    0.098811
    25  H    0.089870
    26  H    0.085838
    27  H    0.085610
    28  H    0.068007
    29  H    0.108059
    30  H    0.113481
    31  H    0.106531
    32  H    0.109085
    33  H    0.105702
    34  H    0.107064
 Sum of Mulliken charges =  -0.00000

 Dipole moment (field-independent basis, Debye):
    X=             -1.8487    Y=             -0.8446    Z=              0.1068  Tot=              2.0353
 Quadrupole moment (field-independent basis, Debye-Ang):
   XX=            -65.5232   YY=            -77.9503   ZZ=            -76.8585
   XY=              5.3633   XZ=              0.8175   YZ=              1.5082

  Exact polarizability: 164.159  10.723 114.913   2.460   2.770 107.930
 Approx polarizability: 188.018  17.233 164.459   9.529   9.584 173.427

                      1                      2                      3
                      A                      A                      A
 Frequencies --     22.4554                25.8781                55.3101
 Red. masses --      2.9373                 3.7461                 2.8885
 Frc consts  --      0.0009                 0.0015                 0.0052
 IR Inten    --      0.0286                 0.1450                 0.6017

                      4                      5                      6
                      A                      A                      A
 Frequencies --     65.0694               106.8955               113.8304
 Red. masses --      3.1679                 2.1843                 2.3554
 Frc consts  --      0.0079                 0.0147                 0.0180
 IR Inten    --      1.2487                 0.8588                 1.9300

                      7                      8                      9
                      A                      A                      A
 Frequencies --    133.4827               177.4030               202.6774
 Red. masses --      2.3460                 2.3660                 1.0722
 Frc consts  --      0.0246                 0.0439                 0.0259
 IR Inten    --      1.4068                 1.3590                21.9676

                     10                     11                     12
                      A                      A                      A
 Frequencies --    213.6085               224.2474               235.6892
 Red. masses --      1.3358                 1.0749                 1.8603
 Frc consts  --      0.0359                 0.0318                 0.0609
 IR Inten    --     49.3464                 1.1627                 0.6952

                     13                     14                     15
                      A                      A                      A
 Frequencies --    242.5729               250.2544               259.1567
 Red. masses --      1.3497                 1.8156                 1.3740
 Frc consts  --      0.0468                 0.0670                 0.0544
 IR Inten    --      1.9859                 2.6979                 0.2250

                     16                     17                     18
                      A                      A                      A
 Frequencies --    322.5958               382.1291               396.3552
 Red. masses --      2.6936                 2.2158                 2.5654
 Frc consts  --      0.1652                 0.1906                 0.2375
 IR Inten    --      0.1619                 0.1616                 0.5173

                     19                     20                     21
                      A                      A                      A
 Frequencies --    419.3067               438.2561               461.7588
 Red. masses --      2.1761                 2.4414                 2.4839
 Frc consts  --      0.2254                 0.2763                 0.3120
 IR Inten    --      0.7304                 1.8137                 0.8211

                     22                     23                     24
                      A                      A                      A
 Frequencies --    495.0914               583.3492               601.6577
 Red. masses --      2.7944                 3.1877                 3.2263
 Frc consts  --      0.4036                 0.6391                 0.6881
 IR Inten    --      1.7633                 1.0167                 0.4312

                     25                     26                     27
                      A                      A                      A
 Frequencies --    741.3486               801.4094               828.4758
 Red. masses --      1.1290                 1.9499                 1.3036
 Frc consts  --      0.3656                 0.7379                 0.5272
 IR Inten    --      2.0980                 0.6592                19.7568

                     28                     29                     30
                      A                      A                      A
 Frequencies --    839.6681               877.1259               878.3479
 Red. masses --      1.6560                 2.0461                 3.7101
 Frc consts  --      0.6879                 0.9275                 1.6864
 IR Inten    --      2.1074                 9.9827                14.5769

                     31                     32                     33
                      A                      A                      A
 Frequencies --    926.4739               942.2963               952.6784
 Red. masses --      1.2004                 1.6947                 1.7150
 Frc consts  --      0.6071                 0.8866                 0.9171
 IR Inten    --      1.2407                 3.9045                20.6610

                     34                     35                     36
                      A                      A                      A
 Frequencies --    963.9571               978.3093              1023.7302
 Red. masses --      1.4442                 1.6991                 1.9119
 Frc consts  --      0.7907                 0.9581                 1.1806
 IR Inten    --      1.7650                 3.3128                 3.2892

                     37                     38                     39
                      A                      A                      A
 Frequencies --   1037.1820              1045.9086              1057.3995
 Red. masses --      2.1456                 1.3670                 2.3099
 Frc consts  --      1.3599                 0.8811                 1.5217
 IR Inten    --      6.9020                 0.8204                 2.3789

                     40                     41                     42
                      A                      A                      A
 Frequencies --   1066.9376              1095.9351              1137.1113
 Red. masses --      1.5422                 2.5954                 2.1268
 Frc consts  --      1.0344                 1.8367                 1.6203
 IR Inten    --      1.1170                 2.3042                 8.3122

                     43                     44                     45
                      A                      A                      A
 Frequencies --   1147.2430              1178.3196              1192.9197
 Red. masses --      2.1637                 1.8916                 1.7624
 Frc consts  --      1.6779                 1.5474                 1.4777
 IR Inten    --      5.2558                 4.0337                 6.2848

                     46                     47                     48
                      A                      A                      A
 Frequencies --   1206.0467              1228.7001              1256.3972
 Red. masses --      1.8585                 1.5697                 1.2236
 Frc consts  --      1.5928                 1.3963                 1.1380
 IR Inten    --      0.9077                14.4113                14.8915

                     49                     50                     51
                      A                      A                      A
 Frequencies --   1285.2625              1305.4223              1327.5956
 Red. masses --      1.3488                 1.3124                 1.5017
 Frc consts  --      1.3127                 1.3177                 1.5594
 IR Inten    --     39.3694                13.9094                80.5069

                     52                     53                     54
                      A                      A                      A
 Frequencies --   1332.1033              1342.7185              1360.3938
 Red. masses --      1.1095                 1.4844                 1.2805
 Frc consts  --      1.1600                 1.5768                 1.3962
 IR Inten    --      3.4263                51.7178                 5.3269

                     55                     56                     57
                      A                      A                      A
 Frequencies --   1369.2062              1379.8916              1394.8594
 Red. masses --      1.3455                 1.4174                 1.5406
 Frc consts  --      1.4862                 1.5901                 1.7661
 IR Inten    --      5.9191                 0.9325                 0.5816

                     58                     59                     60
                      A                      A                      A
 Frequencies --   1399.0502              1401.8874              1406.0081
 Red. masses --      1.4046                 1.3721                 1.2332
 Frc consts  --      1.6199                 1.5888                 1.4363
 IR Inten    --      8.7625                 4.4957                 4.8552

                     61                     62                     63
                      A                      A                      A
 Frequencies --   1413.0870              1421.5290              1477.3492
 Red. masses --      1.3162                 1.2420                 1.0559
 Frc consts  --      1.5485                 1.4787                 1.3578
 IR Inten    --     11.3106                 3.2879                 3.9507

                     64                     65                     66
                      A                      A                      A
 Frequencies --   1477.6298              1480.8172              1489.0054
 Red. masses --      1.0588                 1.0827                 1.0451
 Frc consts  --      1.3621                 1.3988                 1.3653
 IR Inten    --      2.2431                 0.5702                 0.7408

                     67                     68                     69
                      A                      A                      A
 Frequencies --   1492.7296              1494.8877              1497.7056
 Red. masses --      1.0574                 1.0588                 1.0611
 Frc consts  --      1.3882                 1.3941                 1.4024
 IR Inten    --      1.5422                 1.3939                 2.1208

                     70                     71                     72
                      A                      A                      A
 Frequencies --   1501.0535              1504.9389              1506.1749
 Red. masses --      1.0523                 1.0542                 1.0854
 Frc consts  --      1.3970                 1.4067                 1.4508
 IR Inten    --      3.9735                 3.0259                 1.5609

                     73                     74                     75
                      A                      A                      A
 Frequencies --   1511.8833              1776.1676              2988.9663
 Red. masses --      1.0557                 6.5258                 1.0762
 Frc consts  --      1.4218                12.1298                 5.6649
 IR Inten    --      9.8117                59.9865                 5.3392

                     76                     77                     78
                      A                      A                      A
 Frequencies --   2996.4540              2997.7504              3007.0074
 Red. masses --      1.0648                 1.0639                 1.0408
 Frc consts  --      5.6331                 5.6330                 5.5448
 IR Inten    --      7.7131                 8.1021                50.2979

                     79                     80                     81
                      A                      A                      A
 Frequencies --   3011.3223              3020.4389              3024.5591
 Red. masses --      1.0663                 1.0360                 1.0405
 Frc consts  --      5.6971                 5.5687                 5.6080
 IR Inten    --     58.8552                33.4074                28.4395

                     82                     83                     84
                      A                      A                      A
 Frequencies --   3026.1482              3031.3330              3036.8247
 Red. masses --      1.0378                 1.0953                 1.0883
 Frc consts  --      5.5994                 5.9297                 5.9136
 IR Inten    --     26.2966                15.0234                 2.7413

                     85                     86                     87
                      A                      A                      A
 Frequencies --   3049.1438              3052.0390              3073.0270
 Red. masses --      1.0877                 1.0993                 1.0993
 Frc consts  --      5.9584                 6.0334                 6.1167
 IR Inten    --      5.1470                22.2654                68.9278

                     88                     89                     90
                      A                      A                      A
 Frequencies --   3084.0495              3090.2656              3093.3721
 Red. masses --      1.1002                 1.0998                 1.0976
 Frc consts  --      6.1653                 6.1878                 6.1881
 IR Inten    --      6.2284                68.9231                32.3009

                     91                     92                     93
                      A                      A                      A
 Frequencies --   3095.4602              3105.6176              3107.7003
 Red. masses --      1.1013                 1.0999                 1.1008
 Frc consts  --      6.2174                 6.2500                 6.2638
 IR Inten    --     48.6899                67.1027                18.7409

                     94                     95                     96
                      A                      A                      A
 Frequencies --   3132.5314              3159.3137              3845.9656
 Red. masses --      1.0955                 1.0882                 1.0665
 Frc consts  --      6.3334                 6.3996                 9.2944
 IR Inten    --      9.2659                18.1087                57.5179

 - Thermochemistry -
 -------------------
 Temperature   298.150 Kelvin.  Pressure   1.00000 Atm.
 Atom     1 has atomic number  6 and mass  12.00000

 Molecular mass:   170.16707 amu.
 Principal axes and moments of inertia in atomic units:
                           1         2         3
     Eigenvalues --   891.317396615.950877004.68948
           X            0.99999  -0.00075  -0.00478
           Y            0.00065   0.99981  -0.01926
           Z            0.00479   0.01926   0.99980
 This molecule is an asymmetric top.
 Rotational symmetry number  1.
 Warning -- assumption of classical behavior for rotation
           may cause significant error
 Rotational temperatures (Kelvin)      0.09718     0.01309     0.01237
 Rotational constants (GHZ):           2.02480     0.27279     0.25765
 Zero-point vibrational energy     814726.3 (Joules/Mol)
                                  194.72426 (Kcal/Mol)
 Warning -- explicit consideration of  24 degrees of freedom as
           vibrations may cause significant error
 Vibrational temperatures:     32.31    37.23    79.58    93.62   153.80
          (Kelvin)            163.78   192.05   255.24   291.61   307.34
                              322.64   339.10   349.01   360.06   372.87
                              464.14   549.80   570.27   603.29   630.55
                              664.37   712.33   839.31   865.65  1066.64
                             1153.05  1191.99  1208.10  1261.99  1263.75
                             1332.99  1355.75  1370.69  1386.92  1407.57
                             1472.92  1492.27  1504.83  1521.36  1535.09
                             1576.81  1636.05  1650.63  1695.34  1716.35
                             1735.23  1767.83  1807.68  1849.21  1878.21
                             1910.11  1916.60  1931.87  1957.30  1969.98
                             1985.36  2006.89  2012.92  2017.00  2022.93
                             2033.12  2045.26  2125.58  2125.98  2130.57
                             2142.35  2147.70  2150.81  2154.86  2159.68
                             2165.27  2167.05  2175.26  2555.51  4300.46
                             4311.23  4313.09  4326.41  4332.62  4345.74
                             4351.67  4353.95  4361.41  4369.31  4387.04
                             4391.20  4421.40  4437.26  4446.20  4450.67
                             4453.68  4468.29  4471.29  4507.01  4545.55
                             5533.49

 Zero-point correction=                           0.310313 (Hartree/Particle)
 Thermal correction to Energy=                    0.326376
 Thermal correction to Enthalpy=                  0.327321
 Thermal correction to Gibbs Free Energy=         0.265578
 Sum of electronic and zero-point Energies=           -507.374401
 Sum of electronic and thermal Energies=              -507.358337
 Sum of electronic and thermal Enthalpies=            -507.357393
 Sum of electronic and thermal Free Energies=         -507.419136

                     E (Thermal)             CV                S
                      KCal/Mol        Cal/Mol-Kelvin    Cal/Mol-Kelvin
 Total                  204.804             57.976            129.948
 Electronic               0.000              0.000              0.000
 Translational            0.889              2.981             41.303
 Rotational               0.889              2.981             32.091
 Vibrational            203.027             52.014             56.555
 Vibration     1          0.593              1.985              6.404
 Vibration     2          0.593              1.985              6.123
 Vibration     3          0.596              1.975              4.618
 Vibration     4          0.597              1.971              4.297
 Vibration     5          0.606              1.944              3.325
 Vibration     6          0.607              1.938              3.203
 Vibration     7          0.613              1.920              2.895
 Vibration     8          0.628              1.870              2.356
 Vibration     9          0.639              1.836              2.109
 Vibration    10          0.644              1.820              2.013
 Vibration    11          0.649              1.804              1.925
 Vibration    12          0.655              1.786              1.835
 Vibration    13          0.659              1.775              1.784
 Vibration    14          0.663              1.762              1.729
 Vibration    15          0.668              1.747              1.667
 Vibration    16          0.708              1.630              1.297
 Vibration    17          0.752              1.508              1.031
 Vibration    18          0.763              1.478              0.976
 Vibration    19          0.782              1.428              0.894
 Vibration    20          0.798              1.387              0.832
 Vibration    21          0.819              1.335              0.761
 Vibration    22          0.851              1.261              0.671
 Vibration    23          0.940              1.067              0.479
 Vibration    24          0.960              1.028              0.447

                           ! Non-Optimized Parameters !
 Normal termination of Gaussian 16 at Tue May 23 21:39:05 2023.
