 Gaussian 16, Revision A.03,
 Gaussian 16:  ES64L-G16RevA.03 25-Dec-2016

 -----------------------------
 # opt freq b3lyp/6-31g(2df,p)
 -----------------------------

 -------------------
 Title Card Required
 -------------------
 Symbolic Z-matrix:
 Charge =  0 Multiplicity = 1

 SCF Done:  E(RB3LYP) =  -665.935895959     A.U. after   14 cycles
 SCF Done:  E(RB3LYP) =  -665.939717410     A.U. after   14 cycles
 SCF Done:  E(RB3LYP) =  -665.946043078     A.U. after   11 cycles
 SCF Done:  E(RB3LYP) =  -665.953188306     A.U. after   12 cycles
 SCF Done:  E(RB3LYP) =  -665.958200088     A.U. after   13 cycles
 SCF Done:  E(RB3LYP) =  -665.961441249     A.U. after   12 cycles
 SCF Done:  E(RB3LYP) =  -665.964128225     A.U. after   12 cycles
 SCF Done:  E(RB3LYP) =  -665.964493211     A.U. after   14 cycles
 SCF Done:  E(RB3LYP) =  -665.967999171     A.U. after   13 cycles
 SCF Done:  E(RB3LYP) =  -665.970540542     A.U. after   14 cycles
 SCF Done:  E(RB3LYP) =  -665.986194177     A.U. after   12 cycles
 SCF Done:  E(RB3LYP) =  -665.986213802     A.U. after   10 cycles
 SCF Done:  E(RB3LYP) =  -665.986223523     A.U. after   10 cycles
 SCF Done:  E(RB3LYP) =  -665.986229031     A.U. after   10 cycles
 SCF Done:  E(RB3LYP) =  -665.986230971     A.U. after    9 cycles
 SCF Done:  E(RB3LYP) =  -665.986231649     A.U. after    8 cycles
 SCF Done:  E(RB3LYP) =  -665.986231992     A.U. after    7 cycles
 SCF Done:  E(RB3LYP) =  -665.986232145     A.U. after    7 cycles
 SCF Done:  E(RB3LYP) =  -665.986232207     A.U. after    7 cycles
 Optimization completed.
    -- Stationary point found.
 Normal termination of Gaussian 16 at Tue May 30 01:56:32 2023.

 ----------------------------------------------------------------------
 #N Geom=AllCheck Guess=TCheck SCRF=Check GenChk RB3LYP/6-31G(2df,p) Fr
 eq
 ----------------------------------------------------------------------

 Structure from the checkpoint file:  "CCqOrdCqCCdOrCqNOrOO.chk"
 -------------------
 Title Card Required
 -------------------
 Charge =  0 Multiplicity = 1

                         Standard orientation:
 ---------------------------------------------------------------------
 Center     Atomic      Atomic             Coordinates (Angstroms)
 Number     Number       Type             X           Y           Z
 ---------------------------------------------------------------------
      1          6           0       -2.488192    1.540648   -0.150642
      2          6           0       -1.018584    1.355966    0.092653
      3          8           0       -0.412030    2.386989    0.750602
      4          6           0       -0.281979    0.299862   -0.296915
      5          6           0       -0.866481   -0.853055   -1.100890
      6          6           0       -1.666391   -1.766704   -0.195929
      7          8           0       -2.871215   -1.834295   -0.180260
      8          6           0        1.176346    0.204132    0.054807
      9          7           0        1.481482   -1.080015    0.713765
     10          8           0        1.205586   -0.894339    2.114715
     11          8           0        1.868667    0.236428   -1.187566
     12          8           0        3.295089    0.277584   -0.879698
     13          1           0       -2.658497    2.384331   -0.831782
     14          1           0       -2.995834    1.774145    0.794611
     15          1           0       -2.962836    0.650852   -0.561350
     16          1           0       -1.079663    3.017503    1.036315
     17          1           0       -0.037955   -1.423029   -1.530635
     18          1           0       -1.511101   -0.508697   -1.913202
     19          1           0       -1.048296   -2.367004    0.508393
     20          1           0        1.494046    1.044369    0.679790
     21          1           0        2.497235   -1.158476    0.686396
     22          1           0        0.502785   -1.531045    2.281045
     23          1           0        3.612652   -0.386872   -1.506785
 ---------------------------------------------------------------------

 SCF Done:  E(RB3LYP) =  -665.986232207     A.U. after    1 cycles

 The electronic state is 1-A.
 Alpha  occ. eigenvalues --  -19.20011 -19.19838 -19.17852 -19.16061 -19.13747
 Alpha  occ. eigenvalues --  -14.36273 -10.26859 -10.25674 -10.25579 -10.19859
 Alpha  occ. eigenvalues --  -10.19271 -10.18728  -1.12089  -1.06888  -1.05183
 Alpha  occ. eigenvalues --   -1.04351  -0.92888  -0.82317  -0.80339  -0.74768
 Alpha  occ. eigenvalues --   -0.70738  -0.63150  -0.58746  -0.55262  -0.54150
 Alpha  occ. eigenvalues --   -0.51540  -0.50594  -0.49234  -0.48210  -0.45302
 Alpha  occ. eigenvalues --   -0.44868  -0.44236  -0.43521  -0.42991  -0.41169
 Alpha  occ. eigenvalues --   -0.40020  -0.38851  -0.37881  -0.37286  -0.36046
 Alpha  occ. eigenvalues --   -0.34467  -0.33072  -0.29211  -0.26172  -0.25790
 Alpha  occ. eigenvalues --   -0.24517  -0.22204
 Alpha virt. eigenvalues --   -0.02085  -0.00252   0.04361   0.05914   0.06878
 Alpha virt. eigenvalues --    0.07746   0.11598   0.12113   0.13773   0.14342
 Alpha virt. eigenvalues --    0.15450   0.16155   0.18361   0.18549   0.19816

 Mulliken charges:
               1
     1  C   -0.521102
     2  C    0.288773
     3  O   -0.411847
     4  C    0.154667
     5  C   -0.365578
     6  C    0.160246
     7  O   -0.252368
     8  C    0.093774
     9  N   -0.250340
    10  O   -0.414232
    11  O   -0.195947
    12  O   -0.329026
    13  H    0.139011
    14  H    0.133996
    15  H    0.172304
    16  H    0.300577
    17  H    0.132486
    18  H    0.118816
    19  H    0.079858
    20  H    0.108842
    21  H    0.241815
    22  H    0.299571
    23  H    0.315703
 Sum of Mulliken charges =   0.00000

 Dipole moment (field-independent basis, Debye):
    X=              0.1299    Y=              0.9084    Z=             -0.3371  Tot=              0.9776
 Quadrupole moment (field-independent basis, Debye-Ang):
   XX=            -70.7862   YY=            -63.8747   ZZ=            -68.1287
   XY=            -14.9993   XZ=             -5.6434   YZ=              2.5387

  Exact polarizability: 115.526  -9.299  96.508  -3.682   3.497  76.936
 Approx polarizability: 164.814 -11.601 143.040  -6.009  10.443 118.516

                      1                      2                      3
                      A                      A                      A
 Frequencies --     40.8081                54.7799                85.7870
 Red. masses --      5.7059                 5.3117                 7.3893
 Frc consts  --      0.0056                 0.0094                 0.0320
 IR Inten    --      0.9409                 1.3059                 4.4437

                      4                      5                      6
                      A                      A                      A
 Frequencies --     96.7118               108.8322               121.6839
 Red. masses --      4.6232                 4.2488                 4.4128
 Frc consts  --      0.0255                 0.0297                 0.0385
 IR Inten    --      6.5851                 2.9390                 3.7753

                      7                      8                      9
                      A                      A                      A
 Frequencies --    149.7173               176.3667               204.7381
 Red. masses --      2.6221                 1.3629                 4.9702
 Frc consts  --      0.0346                 0.0250                 0.1228
 IR Inten    --      7.6332                 0.3118                 4.1574

                     10                     11                     12
                      A                      A                      A
 Frequencies --    230.3626               254.7706               261.1049
 Red. masses --      1.3687                 2.1730                 1.4679
 Frc consts  --      0.0428                 0.0831                 0.0590
 IR Inten    --     54.1262                34.7125                31.8075

                     13                     14                     15
                      A                      A                      A
 Frequencies --    291.1270               300.7334               312.9016
 Red. masses --      2.2199                 1.4284                 2.0973
 Frc consts  --      0.1109                 0.0761                 0.1210
 IR Inten    --      9.7343                96.0903                88.5693

                     16                     17                     18
                      A                      A                      A
 Frequencies --    347.9673               396.1463               465.0857
 Red. masses --      4.3969                 3.8974                 3.9150
 Frc consts  --      0.3137                 0.3604                 0.4989
 IR Inten    --      6.6315                 2.1270                 4.8928

                     19                     20                     21
                      A                      A                      A
 Frequencies --    492.8846               524.3324               561.9554
 Red. masses --      2.4470                 3.6706                 4.7935
 Frc consts  --      0.3502                 0.5946                 0.8919
 IR Inten    --     18.8790                 9.2479                 2.1147

                     22                     23                     24
                      A                      A                      A
 Frequencies --    579.5614               662.5513               748.8722
 Red. masses --      4.3592                 5.2885                 2.7323
 Frc consts  --      0.8627                 1.3678                 0.9028
 IR Inten    --     12.1048                 1.1573                29.9068

                     25                     26                     27
                      A                      A                      A
 Frequencies --    874.9603               924.5750               933.2334
 Red. masses --      2.2025                 9.7735                 3.1979
 Frc consts  --      0.9934                 4.9225                 1.6409
 IR Inten    --     34.6251                11.5260                33.1547

                     28                     29                     30
                      A                      A                      A
 Frequencies --    950.9939              1025.5833              1035.8084
 Red. masses --      4.1932                 1.8800                 2.5493
 Frc consts  --      2.2344                 1.1651                 1.6115
 IR Inten    --     45.2353                15.6443                33.9769

                     31                     32                     33
                      A                      A                      A
 Frequencies --   1047.3840              1052.9391              1069.0676
 Red. masses --      3.5768                 2.0375                 1.8190
 Frc consts  --      2.3118                 1.3309                 1.2249
 IR Inten    --     32.5888                15.7111                 5.7417

                     34                     35                     36
                      A                      A                      A
 Frequencies --   1087.2068              1118.3477              1202.9306
 Red. masses --      2.2668                 2.1556                 1.3621
 Frc consts  --      1.5787                 1.5884                 1.1613
 IR Inten    --     20.4570                32.7928                21.2173

                     37                     38                     39
                      A                      A                      A
 Frequencies --   1223.6849              1274.2640              1294.0696
 Red. masses --      2.3954                 1.4907                 1.3399
 Frc consts  --      2.1133                 1.4261                 1.3220
 IR Inten    --     71.5306                27.5201                67.2419

                     40                     41                     42
                      A                      A                      A
 Frequencies --   1326.9487              1336.2863              1353.8679
 Red. masses --      1.1870                 2.4536                 1.3768
 Frc consts  --      1.2314                 2.5814                 1.4868
 IR Inten    --     36.1111               150.4307                62.7877

                     43                     44                     45
                      A                      A                      A
 Frequencies --   1381.6461              1401.8044              1417.7604
 Red. masses --      1.1632                 1.1994                 1.2865
 Frc consts  --      1.3083                 1.3887                 1.5236
 IR Inten    --     24.3664                 9.1933                 6.9329

                     46                     47                     48
                      A                      A                      A
 Frequencies --   1427.5091              1464.0666              1482.7331
 Red. masses --      1.4558                 1.0928                 1.0576
 Frc consts  --      1.7479                 1.3801                 1.3700
 IR Inten    --      3.3542                13.2021                 4.9150

                     49                     50                     51
                      A                      A                      A
 Frequencies --   1498.8446              1499.8883              1744.1992
 Red. masses --      1.0532                 1.1318                 6.5626
 Frc consts  --      1.3940                 1.5002                11.7631
 IR Inten    --      5.2386                 6.5799               120.3747

                     52                     53                     54
                      A                      A                      A
 Frequencies --   1815.3110              2883.1345              3017.4076
 Red. masses --      9.7418                 1.0825                 1.0422
 Frc consts  --     18.9143                 5.3015                 5.5906
 IR Inten    --    185.6490               115.0276                27.1525

                     55                     56                     57
                      A                      A                      A
 Frequencies --   3061.0662              3066.4174              3071.5269
 Red. masses --      1.0578                 1.0987                 1.0846
 Frc consts  --      5.8400                 6.0870                 6.0289
 IR Inten    --     13.0127                11.2781                 9.6383

                     58                     59                     60
                      A                      A                      A
 Frequencies --   3116.2250              3162.6560              3474.8927
 Red. masses --      1.1053                 1.0952                 1.0736
 Frc consts  --      6.3239                 6.4542                 7.6376
 IR Inten    --      7.0671                 0.5095                 4.9830

                     61                     62                     63
                      A                      A                      A
 Frequencies --   3772.6552              3807.2238              3836.3855
 Red. masses --      1.0682                 1.0684                 1.0664
 Frc consts  --      8.9579                 9.1243                 9.2476
 IR Inten    --     59.5188                28.2627                76.3839

 - Thermochemistry -
 -------------------
 Temperature   298.150 Kelvin.  Pressure   1.00000 Atm.
 Atom     1 has atomic number  6 and mass  12.00000

 Molecular mass:   177.06372 amu.
 Principal axes and moments of inertia in atomic units:
                           1         2         3
     Eigenvalues --  1650.268442764.678513292.85345
           X            0.99852  -0.05429   0.00236
           Y            0.05427   0.99850   0.00733
           Z           -0.00276  -0.00719   0.99997
 This molecule is an asymmetric top.
 Rotational symmetry number  1.
 Warning -- assumption of classical behavior for rotation
           may cause significant error
 Rotational temperatures (Kelvin)      0.05248     0.03133     0.02630
 Rotational constants (GHZ):           1.09360     0.65279     0.54808
 Zero-point vibrational energy     472556.6 (Joules/Mol)
                                  112.94373 (Kcal/Mol)
 Warning -- explicit consideration of  22 degrees of freedom as
           vibrations may cause significant error
 Vibrational temperatures:     58.71    78.82   123.43   139.15   156.59
          (Kelvin)            175.08   215.41   253.75   294.57   331.44
                              366.56   375.67   418.87   432.69   450.20
                              500.65   569.97   669.15   709.15   754.40
                              808.53   833.86   953.26  1077.46  1258.87
                             1330.26  1342.71  1368.27  1475.59  1490.30
                             1506.95  1514.94  1538.15  1564.25  1609.05
                             1730.75  1760.61  1833.38  1861.88  1909.18
                             1922.62  1947.91  1987.88  2016.88  2039.84
                             2053.87  2106.47  2133.32  2156.50  2158.00
                             2509.51  2611.83  4148.19  4341.38  4404.19
                             4411.89  4419.24  4483.55  4550.36  4999.60
                             5428.01  5477.75  5519.70

 Zero-point correction=                           0.179987 (Hartree/Particle)
 Thermal correction to Energy=                    0.194413
 Thermal correction to Enthalpy=                  0.195357
 Thermal correction to Gibbs Free Energy=         0.138463
 Sum of electronic and zero-point Energies=           -665.806245
 Sum of electronic and thermal Energies=              -665.791820
 Sum of electronic and thermal Enthalpies=            -665.790875
 Sum of electronic and thermal Free Energies=         -665.847769

                     E (Thermal)             CV                S
                      KCal/Mol        Cal/Mol-Kelvin    Cal/Mol-Kelvin
 Total                  121.996             50.268            119.743
 Electronic               0.000              0.000              0.000
 Translational            0.889              2.981             41.421
 Rotational               0.889              2.981             31.086
 Vibrational            120.218             44.307             47.236
 Vibration     1          0.594              1.981              5.219
 Vibration     2          0.596              1.976              4.637
 Vibration     3          0.601              1.959              3.754
 Vibration     4          0.603              1.952              3.520
 Vibration     5          0.606              1.942              3.290
 Vibration     6          0.609              1.931              3.073
 Vibration     7          0.618              1.903              2.676
 Vibration     8          0.628              1.871              2.367
 Vibration     9          0.640              1.833              2.090
 Vibration    10          0.652              1.795              1.876
 Vibration    11          0.665              1.755              1.697
 Vibration    12          0.669              1.744              1.654
 Vibration    13          0.687              1.690              1.467
 Vibration    14          0.693              1.672              1.413
 Vibration    15          0.701              1.649              1.347
 Vibration    16          0.726              1.579              1.175
 Vibration    17          0.763              1.478              0.977
 Vibration    18          0.823              1.328              0.751
 Vibration    19          0.849              1.266              0.676
 Vibration    20          0.879              1.196              0.600
 Vibration    21          0.918              1.114              0.520
 Vibration    22          0.936              1.075              0.486

 Optimization completed.
    -- Stationary point found.
 Normal termination of Gaussian 16 at Tue May 30 02:49:38 2023.
