 Gaussian 16, Revision A.03,
 Gaussian 16:  ES64L-G16RevA.03 25-Dec-2016

 -----------------------------
 # opt freq b3lyp/6-31g(2df,p)
 -----------------------------

 -------------------
 Title Card Required
 -------------------
 Symbolic Z-matrix:
 Charge =  0 Multiplicity = 1

 SCF Done:  E(RB3LYP) =  -1186.95655217     A.U. after   14 cycles
 SCF Done:  E(RB3LYP) =  -1186.98788292     A.U. after   13 cycles
 SCF Done:  E(RB3LYP) =  -1187.02002606     A.U. after   12 cycles
 SCF Done:  E(RB3LYP) =  -1187.04186554     A.U. after   12 cycles
 SCF Done:  E(RB3LYP) =  -1187.05010345     A.U. after   12 cycles
 SCF Done:  E(RB3LYP) =  -1187.05668251     A.U. after   12 cycles
 SCF Done:  E(RB3LYP) =  -1187.06149628     A.U. after   12 cycles
 SCF Done:  E(RB3LYP) =  -1187.06476900     A.U. after   12 cycles
 SCF Done:  E(RB3LYP) =  -1187.06850443     A.U. after   13 cycles
 SCF Done:  E(RB3LYP) =  -1187.07021235     A.U. after   12 cycles
 SCF Done:  E(RB3LYP) =  -1187.07352729     A.U. after   11 cycles
 SCF Done:  E(RB3LYP) =  -1187.07374059     A.U. after   12 cycles
 SCF Done:  E(RB3LYP) =  -1187.07376335     A.U. after   11 cycles
 SCF Done:  E(RB3LYP) =  -1187.07382344     A.U. after   10 cycles
 SCF Done:  E(RB3LYP) =  -1187.07382822     A.U. after    9 cycles
 SCF Done:  E(RB3LYP) =  -1187.07383540     A.U. after    9 cycles
 SCF Done:  E(RB3LYP) =  -1187.07383602     A.U. after    8 cycles
 SCF Done:  E(RB3LYP) =  -1187.07383609     A.U. after    6 cycles
 SCF Done:  E(RB3LYP) =  -1187.07383611     A.U. after    6 cycles
 Optimization completed.
    -- Stationary point found.
 Normal termination of Gaussian 16 at Sun May 28 17:58:42 2023.

 ----------------------------------------------------------------------
 #N Geom=AllCheck Guess=TCheck SCRF=Check GenChk RB3LYP/6-31G(2df,p) Fr
 eq
 ----------------------------------------------------------------------

 Structure from the checkpoint file:  "CCqSrCC1qCrCdCC2SCC21.chk"
 -------------------
 Title Card Required
 -------------------
 Charge =  0 Multiplicity = 1

                         Standard orientation:
 ---------------------------------------------------------------------
 Center     Atomic      Atomic             Coordinates (Angstroms)
 Number     Number       Type             X           Y           Z
 ---------------------------------------------------------------------
      1          6           0       -3.311258    1.002399    0.520507
      2          6           0       -2.186511   -0.001971    0.247769
      3         16           0       -2.887247   -1.630702   -0.285421
      4          6           0       -1.109610    0.531472   -0.732056
      5          6           0        0.184621    1.085818   -0.086650
      6          6           0       -0.110878    2.308795    0.809597
      7          6           0        1.184227    1.490080   -1.164649
      8          6           0        2.431235    1.091383   -0.914293
      9          6           0        2.514627    0.311007    0.362149
     10         16           0        2.869531   -1.509765    0.177914
     11          6           0        1.019517   -1.444291    0.272342
     12          6           0        1.023292    0.042333    0.720289
     13          1           0       -4.019721    0.612633    1.254954
     14          1           0       -3.863833    1.217875   -0.400523
     15          1           0       -2.909049    1.949849    0.893146
     16          1           0       -1.712413   -0.272991    1.197334
     17          1           0       -3.454218   -1.192483   -1.426677
     18          1           0       -1.556542    1.328932   -1.340685
     19          1           0       -0.834348   -0.258149   -1.433450
     20          1           0       -0.579222    3.116746    0.236830
     21          1           0        0.816411    2.701432    1.237924
     22          1           0       -0.776876    2.051129    1.639503
     23          1           0        0.880037    2.085998   -2.020024
     24          1           0        3.298938    1.299133   -1.529864
     25          1           0        3.152835    0.771314    1.120040
     26          1           0        0.602110   -2.149642    0.991562
     27          1           0        0.571783   -1.628383   -0.703446
     28          1           0        0.831997    0.111930    1.793446
 ---------------------------------------------------------------------

 SCF Done:  E(RB3LYP) =  -1187.07383611     A.U. after    1 cycles

 The electronic state is 1-A.
 Alpha  occ. eigenvalues --  -88.86742 -88.85889 -10.22970 -10.21790 -10.20925
 Alpha  occ. eigenvalues --  -10.20803 -10.20161 -10.19111 -10.18784 -10.18705
 Alpha  occ. eigenvalues --  -10.18680 -10.18364  -7.93341  -7.92223  -5.89791
 Alpha  occ. eigenvalues --   -5.89455  -5.88856  -5.88669  -5.88409  -5.87734
 Alpha  occ. eigenvalues --   -0.88122  -0.82477  -0.79236  -0.75505  -0.70374
 Alpha  occ. eigenvalues --   -0.69709  -0.67258  -0.66471  -0.61258  -0.58146
 Alpha  occ. eigenvalues --   -0.53829  -0.52732  -0.50475  -0.47252  -0.46273
 Alpha  occ. eigenvalues --   -0.44718  -0.43653  -0.41077  -0.40993  -0.39881
 Alpha  occ. eigenvalues --   -0.39312  -0.39192  -0.37794  -0.37047  -0.35965
 Alpha  occ. eigenvalues --   -0.34863  -0.33511  -0.33456  -0.32308  -0.31069
 Alpha  occ. eigenvalues --   -0.28693  -0.24951  -0.23672  -0.21573
 Alpha virt. eigenvalues --   -0.00729   0.02113   0.02656   0.06009   0.06294
 Alpha virt. eigenvalues --    0.08155   0.09404   0.10672   0.11660   0.12955
 Alpha virt. eigenvalues --    0.13880   0.14233   0.14798   0.15400   0.16575

 Mulliken charges:
               1
     1  C   -0.389072
     2  C    0.010079
     3  S   -0.293724
     4  C   -0.258041
     5  C    0.224259
     6  C   -0.427832
     7  C   -0.098684
     8  C   -0.087733
     9  C   -0.077688
    10  S   -0.187568
    11  C   -0.234259
    12  C   -0.041194
    13  H    0.133021
    14  H    0.119729
    15  H    0.121529
    16  H    0.115558
    17  H    0.153356
    18  H    0.094469
    19  H    0.121582
    20  H    0.112379
    21  H    0.118665
    22  H    0.116513
    23  H    0.094633
    24  H    0.103621
    25  H    0.105518
    26  H    0.129839
    27  H    0.142500
    28  H    0.078544
 Sum of Mulliken charges =  -0.00000

 Dipole moment (field-independent basis, Debye):
    X=             -1.2716    Y=              3.1051    Z=             -0.0676  Tot=              3.3561
 Quadrupole moment (field-independent basis, Debye-Ang):
   XX=            -94.5756   YY=            -92.5879   ZZ=            -86.0974
   XY=              1.6036   XZ=              2.0453   YZ=             -0.5763

  Exact polarizability: 161.377  -5.630 139.049   1.132  -2.927 109.567
 Approx polarizability: 228.996 -10.281 215.403   8.219  -5.925 184.952

                      1                      2                      3
                      A                      A                      A
 Frequencies --     33.6225                44.3456                71.4884
 Red. masses --      3.8419                 6.5920                 3.2427
 Frc consts  --      0.0026                 0.0076                 0.0098
 IR Inten    --      0.7736                 0.3906                 0.8525

                      4                      5                      6
                      A                      A                      A
 Frequencies --    135.5631               183.5309               203.6891
 Red. masses --      3.5906                 3.1202                 1.1729
 Frc consts  --      0.0389                 0.0619                 0.0287
 IR Inten    --      0.3648                 0.8881                11.1588

                      7                      8                      9
                      A                      A                      A
 Frequencies --    226.3136               247.5572               256.7012
 Red. masses --      2.8893                 1.3744                 2.4816
 Frc consts  --      0.0872                 0.0496                 0.0963
 IR Inten    --      1.0960                 1.4041                 0.1487

                     10                     11                     12
                      A                      A                      A
 Frequencies --    266.4871               298.0057               325.8654
 Red. masses --      1.8634                 1.2201                 2.7958
 Frc consts  --      0.0780                 0.0638                 0.1749
 IR Inten    --      0.7018                 0.0899                 2.6116

                     13                     14                     15
                      A                      A                      A
 Frequencies --    338.0396               370.9548               418.8307
 Red. masses --      3.2307                 3.2714                 1.8602
 Frc consts  --      0.2175                 0.2652                 0.1923
 IR Inten    --      0.6599                 1.4313                 0.1562

                     16                     17                     18
                      A                      A                      A
 Frequencies --    431.7126               488.7831               547.2758
 Red. masses --      3.2464                 4.6746                 2.8732
 Frc consts  --      0.3565                 0.6580                 0.5070
 IR Inten    --      0.8917                 1.4731                 0.8243

                     19                     20                     21
                      A                      A                      A
 Frequencies --    630.3899               674.2980               692.1837
 Red. masses --      4.6802                 3.3526                 3.9684
 Frc consts  --      1.0958                 0.8981                 1.1202
 IR Inten    --      4.3456                 3.2228                 0.9220

                     22                     23                     24
                      A                      A                      A
 Frequencies --    729.2210               764.4348               789.1186
 Red. masses --      2.4071                 2.5206                 2.8965
 Frc consts  --      0.7542                 0.8678                 1.0627
 IR Inten    --      3.4396                 5.5939                22.1529

                     25                     26                     27
                      A                      A                      A
 Frequencies --    837.5713               849.8722               879.8077
 Red. masses --      2.2272                 2.0534                 1.3582
 Frc consts  --      0.9206                 0.8739                 0.6194
 IR Inten    --     16.5835                 4.7810                 3.5248

                     28                     29                     30
                      A                      A                      A
 Frequencies --    893.9901               904.9260               918.3293
 Red. masses --      2.0921                 1.7997                 1.7153
 Frc consts  --      0.9851                 0.8683                 0.8523
 IR Inten    --      3.0215                 0.8470                 2.3823

                     31                     32                     33
                      A                      A                      A
 Frequencies --    951.3420               958.3095               978.2538
 Red. masses --      1.9523                 1.6844                 1.3712
 Frc consts  --      1.0410                 0.9114                 0.7731
 IR Inten    --      0.3226                 4.1907                 0.4654

                     34                     35                     36
                      A                      A                      A
 Frequencies --   1007.3550              1020.3849              1044.5037
 Red. masses --      1.8749                 2.1649                 2.0362
 Frc consts  --      1.1210                 1.3281                 1.3089
 IR Inten    --      2.2531                 6.4913                 0.4052

                     37                     38                     39
                      A                      A                      A
 Frequencies --   1070.3845              1080.7121              1118.1038
 Red. masses --      1.4168                 1.5228                 1.7663
 Frc consts  --      0.9564                 1.0479                 1.3010
 IR Inten    --      2.7348                 4.7518                 2.5614

                     40                     41                     42
                      A                      A                      A
 Frequencies --   1124.2359              1157.2185              1177.9486
 Red. masses --      1.4571                 1.8595                 1.7033
 Frc consts  --      1.0851                 1.4671                 1.3925
 IR Inten    --      8.4363                 3.2259                23.3216

                     43                     44                     45
                      A                      A                      A
 Frequencies --   1180.1986              1221.7213              1234.0205
 Red. masses --      1.6499                 1.9056                 1.6145
 Frc consts  --      1.3540                 1.6758                 1.4485
 IR Inten    --      7.5062                 2.1097                 3.3117

                     46                     47                     48
                      A                      A                      A
 Frequencies --   1248.8026              1275.6078              1278.7461
 Red. masses --      1.5224                 1.2386                 1.2920
 Frc consts  --      1.3989                 1.1874                 1.2447
 IR Inten    --      5.0771                 2.4920                10.8885

                     49                     50                     51
                      A                      A                      A
 Frequencies --   1293.2421              1321.3662              1337.2106
 Red. masses --      1.4713                 1.2956                 1.4012
 Frc consts  --      1.4498                 1.3328                 1.4762
 IR Inten    --      4.5449                 4.1391                 0.7157

                     52                     53                     54
                      A                      A                      A
 Frequencies --   1365.6285              1374.5190              1407.9145
 Red. masses --      1.3775                 1.6543                 1.2321
 Frc consts  --      1.5136                 1.8415                 1.4389
 IR Inten    --      0.6095                 2.1406                 6.3795

                     55                     56                     57
                      A                      A                      A
 Frequencies --   1412.9967              1477.6641              1487.7623
 Red. masses --      1.2206                 1.0949                 1.0520
 Frc consts  --      1.4358                 1.4086                 1.3719
 IR Inten    --      3.6703                 0.9337                 1.2951

                     58                     59                     60
                      A                      A                      A
 Frequencies --   1490.0257              1493.0381              1499.7939
 Red. masses --      1.0525                 1.0575                 1.0563
 Frc consts  --      1.3768                 1.3890                 1.3999
 IR Inten    --      3.2840                 7.8555                 2.6028

                     61                     62                     63
                      A                      A                      A
 Frequencies --   1505.5775              1669.5939              2663.3835
 Red. masses --      1.0575                 6.8436                 1.0384
 Frc consts  --      1.4123                11.2397                 4.3400
 IR Inten    --      6.4436                 0.1494                 4.3392

                     64                     65                     66
                      A                      A                      A
 Frequencies --   3020.9119              3027.7946              3036.5048
 Red. masses --      1.0692                 1.0359                 1.0384
 Frc consts  --      5.7489                 5.5953                 5.6409
 IR Inten    --     13.4567                17.7764                25.0350

                     67                     68                     69
                      A                      A                      A
 Frequencies --   3051.6027              3069.5429              3080.3134
 Red. masses --      1.0815                 1.0860                 1.0841
 Frc consts  --      5.9335                 6.0285                 6.0605
 IR Inten    --     13.2167                10.1231                25.2514

                     70                     71                     72
                      A                      A                      A
 Frequencies --   3087.8211              3096.8505              3099.5233
 Red. masses --      1.0629                 1.1008                 1.0913
 Frc consts  --      5.9710                 6.2202                 6.1768
 IR Inten    --     22.8571                16.7027                25.4776

                     73                     74                     75
                      A                      A                      A
 Frequencies --   3101.1585              3105.0140              3125.9124
 Red. masses --      1.0992                 1.1001                 1.1014
 Frc consts  --      6.2284                 6.2491                 6.3407
 IR Inten    --     37.5570                17.3128                14.6085

                     76                     77                     78
                      A                      A                      A
 Frequencies --   3145.1554              3171.8168              3205.5682
 Red. masses --      1.1085                 1.0864                 1.1016
 Frc consts  --      6.4605                 6.4395                 6.6693
 IR Inten    --      7.3610                 7.1479                16.1744

 - Thermochemistry -
 -------------------
 Temperature   298.150 Kelvin.  Pressure   1.00000 Atm.
 Atom     1 has atomic number  6 and mass  12.00000

 Molecular mass:   200.06934 amu.
 Principal axes and moments of inertia in atomic units:
                           1         2         3
     Eigenvalues --  1592.875513887.973444883.48034
           X            0.99996  -0.00833  -0.00220
           Y            0.00836   0.99989   0.01214
           Z            0.00210  -0.01216   0.99992
 This molecule is an asymmetric top.
 Rotational symmetry number  1.
 Warning -- assumption of classical behavior for rotation
           may cause significant error
 Rotational temperatures (Kelvin)      0.05438     0.02228     0.01774
 Rotational constants (GHZ):           1.13301     0.46419     0.36956
 Zero-point vibrational energy     620897.6 (Joules/Mol)
                                  148.39808 (Kcal/Mol)
 Warning -- explicit consideration of  18 degrees of freedom as
           vibrations may cause significant error
 Vibrational temperatures:     48.38    63.80   102.86   195.05   264.06
          (Kelvin)            293.06   325.61   356.18   369.34   383.42
                              428.76   468.85   486.36   533.72   602.60
                              621.14   703.25   787.41   906.99   970.16
                              995.90  1049.19  1099.85  1135.37  1205.08
                             1222.78  1265.85  1286.25  1301.99  1321.27
                             1368.77  1378.79  1407.49  1449.36  1468.11
                             1502.81  1540.04  1554.90  1608.70  1617.52
                             1664.98  1694.81  1698.04  1757.78  1775.48
                             1796.75  1835.32  1839.83  1860.69  1901.15
                             1923.95  1964.83  1977.63  2025.67  2032.99
                             2126.03  2140.56  2143.81  2148.15  2157.87
                             2166.19  2402.17  3832.01  4346.42  4356.32
                             4368.85  4390.58  4416.39  4431.88  4442.69
                             4455.68  4459.52  4461.88  4467.42  4497.49
                             4525.18  4563.54  4612.10

 Zero-point correction=                           0.236487 (Hartree/Particle)
 Thermal correction to Energy=                    0.249665
 Thermal correction to Enthalpy=                  0.250609
 Thermal correction to Gibbs Free Energy=         0.196155
 Sum of electronic and zero-point Energies=          -1186.837349
 Sum of electronic and thermal Energies=             -1186.824172
 Sum of electronic and thermal Enthalpies=           -1186.823227
 Sum of electronic and thermal Free Energies=        -1186.877681

                     E (Thermal)             CV                S
                      KCal/Mol        Cal/Mol-Kelvin    Cal/Mol-Kelvin
 Total                  156.667             50.608            114.607
 Electronic               0.000              0.000              0.000
 Translational            0.889              2.981             41.785
 Rotational               0.889              2.981             31.781
 Vibrational            154.889             44.646             41.041
 Vibration     1          0.594              1.983              5.603
 Vibration     2          0.595              1.980              5.055
 Vibration     3          0.598              1.968              4.112
 Vibration     4          0.613              1.918              2.866
 Vibration     5          0.631              1.862              2.292
 Vibration     6          0.639              1.835              2.100
 Vibration     7          0.650              1.801              1.908
 Vibration     8          0.661              1.767              1.748
 Vibration     9          0.666              1.751              1.684
 Vibration    10          0.672              1.735              1.619
 Vibration    11          0.691              1.677              1.428
 Vibration    12          0.710              1.624              1.281
 Vibration    13          0.718              1.600              1.221
 Vibration    14          0.743              1.532              1.076
 Vibration    15          0.782              1.429              0.896
 Vibration    16          0.793              1.401              0.853
 Vibration    17          0.845              1.275              0.687
 Vibration    18          0.902              1.146              0.550

 Optimization completed.
    -- Stationary point found.
 Normal termination of Gaussian 16 at Sun May 28 19:49:02 2023.
