 Gaussian 16, Revision A.03,
 Gaussian 16:  ES64L-G16RevA.03 25-Dec-2016

 -----------------------------
 # opt freq b3lyp/6-31g(2df,p)
 -----------------------------

 -------------------
 Title Card Required
 -------------------
 Symbolic Z-matrix:
 Charge =  0 Multiplicity = 1

 SCF Done:  E(RB3LYP) =  -788.881340847     A.U. after   14 cycles
 SCF Done:  E(RB3LYP) =  -788.885166182     A.U. after   12 cycles
 SCF Done:  E(RB3LYP) =  -788.887787417     A.U. after   11 cycles
 SCF Done:  E(RB3LYP) =  -788.888881454     A.U. after   11 cycles
 SCF Done:  E(RB3LYP) =  -788.889255378     A.U. after   11 cycles
 SCF Done:  E(RB3LYP) =  -788.889339762     A.U. after   10 cycles
 SCF Done:  E(RB3LYP) =  -788.889423457     A.U. after   10 cycles
 SCF Done:  E(RB3LYP) =  -788.889532106     A.U. after   11 cycles
 SCF Done:  E(RB3LYP) =  -788.889664698     A.U. after   10 cycles
 SCF Done:  E(RB3LYP) =  -788.889952972     A.U. after   11 cycles
 SCF Done:  E(RB3LYP) =  -788.890054248     A.U. after   10 cycles
 SCF Done:  E(RB3LYP) =  -788.890017624     A.U. after    9 cycles
 SCF Done:  E(RB3LYP) =  -788.890029699     A.U. after   10 cycles
 SCF Done:  E(RB3LYP) =  -788.890085656     A.U. after   10 cycles
 SCF Done:  E(RB3LYP) =  -788.890060202     A.U. after   10 cycles
 SCF Done:  E(RB3LYP) =  -788.890104510     A.U. after    9 cycles
 SCF Done:  E(RB3LYP) =  -788.890099857     A.U. after    8 cycles
 SCF Done:  E(RB3LYP) =  -788.890105623     A.U. after    8 cycles
 SCF Done:  E(RB3LYP) =  -788.890105752     A.U. after    6 cycles
 Optimization completed.
    -- Stationary point found.
 Normal termination of Gaussian 16 at Sat May 27 23:05:38 2023.

 ----------------------------------------------------------------------
 #N Geom=AllCheck Guess=TCheck SCRF=Check GenChk RB3LYP/6-31G(2df,p) Fr
 eq
 ----------------------------------------------------------------------

 Structure from the checkpoint file:  "CCqSrdC1CdCCCCC1C.chk"
 -------------------
 Title Card Required
 -------------------
 Charge =  0 Multiplicity = 1

                         Standard orientation:
 ---------------------------------------------------------------------
 Center     Atomic      Atomic             Coordinates (Angstroms)
 Number     Number       Type             X           Y           Z
 ---------------------------------------------------------------------
      1          6           0       -2.137365    1.484605    0.580399
      2          6           0       -1.503415    0.225295    0.055128
      3         16           0       -2.574049   -1.211693    0.185792
      4          6           0       -0.244127    0.042502   -0.398268
      5          6           0        0.186869   -1.298833   -0.843016
      6          6           0        1.397525   -1.848147   -0.675535
      7          6           0        2.559561   -1.297940    0.116801
      8          6           0        2.176387   -0.298474    1.222625
      9          6           0        1.786444    1.099462    0.719397
     10          6           0        0.866499    1.094488   -0.522219
     11          6           0        0.485976    2.527662   -0.932513
     12          1           0       -2.499822    1.326793    1.602085
     13          1           0       -3.008030    1.768493   -0.025414
     14          1           0       -1.451403    2.326920    0.593271
     15          1           0       -3.735510   -0.530843    0.177007
     16          1           0       -0.564077   -1.881022   -1.374334
     17          1           0        1.566497   -2.826473   -1.121037
     18          1           0        3.302270   -0.845585   -0.559891
     19          1           0        3.079801   -2.148308    0.575325
     20          1           0        3.014595   -0.199065    1.921682
     21          1           0        1.345445   -0.726696    1.794645
     22          1           0        2.691351    1.667634    0.464280
     23          1           0        1.296094    1.649079    1.533278
     24          1           0        1.477224    0.717278   -1.350195
     25          1           0        0.159599    3.144549   -0.090729
     26          1           0       -0.300876    2.536991   -1.692075
     27          1           0        1.365505    3.023625   -1.357367
 ---------------------------------------------------------------------

 SCF Done:  E(RB3LYP) =  -788.890105752     A.U. after    1 cycles

 The electronic state is 1-A.
 Alpha  occ. eigenvalues --  -88.87237 -10.21494 -10.19009 -10.18726 -10.18672
 Alpha  occ. eigenvalues --  -10.18242 -10.17876 -10.17692 -10.17652 -10.17527
 Alpha  occ. eigenvalues --  -10.17308  -7.93761  -5.90205  -5.89843  -5.89337
 Alpha  occ. eigenvalues --   -0.84467  -0.80344  -0.77229  -0.74806  -0.70626
 Alpha  occ. eigenvalues --   -0.69509  -0.65868  -0.61819  -0.58215  -0.53280
 Alpha  occ. eigenvalues --   -0.49665  -0.47398  -0.45440  -0.44608  -0.43438
 Alpha  occ. eigenvalues --   -0.42164  -0.41851  -0.40412  -0.40080  -0.39024
 Alpha  occ. eigenvalues --   -0.38798  -0.37408  -0.34489  -0.33169  -0.32859
 Alpha  occ. eigenvalues --   -0.32342  -0.31399  -0.30177  -0.28279  -0.25480
 Alpha  occ. eigenvalues --   -0.19951
 Alpha virt. eigenvalues --   -0.00924   0.02892   0.06111   0.08061   0.09199
 Alpha virt. eigenvalues --    0.10668   0.11345   0.12944   0.13609   0.14534
 Alpha virt. eigenvalues --    0.15730   0.16280   0.16635   0.17443   0.17751

 Mulliken charges:
               1
     1  C   -0.481657
     2  C    0.115017
     3  S   -0.270120
     4  C    0.162382
     5  C   -0.119140
     6  C   -0.069618
     7  C   -0.256840
     8  C   -0.206440
     9  C   -0.184624
    10  C   -0.044284
    11  C   -0.427983
    12  H    0.140087
    13  H    0.128085
    14  H    0.131021
    15  H    0.145562
    16  H    0.116097
    17  H    0.085133
    18  H    0.105656
    19  H    0.102538
    20  H    0.090008
    21  H    0.112147
    22  H    0.090590
    23  H    0.091618
    24  H    0.094355
    25  H    0.120580
    26  H    0.118138
    27  H    0.111693
 Sum of Mulliken charges =  -0.00000

 Dipole moment (field-independent basis, Debye):
    X=              0.4976    Y=              1.5598    Z=              0.0829  Tot=              1.6394
 Quadrupole moment (field-independent basis, Debye-Ang):
   XX=            -70.3810   YY=            -75.9546   ZZ=            -77.4579
   XY=             -3.8827   XZ=             -0.2366   YZ=              0.9599

  Exact polarizability: 168.230  -6.246 126.562  -5.689   3.627  92.829
 Approx polarizability: 255.994 -14.241 183.012 -16.165   6.726 148.008

                      1                      2                      3
                      A                      A                      A
 Frequencies --     69.1728                74.3490               115.3140
 Red. masses --      3.5459                 2.9424                 2.6286
 Frc consts  --      0.0100                 0.0096                 0.0206
 IR Inten    --      0.1266                 0.8353                 0.1117

                      4                      5                      6
                      A                      A                      A
 Frequencies --    141.2894               192.3805               220.6475
 Red. masses --      1.1652                 2.1256                 1.7111
 Frc consts  --      0.0137                 0.0463                 0.0491
 IR Inten    --      0.6114                 3.4213                 3.7767

                      7                      8                      9
                      A                      A                      A
 Frequencies --    240.2483               250.1105               268.3387
 Red. masses --      1.4122                 2.4040                 1.8443
 Frc consts  --      0.0480                 0.0886                 0.0782
 IR Inten    --      8.5469                 0.7789                 1.2660

                     10                     11                     12
                      A                      A                      A
 Frequencies --    288.4480               344.1487               354.4101
 Red. masses --      1.7588                 3.2837                 3.0809
 Frc consts  --      0.0862                 0.2291                 0.2280
 IR Inten    --      0.6193                 0.7071                 1.2828

                     13                     14                     15
                      A                      A                      A
 Frequencies --    371.7359               392.1231               447.6632
 Red. masses --      2.8172                 2.9366                 2.9095
 Frc consts  --      0.2294                 0.2660                 0.3435
 IR Inten    --      0.1875                 0.9606                 3.8731

                     16                     17                     18
                      A                      A                      A
 Frequencies --    505.0935               529.4191               585.0737
 Red. masses --      3.0351                 3.0229                 3.1534
 Frc consts  --      0.4562                 0.4992                 0.6360
 IR Inten    --      1.2933                 0.0835                 4.6986

                     19                     20                     21
                      A                      A                      A
 Frequencies --    601.7774               709.0197               779.8911
 Red. masses --      2.4953                 1.9314                 2.8583
 Frc consts  --      0.5324                 0.5721                 1.0243
 IR Inten    --      3.6704                 3.9211                 3.1998

                     22                     23                     24
                      A                      A                      A
 Frequencies --    782.7115               814.2154               871.0461
 Red. masses --      2.1549                 2.4869                 1.6073
 Frc consts  --      0.7778                 0.9714                 0.7185
 IR Inten    --     23.2443                 3.8879                 0.9784

                     25                     26                     27
                      A                      A                      A
 Frequencies --    885.6602               931.4734               945.2542
 Red. masses --      2.0725                 1.4105                 1.7893
 Frc consts  --      0.9578                 0.7211                 0.9420
 IR Inten    --      2.2569                 1.3003                 5.9353

                     28                     29                     30
                      A                      A                      A
 Frequencies --    982.1829               997.7294              1006.9135
 Red. masses --      1.7940                 1.3210                 1.5357
 Frc consts  --      1.0197                 0.7748                 0.9174
 IR Inten    --      1.9838                 3.2465                 1.4328

                     31                     32                     33
                      A                      A                      A
 Frequencies --   1046.6430              1051.7909              1057.3759
 Red. masses --      1.9796                 1.5837                 1.7666
 Frc consts  --      1.2777                 1.0322                 1.1637
 IR Inten    --      0.9027                 6.9734                 3.0057

                     34                     35                     36
                      A                      A                      A
 Frequencies --   1094.1512              1100.7548              1113.8766
 Red. masses --      2.0009                 2.7804                 1.8900
 Frc consts  --      1.4113                 1.9849                 1.3816
 IR Inten    --     15.8050                12.4385                 0.0661

                     37                     38                     39
                      A                      A                      A
 Frequencies --   1150.4086              1189.2741              1210.6730
 Red. masses --      2.0975                 1.3222                 2.4833
 Frc consts  --      1.6355                 1.1018                 2.1445
 IR Inten    --      8.8500                 3.3109                 6.6086

                     40                     41                     42
                      A                      A                      A
 Frequencies --   1243.5139              1275.0946              1284.7041
 Red. masses --      1.2928                 1.2128                 1.3244
 Frc consts  --      1.1779                 1.1618                 1.2878
 IR Inten    --      0.6045                 2.1642                 2.2395

                     43                     44                     45
                      A                      A                      A
 Frequencies --   1344.8264              1367.9266              1376.5391
 Red. masses --      1.2248                 1.3174                 1.5062
 Frc consts  --      1.3051                 1.4524                 1.6816
 IR Inten    --      1.5866                 1.6786                 4.8944

                     46                     47                     48
                      A                      A                      A
 Frequencies --   1382.0679              1404.2683              1404.5416
 Red. masses --      1.3552                 1.2531                 1.3404
 Frc consts  --      1.5252                 1.4559                 1.5579
 IR Inten    --      2.5692                 1.9665                10.6277

                     49                     50                     51
                      A                      A                      A
 Frequencies --   1414.7478              1422.2488              1473.6414
 Red. masses --      1.2323                 1.4634                 1.0775
 Frc consts  --      1.4532                 1.7441                 1.3787
 IR Inten    --      0.7481                 2.9354                 6.3865

                     52                     53                     54
                      A                      A                      A
 Frequencies --   1475.0402              1482.3722              1486.4011
 Red. masses --      1.0572                 1.0746                 1.0656
 Frc consts  --      1.3552                 1.3913                 1.3872
 IR Inten    --      5.6376                 2.8574                 1.1156

                     55                     56                     57
                      A                      A                      A
 Frequencies --   1494.7018              1499.3568              1517.7579
 Red. masses --      1.0959                 1.0453                 1.0528
 Frc consts  --      1.4425                 1.3845                 1.4289
 IR Inten    --      1.3661                 2.1792                 4.1297

                     58                     59                     60
                      A                      A                      A
 Frequencies --   1660.7287              1695.4799              2668.2566
 Red. masses --      7.2344                 7.0107                 1.0384
 Frc consts  --     11.7558                11.8739                 4.3557
 IR Inten    --     18.3308                 0.9823                 6.7208

                     61                     62                     63
                      A                      A                      A
 Frequencies --   2981.8328              3006.9887              3022.0327
 Red. masses --      1.0708                 1.0594                 1.0493
 Frc consts  --      5.6097                 5.6438                 5.6460
 IR Inten    --     29.3757                33.1053                36.1790

                     64                     65                     66
                      A                      A                      A
 Frequencies --   3023.9741              3028.7481              3035.6145
 Red. masses --      1.0813                 1.0749                 1.0384
 Frc consts  --      5.8255                 5.8095                 5.6376
 IR Inten    --      5.8647                 5.1892                40.6751

                     67                     68                     69
                      A                      A                      A
 Frequencies --   3041.1400              3050.3229              3073.4328
 Red. masses --      1.0794                 1.0950                 1.0943
 Frc consts  --      5.8816                 6.0030                 6.0900
 IR Inten    --     36.5198                35.2124                11.3192

                     70                     71                     72
                      A                      A                      A
 Frequencies --   3074.5129              3095.6994              3114.8894
 Red. masses --      1.1032                 1.0993                 1.1022
 Frc consts  --      6.1440                 6.2070                 6.3009
 IR Inten    --     46.3479                42.5558                22.7416

                     73                     74                     75
                      A                      A                      A
 Frequencies --   3127.9313              3150.7545              3188.3239
 Red. masses --      1.0826                 1.0935                 1.0898
 Frc consts  --      6.2407                 6.3957                 6.5272
 IR Inten    --      1.5635                26.9070                 9.0653

 - Thermochemistry -
 -------------------
 Temperature   298.150 Kelvin.  Pressure   1.00000 Atm.
 Atom     1 has atomic number  6 and mass  12.00000

 Molecular mass:   168.09727 amu.
 Principal axes and moments of inertia in atomic units:
                           1         2         3
     Eigenvalues --  1439.254872375.949853229.31828
           X            0.99890  -0.04673   0.00317
           Y            0.04672   0.99891   0.00139
           Z           -0.00323  -0.00124   0.99999
 This molecule is an asymmetric top.
 Rotational symmetry number  1.
 Warning -- assumption of classical behavior for rotation
           may cause significant error
 Rotational temperatures (Kelvin)      0.06018     0.03645     0.02682
 Rotational constants (GHZ):           1.25394     0.75959     0.55886
 Zero-point vibrational energy     616694.1 (Joules/Mol)
                                  147.39343 (Kcal/Mol)
 Warning -- explicit consideration of  19 degrees of freedom as
           vibrations may cause significant error
 Vibrational temperatures:     99.52   106.97   165.91   203.28   276.79
          (Kelvin)            317.46   345.66   359.85   386.08   415.01
                              495.15   509.92   534.85   564.18   644.09
                              726.72   761.72   841.79   865.82  1020.12
                             1122.09  1126.15  1171.47  1253.24  1274.27
                             1340.18  1360.01  1413.14  1435.51  1448.72
                             1505.89  1513.29  1521.33  1574.24  1583.74
                             1602.62  1655.18  1711.10  1741.89  1789.14
                             1834.58  1848.40  1934.91  1968.14  1980.53
                             1988.49  2020.43  2020.82  2035.51  2046.30
                             2120.24  2122.25  2132.80  2138.60  2150.54
                             2157.24  2183.72  2389.42  2439.42  3839.03
                             4290.19  4326.39  4348.03  4350.82  4357.69
                             4367.57  4375.52  4388.73  4421.98  4423.54
                             4454.02  4481.63  4500.40  4533.23  4587.29

 Zero-point correction=                           0.234886 (Hartree/Particle)
 Thermal correction to Energy=                    0.247078
 Thermal correction to Enthalpy=                  0.248022
 Thermal correction to Gibbs Free Energy=         0.197174
 Sum of electronic and zero-point Energies=           -788.655219
 Sum of electronic and thermal Energies=              -788.643027
 Sum of electronic and thermal Enthalpies=            -788.642083
 Sum of electronic and thermal Free Energies=         -788.692932

                     E (Thermal)             CV                S
                      KCal/Mol        Cal/Mol-Kelvin    Cal/Mol-Kelvin
 Total                  155.044             46.790            107.020
 Electronic               0.000              0.000              0.000
 Translational            0.889              2.981             41.266
 Rotational               0.889              2.981             30.780
 Vibrational            153.267             40.828             34.974
 Vibration     1          0.598              1.969              4.177
 Vibration     2          0.599              1.966              4.035
 Vibration     3          0.608              1.937              3.177
 Vibration     4          0.615              1.912              2.786
 Vibration     5          0.634              1.850              2.205
 Vibration     6          0.647              1.810              1.954
 Vibration     7          0.657              1.779              1.801
 Vibration     8          0.663              1.763              1.730
 Vibration     9          0.673              1.731              1.607
 Vibration    10          0.685              1.695              1.483
 Vibration    11          0.723              1.587              1.193
 Vibration    12          0.730              1.566              1.147
 Vibration    13          0.743              1.530              1.073
 Vibration    14          0.760              1.487              0.992
 Vibration    15          0.807              1.366              0.803
 Vibration    16          0.860              1.239              0.646
 Vibration    17          0.884              1.185              0.589
 Vibration    18          0.942              1.064              0.476
 Vibration    19          0.960              1.028              0.447

 Optimization completed.
    -- Stationary point found.
 Normal termination of Gaussian 16 at Sun May 28 00:12:12 2023.
