 Gaussian 16, Revision A.03,
 Gaussian 16:  ES64L-G16RevA.03 25-Dec-2016

 -----------------------------
 # opt freq b3lyp/6-31g(2df,p)
 -----------------------------

 -------------------
 Title Card Required
 -------------------
 Symbolic Z-matrix:
 Charge =  0 Multiplicity = 1

 SCF Done:  E(RB3LYP) =  -919.667484304     A.U. after   13 cycles
 SCF Done:  E(RB3LYP) =  -919.673068937     A.U. after   11 cycles
 SCF Done:  E(RB3LYP) =  -919.676236670     A.U. after   11 cycles
 SCF Done:  E(RB3LYP) =  -919.677043805     A.U. after   11 cycles
 SCF Done:  E(RB3LYP) =  -919.677336690     A.U. after   10 cycles
 SCF Done:  E(RB3LYP) =  -919.677397389     A.U. after   10 cycles
 SCF Done:  E(RB3LYP) =  -919.677512153     A.U. after    9 cycles
 SCF Done:  E(RB3LYP) =  -919.677596086     A.U. after   10 cycles
 SCF Done:  E(RB3LYP) =  -919.677640364     A.U. after   10 cycles
 SCF Done:  E(RB3LYP) =  -919.677671941     A.U. after    9 cycles
 SCF Done:  E(RB3LYP) =  -919.677696326     A.U. after    9 cycles
 SCF Done:  E(RB3LYP) =  -919.677700936     A.U. after    8 cycles
 SCF Done:  E(RB3LYP) =  -919.677702939     A.U. after    7 cycles
 SCF Done:  E(RB3LYP) =  -919.677703743     A.U. after    8 cycles
 SCF Done:  E(RB3LYP) =  -919.677703927     A.U. after    6 cycles
 SCF Done:  E(RB3LYP) =  -919.677703972     A.U. after    6 cycles
 Optimization completed.
    -- Stationary point found.
 Normal termination of Gaussian 16 at Mon May 22 16:31:31 2023.

 ----------------------------------------------------------------------
 #N Geom=AllCheck Guess=TCheck SCRF=Check GenChk RB3LYP/6-31G(2df,p) Fr
 eq
 ----------------------------------------------------------------------

 Structure from the checkpoint file:  "CCSCCCqOrqONrCqCrC.chk"
 -------------------
 Title Card Required
 -------------------
 Charge =  0 Multiplicity = 1

                         Standard orientation:
 ---------------------------------------------------------------------
 Center     Atomic      Atomic             Coordinates (Angstroms)
 Number     Number       Type             X           Y           Z
 ---------------------------------------------------------------------
      1          6           0        5.249231   -0.151077    0.077498
      2          6           0        3.853654    0.459756    0.191497
      3         16           0        2.580589   -0.785397   -0.230865
      4          6           0        1.071283    0.221940    0.004469
      5          6           0       -0.167387   -0.623782   -0.293549
      6          6           0       -1.504321    0.075302    0.034076
      7          8           0       -1.612894    0.350931    1.395007
      8          8           0       -1.587848    1.312651   -0.752893
      9          7           0       -1.164030    2.441849    0.007552
     10          6           0       -2.727113   -0.752272   -0.427592
     11          6           0       -2.747114   -2.152825    0.204023
     12          6           0       -4.036464   -0.009851   -0.127473
     13          1           0        6.010010    0.594259    0.330441
     14          1           0        5.444440   -0.503646   -0.939541
     15          1           0        5.365626   -0.999360    0.758315
     16          1           0        3.750395    1.312552   -0.487724
     17          1           0        3.670590    0.815371    1.210715
     18          1           0        1.127475    1.082661   -0.668680
     19          1           0        1.046860    0.582925    1.036734
     20          1           0       -0.117029   -1.539626    0.301937
     21          1           0       -0.169094   -0.915672   -1.349317
     22          1           0       -1.278544    1.262210    1.486188
     23          1           0       -1.933842    3.103375   -0.073729
     24          1           0       -0.379417    2.836491   -0.508473
     25          1           0       -2.628401   -0.856481   -1.515943
     26          1           0       -2.720278   -2.081903    1.295846
     27          1           0       -1.906610   -2.772096   -0.119535
     28          1           0       -3.666105   -2.676298   -0.077206
     29          1           0       -4.157704    0.131043    0.950067
     30          1           0       -4.890719   -0.585496   -0.497100
     31          1           0       -4.053550    0.971298   -0.606629
 ---------------------------------------------------------------------

 SCF Done:  E(RB3LYP) =  -919.677703972     A.U. after    1 cycles

 The electronic state is 1-A.
 Alpha  occ. eigenvalues --  -88.85630 -19.16920 -19.12806 -14.38760 -10.27514
 Alpha  occ. eigenvalues --  -10.20987 -10.20661 -10.18196 -10.18104 -10.17849
 Alpha  occ. eigenvalues --  -10.16567 -10.15999  -7.91965  -5.88444  -5.88118
 Alpha  occ. eigenvalues --   -5.87478  -1.08256  -1.00496  -0.83920  -0.80611
 Alpha  occ. eigenvalues --   -0.77963  -0.76443  -0.69829  -0.67131  -0.64183
 Alpha  occ. eigenvalues --   -0.59728  -0.57419  -0.55052  -0.52915  -0.52038
 Alpha  occ. eigenvalues --   -0.48015  -0.46163  -0.45440  -0.44464  -0.43801
 Alpha  occ. eigenvalues --   -0.43197  -0.42219  -0.38964  -0.38274  -0.37320
 Alpha  occ. eigenvalues --   -0.36867  -0.36450  -0.35422  -0.34580  -0.34445
 Alpha  occ. eigenvalues --   -0.32891  -0.32704  -0.32109  -0.30083  -0.28850
 Alpha  occ. eigenvalues --   -0.27712  -0.25114  -0.21271
 Alpha virt. eigenvalues --    0.03615   0.05779   0.08320   0.09144   0.09969
 Alpha virt. eigenvalues --    0.10440   0.11531   0.12989   0.13877   0.14477
 Alpha virt. eigenvalues --    0.14517   0.15089   0.15902   0.16814   0.17149

 Mulliken charges:
               1
     1  C   -0.384978
     2  C   -0.166998
     3  S   -0.152524
     4  C   -0.209490
     5  C   -0.212626
     6  C    0.441279
     7  O   -0.461397
     8  O   -0.327944
     9  N   -0.418843
    10  C    0.029955
    11  C   -0.406984
    12  C   -0.400475
    13  H    0.117218
    14  H    0.134163
    15  H    0.135293
    16  H    0.115021
    17  H    0.119631
    18  H    0.108332
    19  H    0.122135
    20  H    0.127436
    21  H    0.109835
    22  H    0.292332
    23  H    0.262663
    24  H    0.255588
    25  H    0.076766
    26  H    0.133939
    27  H    0.115990
    28  H    0.108098
    29  H    0.124673
    30  H    0.102464
    31  H    0.109450
 Sum of Mulliken charges =  -0.00000

 Dipole moment (field-independent basis, Debye):
    X=              0.4416    Y=              3.2854    Z=             -0.4209  Tot=              3.3416
 Quadrupole moment (field-independent basis, Debye-Ang):
   XX=            -80.2457   YY=            -74.3341   ZZ=            -86.1810
   XY=              2.8917   XZ=              2.8268   YZ=              0.1604

  Exact polarizability: 158.653   4.067 120.855   1.274   1.429  95.917
 Approx polarizability: 185.231   4.531 177.703   1.077   2.981 158.699

                      1                      2                      3
                      A                      A                      A
 Frequencies --     27.6237                45.6202                54.0986
 Red. masses --      3.7858                 2.1002                 3.3961
 Frc consts  --      0.0017                 0.0026                 0.0059
 IR Inten    --      1.1511                 1.1608                 2.2102

                      4                      5                      6
                      A                      A                      A
 Frequencies --     66.9196                75.7788                91.1054
 Red. masses --      2.7350                 3.7446                 3.5945
 Frc consts  --      0.0072                 0.0127                 0.0176
 IR Inten    --      0.1402                 5.7690                 0.6480

                      7                      8                      9
                      A                      A                      A
 Frequencies --    112.8163               154.5533               189.9538
 Red. masses --      2.0367                 4.1485                 2.9857
 Frc consts  --      0.0153                 0.0584                 0.0635
 IR Inten    --      0.6411                 0.1711                 0.0336

                     10                     11                     12
                      A                      A                      A
 Frequencies --    204.1073               224.4155               238.4400
 Red. masses --      1.2165                 1.4224                 1.1831
 Frc consts  --      0.0299                 0.0422                 0.0396
 IR Inten    --      0.1518                 1.8473                 4.0477

                     13                     14                     15
                      A                      A                      A
 Frequencies --    239.6919               265.5701               292.9939
 Red. masses --      1.1465                 2.3031                 2.9001
 Frc consts  --      0.0388                 0.0957                 0.1467
 IR Inten    --      3.6362                 4.6269                10.2183

                     16                     17                     18
                      A                      A                      A
 Frequencies --    333.0020               349.9901               373.1553
 Red. masses --      3.1993                 3.1861                 2.5564
 Frc consts  --      0.2090                 0.2299                 0.2097
 IR Inten    --      1.3267                 2.2849                 0.2529

                     19                     20                     21
                      A                      A                      A
 Frequencies --    381.6399               411.9872               467.3157
 Red. masses --      3.4063                 3.7542                 2.9218
 Frc consts  --      0.2923                 0.3754                 0.3759
 IR Inten    --      1.7189                 1.1814                 2.8332

                     22                     23                     24
                      A                      A                      A
 Frequencies --    583.3975               601.4868               638.4377
 Red. masses --      1.6186                 3.8200                 1.6788
 Frc consts  --      0.3246                 0.8143                 0.4032
 IR Inten    --     60.0249                41.1656                28.8407

                     25                     26                     27
                      A                      A                      A
 Frequencies --    688.7659               743.2983               769.1727
 Red. masses --      4.2212                 4.2883                 1.5567
 Frc consts  --      1.1799                 1.3959                 0.5426
 IR Inten    --      1.4552                10.4847                 1.4460

                     28                     29                     30
                      A                      A                      A
 Frequencies --    788.5053               796.3550               868.8502
 Red. masses --      1.5366                 1.7031                 2.9341
 Frc consts  --      0.5629                 0.6364                 1.3050
 IR Inten    --      4.0385                12.8458                 1.7209

                     31                     32                     33
                      A                      A                      A
 Frequencies --    909.1795               931.3622               946.5752
 Red. masses --      2.5201                 1.2006                 4.5131
 Frc consts  --      1.2274                 0.6136                 2.3825
 IR Inten    --     20.5157                 4.0642                 4.8549

                     34                     35                     36
                      A                      A                      A
 Frequencies --    968.4677               992.6525               998.1903
 Red. masses --      1.4426                 1.9547                 2.0225
 Frc consts  --      0.7972                 1.1348                 1.1873
 IR Inten    --      0.8623                 3.9781                19.0455

                     37                     38                     39
                      A                      A                      A
 Frequencies --   1023.4467              1042.9958              1056.4966
 Red. masses --      2.3104                 1.2990                 1.6256
 Frc consts  --      1.4258                 0.8326                 1.0690
 IR Inten    --     16.5385                 4.2294                36.3156

                     40                     41                     42
                      A                      A                      A
 Frequencies --   1072.6769              1099.9705              1139.3207
 Red. masses --      2.0013                 2.6810                 1.3655
 Frc consts  --      1.3568                 1.9112                 1.0443
 IR Inten    --      6.3422                30.5944                 1.9456

                     43                     44                     45
                      A                      A                      A
 Frequencies --   1162.4008              1199.4614              1207.0004
 Red. masses --      1.9343                 1.7574                 1.6936
 Frc consts  --      1.5398                 1.4897                 1.4537
 IR Inten    --     33.3573                14.8954                64.5496

                     46                     47                     48
                      A                      A                      A
 Frequencies --   1235.2952              1251.2694              1263.6853
 Red. masses --      1.7058                 1.6334                 1.2482
 Frc consts  --      1.5336                 1.5067                 1.1744
 IR Inten    --     19.5213                51.8662                 0.7871

                     49                     50                     51
                      A                      A                      A
 Frequencies --   1298.0641              1310.6353              1318.6819
 Red. masses --      1.3186                 1.1221                 1.2254
 Frc consts  --      1.3090                 1.1356                 1.2555
 IR Inten    --     38.5721                 2.9107                12.0623

                     52                     53                     54
                      A                      A                      A
 Frequencies --   1339.8947              1355.2643              1372.6664
 Red. masses --      1.3806                 1.4875                 1.3885
 Frc consts  --      1.4604                 1.6097                 1.5415
 IR Inten    --      3.0718                26.4888                 7.0508

                     55                     56                     57
                      A                      A                      A
 Frequencies --   1391.2977              1410.8271              1411.9047
 Red. masses --      1.2702                 1.2265                 1.2702
 Frc consts  --      1.4487                 1.4384                 1.4919
 IR Inten    --      7.6415                 1.1524                 7.7810

                     58                     59                     60
                      A                      A                      A
 Frequencies --   1429.6190              1472.3645              1482.2452
 Red. masses --      1.4730                 1.0836                 1.0923
 Frc consts  --      1.7737                 1.3840                 1.4139
 IR Inten    --     83.5329                 8.6076                 4.0224

                     61                     62                     63
                      A                      A                      A
 Frequencies --   1486.9093              1487.8150              1492.2807
 Red. masses --      1.0606                 1.0756                 1.0375
 Frc consts  --      1.3816                 1.4028                 1.3613
 IR Inten    --      1.6452                 1.4351                 5.7418

                     64                     65                     66
                      A                      A                      A
 Frequencies --   1496.0079              1503.9986              1505.2738
 Red. masses --      1.0460                 1.0518                 1.0479
 Frc consts  --      1.3793                 1.4017                 1.3989
 IR Inten    --      0.4134                 1.3403                 4.1452

                     67                     68                     69
                      A                      A                      A
 Frequencies --   1520.4518              1653.5375              3023.3462
 Red. masses --      1.0602                 1.0653                 1.0825
 Frc consts  --      1.4440                 1.7161                 5.8300
 IR Inten    --      9.5965                30.0752                15.1535

                     70                     71                     72
                      A                      A                      A
 Frequencies --   3032.3520              3037.7888              3039.7656
 Red. masses --      1.0562                 1.0546                 1.0353
 Frc consts  --      5.7221                 5.7340                 5.6363
 IR Inten    --     26.8031                26.5889                14.3960

                     73                     74                     75
                      A                      A                      A
 Frequencies --   3039.8309              3045.9989              3049.8386
 Red. masses --      1.0356                 1.0361                 1.0606
 Frc consts  --      5.6383                 5.6639                 5.8123
 IR Inten    --     27.0178                26.4533                25.1212

                     76                     77                     78
                      A                      A                      A
 Frequencies --   3074.8215              3086.0579              3104.0736
 Red. masses --      1.1072                 1.1031                 1.1034
 Frc consts  --      6.1677                 6.1898                 6.2642
 IR Inten    --     10.9987                 1.8398                19.5223

                     79                     80                     81
                      A                      A                      A
 Frequencies --   3108.4630              3108.5288              3113.5312
 Red. masses --      1.1016                 1.1025                 1.1003
 Frc consts  --      6.2713                 6.2768                 6.2843
 IR Inten    --     21.6654                21.7250                42.6575

                     82                     83                     84
                      A                      A                      A
 Frequencies --   3118.9051              3119.4077              3129.2075
 Red. masses --      1.1031                 1.1014                 1.1013
 Frc consts  --      6.3222                 6.3143                 6.3537
 IR Inten    --     19.0814                27.3842                23.7917

                     85                     86                     87
                      A                      A                      A
 Frequencies --   3444.3824              3529.2343              3595.5355
 Red. masses --      1.0469                 1.0972                 1.0637
 Frc consts  --      7.3177                 8.0522                 8.1020
 IR Inten    --      0.7228                 2.0519               156.9881

 - Thermochemistry -
 -------------------
 Temperature   298.150 Kelvin.  Pressure   1.00000 Atm.
 Atom     1 has atomic number  6 and mass  12.00000

 Molecular mass:   193.11365 amu.
 Principal axes and moments of inertia in atomic units:
                           1         2         3
     Eigenvalues --  1120.423335433.158006116.91452
           X            0.99988   0.01494   0.00313
           Y           -0.01495   0.99989   0.00071
           Z           -0.00312  -0.00076   0.99999
 This molecule is an asymmetric top.
 Rotational symmetry number  1.
 Warning -- assumption of classical behavior for rotation
           may cause significant error
 Rotational temperatures (Kelvin)      0.07730     0.01594     0.01416
 Rotational constants (GHZ):           1.61077     0.33217     0.29504
 Zero-point vibrational energy     712497.6 (Joules/Mol)
                                  170.29102 (Kcal/Mol)
 Warning -- explicit consideration of  23 degrees of freedom as
           vibrations may cause significant error
 Vibrational temperatures:     39.74    65.64    77.84    96.28   109.03
          (Kelvin)            131.08   162.32   222.37   273.30   293.66
                              322.88   343.06   344.86   382.10   421.55
                              479.12   503.56   536.89   549.09   592.76
                              672.36   839.38   865.41   918.57   990.98
                             1069.44  1106.67  1134.48  1145.78  1250.08
                             1308.11  1340.02  1361.91  1393.41  1428.21
                             1436.17  1472.51  1500.64  1520.06  1543.34
                             1582.61  1639.23  1672.44  1725.76  1736.60
                             1777.31  1800.30  1818.16  1867.62  1885.71
                             1897.29  1927.81  1949.92  1974.96  2001.77
                             2029.87  2031.42  2056.90  2118.40  2132.62
                             2139.33  2140.63  2147.06  2152.42  2163.92
                             2165.75  2187.59  2379.07  4349.92  4362.88
                             4370.70  4373.54  4373.64  4382.51  4388.04
                             4423.98  4440.15  4466.07  4472.38  4472.48
                             4479.68  4487.41  4488.13  4502.23  4955.70
                             5077.78  5173.17

 Zero-point correction=                           0.271376 (Hartree/Particle)
 Thermal correction to Energy=                    0.287598
 Thermal correction to Enthalpy=                  0.288543
 Thermal correction to Gibbs Free Energy=         0.226528
 Sum of electronic and zero-point Energies=           -919.406328
 Sum of electronic and thermal Energies=              -919.390106
 Sum of electronic and thermal Enthalpies=            -919.389161
 Sum of electronic and thermal Free Energies=         -919.451176

                     E (Thermal)             CV                S
                      KCal/Mol        Cal/Mol-Kelvin    Cal/Mol-Kelvin
 Total                  180.471             57.815            130.520
 Electronic               0.000              0.000              0.000
 Translational            0.889              2.981             41.680
 Rotational               0.889              2.981             31.988
 Vibrational            178.693             51.853             56.853
 Vibration     1          0.593              1.984              5.993
 Vibration     2          0.595              1.979              4.999
 Vibration     3          0.596              1.976              4.662
 Vibration     4          0.598              1.970              4.242
 Vibration     5          0.599              1.965              3.997
 Vibration     6          0.602              1.956              3.636
 Vibration     7          0.607              1.939              3.220
 Vibration     8          0.620              1.898              2.615
 Vibration     9          0.633              1.854              2.228
 Vibration    10          0.640              1.834              2.096
 Vibration    11          0.649              1.804              1.923
 Vibration    12          0.656              1.782              1.814
 Vibration    13          0.657              1.780              1.805
 Vibration    14          0.671              1.736              1.625
 Vibration    15          0.688              1.687              1.457
 Vibration    16          0.715              1.610              1.245
 Vibration    17          0.727              1.575              1.166
 Vibration    18          0.745              1.527              1.067
 Vibration    19          0.751              1.509              1.033
 Vibration    20          0.776              1.444              0.920
 Vibration    21          0.825              1.323              0.745
 Vibration    22          0.940              1.067              0.479
 Vibration    23          0.960              1.029              0.447

 Optimization completed.
    -- Stationary point found.
 Normal termination of Gaussian 16 at Mon May 22 17:48:44 2023.
