 Gaussian 16, Revision A.03,
 Gaussian 16:  ES64L-G16RevA.03 25-Dec-2016

 -----------------------------
 # opt freq b3lyp/6-31g(2df,p)
 -----------------------------

 -------------------
 Title Card Required
 -------------------
 Symbolic Z-matrix:
 Charge =  0 Multiplicity = 1

 SCF Done:  E(RB3LYP) =  -924.054990778     A.U. after   13 cycles
 SCF Done:  E(RB3LYP) =  -924.064975822     A.U. after   12 cycles
 SCF Done:  E(RB3LYP) =  -924.071731605     A.U. after   12 cycles
 SCF Done:  E(RB3LYP) =  -924.076640900     A.U. after   12 cycles
 SCF Done:  E(RB3LYP) =  -924.080302651     A.U. after   12 cycles
 SCF Done:  E(RB3LYP) =  -924.082089549     A.U. after   12 cycles
 SCF Done:  E(RB3LYP) =  -924.083212347     A.U. after   11 cycles
 SCF Done:  E(RB3LYP) =  -924.083789704     A.U. after   11 cycles
 SCF Done:  E(RB3LYP) =  -924.084009487     A.U. after   11 cycles
 SCF Done:  E(RB3LYP) =  -924.084072442     A.U. after   10 cycles
 SCF Done:  E(RB3LYP) =  -924.084115173     A.U. after    9 cycles
 SCF Done:  E(RB3LYP) =  -924.084136760     A.U. after    9 cycles
 SCF Done:  E(RB3LYP) =  -924.084150409     A.U. after    9 cycles
 SCF Done:  E(RB3LYP) =  -924.084171328     A.U. after   10 cycles
 SCF Done:  E(RB3LYP) =  -924.084185906     A.U. after   10 cycles
 SCF Done:  E(RB3LYP) =  -924.084188492     A.U. after    9 cycles
 SCF Done:  E(RB3LYP) =  -924.084189061     A.U. after    7 cycles
 SCF Done:  E(RB3LYP) =  -924.084188937     A.U. after    6 cycles
 SCF Done:  E(RB3LYP) =  -924.084188858     A.U. after    6 cycles
 Optimization completed.
    -- Stationary point found.
 Normal termination of Gaussian 16 at Mon May 29 05:04:53 2023.

 ----------------------------------------------------------------------
 #N Geom=AllCheck Guess=TCheck SCRF=Check GenChk RB3LYP/6-31G(2df,p) Fr
 eq
 ----------------------------------------------------------------------

 Structure from the checkpoint file:  "CCSCqCrC1CCCdNCCC1C.chk"
 -------------------
 Title Card Required
 -------------------
 Charge =  0 Multiplicity = 1

                         Standard orientation:
 ---------------------------------------------------------------------
 Center     Atomic      Atomic             Coordinates (Angstroms)
 Number     Number       Type             X           Y           Z
 ---------------------------------------------------------------------
      1          6           0        4.794389   -0.344313   -1.245311
      2          6           0        3.702193   -0.704888   -0.239269
      3         16           0        2.229793    0.349814   -0.514420
      4          6           0        1.090876   -0.332372    0.780053
      5          6           0        1.415278    0.216784    2.174055
      6          6           0       -0.411778   -0.226055    0.355412
      7          6           0       -1.149151   -1.431061    0.995909
      8          6           0       -2.583198   -1.762793    0.496781
      9          6           0       -2.792580   -1.527852   -0.988101
     10          7           0       -2.981066   -0.453034   -1.629887
     11          6           0       -3.077012    0.879224   -1.046941
     12          6           0       -2.586658    1.225497    0.376481
     13          6           0       -1.062969    1.153415    0.650736
     14          6           0       -0.356960    2.303982   -0.089435
     15          1           0        5.674528   -0.976297   -1.089198
     16          1           0        5.102791    0.699600   -1.136695
     17          1           0        4.448678   -0.490017   -2.272878
     18          1           0        4.066137   -0.561721    0.782650
     19          1           0        3.407740   -1.753719   -0.350877
     20          1           0        1.329292   -1.400684    0.776096
     21          1           0        1.312254    1.303433    2.218243
     22          1           0        2.443277   -0.027274    2.455819
     23          1           0        0.755250   -0.221196    2.932371
     24          1           0       -0.431997   -0.377913   -0.729326
     25          1           0       -1.183440   -1.318002    2.086739
     26          1           0       -0.532488   -2.316882    0.806622
     27          1           0       -3.333895   -1.217011    1.068630
     28          1           0       -2.767183   -2.823366    0.699430
     29          1           0       -2.760265   -2.435282   -1.602626
     30          1           0       -4.139354    1.154453   -1.115642
     31          1           0       -2.576900    1.547191   -1.759445
     32          1           0       -3.138973    0.659202    1.126839
     33          1           0       -2.884650    2.269832    0.540391
     34          1           0       -0.954452    1.342445    1.727525
     35          1           0       -0.370522    2.153737   -1.174071
     36          1           0        0.688626    2.411373    0.206058
     37          1           0       -0.858250    3.254911    0.121057
 ---------------------------------------------------------------------

 SCF Done:  E(RB3LYP) =  -924.084188858     A.U. after    1 cycles

 The electronic state is 1-A.
 Alpha  occ. eigenvalues --  -88.85349 -14.31090 -10.21475 -10.21394 -10.20912
 Alpha  occ. eigenvalues --  -10.20188 -10.18945 -10.18885 -10.18721 -10.18600
 Alpha  occ. eigenvalues --  -10.18156 -10.17866 -10.17682 -10.16434  -7.91680
 Alpha  occ. eigenvalues --   -5.88151  -5.87829  -5.87206  -0.90573  -0.83312
 Alpha  occ. eigenvalues --   -0.79488  -0.78125  -0.75889  -0.71746  -0.69475
 Alpha  occ. eigenvalues --   -0.68437  -0.65190  -0.61693  -0.59269  -0.57565
 Alpha  occ. eigenvalues --   -0.54640  -0.52243  -0.48356  -0.46011  -0.45582
 Alpha  occ. eigenvalues --   -0.45387  -0.44686  -0.43027  -0.42953  -0.42207
 Alpha  occ. eigenvalues --   -0.41132  -0.39650  -0.39092  -0.38189  -0.37917
 Alpha  occ. eigenvalues --   -0.37746  -0.37477  -0.35896  -0.35514  -0.34883
 Alpha  occ. eigenvalues --   -0.33965  -0.33024  -0.31278  -0.30524  -0.29986
 Alpha  occ. eigenvalues --   -0.28825  -0.27322  -0.22547  -0.21205
 Alpha virt. eigenvalues --    0.00421   0.04186   0.07016   0.07917   0.08957
 Alpha virt. eigenvalues --    0.10219   0.10229   0.11792   0.12877   0.13063
 Alpha virt. eigenvalues --    0.13614   0.14431   0.15375   0.15804   0.15897

 Mulliken charges:
               1
     1  C   -0.386299
     2  C   -0.179018
     3  S   -0.174229
     4  C    0.008669
     5  C   -0.399690
     6  C   -0.015319
     7  C   -0.216257
     8  C   -0.287098
     9  C    0.016468
    10  N   -0.155793
    11  C   -0.147802
    12  C   -0.247735
    13  C    0.029583
    14  C   -0.413745
    15  H    0.117008
    16  H    0.134415
    17  H    0.135306
    18  H    0.119874
    19  H    0.118423
    20  H    0.096342
    21  H    0.134032
    22  H    0.116423
    23  H    0.114087
    24  H    0.109316
    25  H    0.100283
    26  H    0.103102
    27  H    0.121158
    28  H    0.097515
    29  H    0.093955
    30  H    0.114295
    31  H    0.117452
    32  H    0.094396
    33  H    0.090768
    34  H    0.067055
    35  H    0.128377
    36  H    0.143041
    37  H    0.101644
 Sum of Mulliken charges =  -0.00000

 Dipole moment (field-independent basis, Debye):
    X=              0.5734    Y=             -1.1912    Z=              2.7009  Tot=              3.0071
 Quadrupole moment (field-independent basis, Debye-Ang):
   XX=            -92.6458   YY=            -92.9460   ZZ=           -100.7184
   XY=             -4.1409   XZ=             -4.4474   YZ=             -0.9691

  Exact polarizability: 177.950  -5.167 148.831  -3.623  -3.950 134.407
 Approx polarizability: 224.766  -9.093 231.404  -5.171 -11.446 215.294

                      1                      2                      3
                      A                      A                      A
 Frequencies --     26.6989                42.8028                45.8931
 Red. masses --      2.8253                 3.4709                 1.9473
 Frc consts  --      0.0012                 0.0037                 0.0024
 IR Inten    --      0.4208                 1.4696                 0.4577

                      4                      5                      6
                      A                      A                      A
 Frequencies --     70.8620                79.5335               123.9309
 Red. masses --      3.0015                 4.7556                 3.0762
 Frc consts  --      0.0089                 0.0177                 0.0278
 IR Inten    --      0.1065                 0.5369                 0.7461

                      7                      8                      9
                      A                      A                      A
 Frequencies --    178.1339               187.7379               223.8205
 Red. masses --      2.7305                 2.1283                 2.4201
 Frc consts  --      0.0510                 0.0442                 0.0714
 IR Inten    --      0.0547                 1.1489                 0.1165

                     10                     11                     12
                      A                      A                      A
 Frequencies --    230.0194               237.1259               238.5732
 Red. masses --      2.3168                 2.2523                 1.2200
 Frc consts  --      0.0722                 0.0746                 0.0409
 IR Inten    --      0.2431                 0.5413                 0.3652

                     13                     14                     15
                      A                      A                      A
 Frequencies --    244.1138               260.0789               280.4219
 Red. masses --      1.2673                 1.4054                 3.6052
 Frc consts  --      0.0445                 0.0560                 0.1670
 IR Inten    --      0.0956                 0.1625                 1.2305

                     16                     17                     18
                      A                      A                      A
 Frequencies --    301.1000               326.2741               364.6121
 Red. masses --      3.2088                 2.7590                 3.3145
 Frc consts  --      0.1714                 0.1730                 0.2596
 IR Inten    --      1.3686                 0.8175                 1.1304

                     19                     20                     21
                      A                      A                      A
 Frequencies --    402.3917               434.1347               467.1626
 Red. masses --      2.9422                 3.0856                 2.4946
 Frc consts  --      0.2807                 0.3426                 0.3208
 IR Inten    --      2.8862                 0.5342                 0.3581

                     22                     23                     24
                      A                      A                      A
 Frequencies --    486.8924               571.9726               588.9534
 Red. masses --      2.0725                 2.6437                 3.0404
 Frc consts  --      0.2895                 0.5096                 0.6214
 IR Inten    --      1.6411                 0.8155                 1.4096

                     25                     26                     27
                      A                      A                      A
 Frequencies --    683.4135               689.1074               699.7626
 Red. masses --      2.0199                 3.7858                 3.7477
 Frc consts  --      0.5558                 1.0592                 1.0812
 IR Inten    --      8.1284                 3.0294                 3.6672

                     28                     29                     30
                      A                      A                      A
 Frequencies --    736.3273               789.9729               795.4908
 Red. masses --      2.1922                 1.1175                 2.2293
 Frc consts  --      0.7003                 0.4109                 0.8312
 IR Inten    --      1.5504                 3.0014                 0.2783

                     31                     32                     33
                      A                      A                      A
 Frequencies --    835.4666               845.9026               884.3677
 Red. masses --      2.7354                 2.0635                 2.0050
 Frc consts  --      1.1249                 0.8700                 0.9239
 IR Inten    --      1.2118                 2.4441                11.3652

                     34                     35                     36
                      A                      A                      A
 Frequencies --    912.1381               933.1775               951.7147
 Red. masses --      2.2967                 1.8837                 2.0730
 Frc consts  --      1.1258                 0.9665                 1.1063
 IR Inten    --      2.0031                 3.0339                 1.4580

                     37                     38                     39
                      A                      A                      A
 Frequencies --    978.0178               986.8398               992.4259
 Red. masses --      1.6449                 1.7643                 1.9651
 Frc consts  --      0.9270                 1.0123                 1.1403
 IR Inten    --      2.7900                 2.1016                 4.3335

                     40                     41                     42
                      A                      A                      A
 Frequencies --   1001.9039              1029.3810              1037.3844
 Red. masses --      1.6239                 1.8060                 1.2504
 Frc consts  --      0.9604                 1.1275                 0.7928
 IR Inten    --      2.1819                 0.2498                 0.4441

                     43                     44                     45
                      A                      A                      A
 Frequencies --   1043.7792              1058.3998              1073.9960
 Red. masses --      1.9868                 2.1423                 2.1303
 Frc consts  --      1.2753                 1.4139                 1.4478
 IR Inten    --      9.2399                13.5216                 8.5106

                     46                     47                     48
                      A                      A                      A
 Frequencies --   1081.8586              1117.0647              1124.1141
 Red. masses --      2.3073                 2.5337                 2.3578
 Frc consts  --      1.5911                 1.8627                 1.7554
 IR Inten    --      4.0267                 3.5489                 5.5939

                     49                     50                     51
                      A                      A                      A
 Frequencies --   1141.8571              1160.0407              1225.6475
 Red. masses --      2.0387                 1.7737                 1.5366
 Frc consts  --      1.5661                 1.4063                 1.3600
 IR Inten    --      6.9420                 1.6383                 5.2095

                     52                     53                     54
                      A                      A                      A
 Frequencies --   1231.3216              1257.5429              1261.2476
 Red. masses --      1.1932                 1.1905                 1.2518
 Frc consts  --      1.0658                 1.1093                 1.1732
 IR Inten    --      6.0979                 3.6070                15.2661

                     55                     56                     57
                      A                      A                      A
 Frequencies --   1262.6049              1269.1012              1299.1359
 Red. masses --      1.2432                 1.2170                 1.2618
 Frc consts  --      1.1677                 1.1549                 1.2547
 IR Inten    --      4.1801                20.3646                21.7772

                     58                     59                     60
                      A                      A                      A
 Frequencies --   1310.8343              1331.2073              1342.6922
 Red. masses --      1.2680                 1.3538                 1.2712
 Frc consts  --      1.2837                 1.4135                 1.3503
 IR Inten    --      5.4713                 4.8237                 2.6273

                     61                     62                     63
                      A                      A                      A
 Frequencies --   1351.3134              1359.7996              1379.6956
 Red. masses --      1.3293                 1.2260                 1.2597
 Frc consts  --      1.4302                 1.3357                 1.4129
 IR Inten    --      1.3238                 2.3620                 3.1745

                     64                     65                     66
                      A                      A                      A
 Frequencies --   1388.1761              1403.4088              1408.1098
 Red. masses --      1.3487                 1.2733                 1.2618
 Frc consts  --      1.5312                 1.4776                 1.4740
 IR Inten    --      6.1255                10.1077                 5.3681

                     67                     68                     69
                      A                      A                      A
 Frequencies --   1410.0699              1415.5165              1425.7171
 Red. masses --      1.2251                 1.2708                 1.2494
 Frc consts  --      1.4352                 1.5003                 1.4963
 IR Inten    --      0.7516                 3.0640                 6.4469

                     70                     71                     72
                      A                      A                      A
 Frequencies --   1432.8742              1467.1957              1479.1660
 Red. masses --      1.1818                 1.0828                 1.0846
 Frc consts  --      1.4296                 1.3733                 1.3981
 IR Inten    --      3.6168                 3.4739                 2.5389

                     73                     74                     75
                      A                      A                      A
 Frequencies --   1483.1355              1486.3486              1490.0660
 Red. masses --      1.0817                 1.0788                 1.0534
 Frc consts  --      1.4019                 1.4042                 1.3781
 IR Inten    --      7.1065                 0.0975                 4.1323

                     76                     77                     78
                      A                      A                      A
 Frequencies --   1491.6680              1495.7477              1501.9391
 Red. masses --      1.0380                 1.0489                 1.0511
 Frc consts  --      1.3608                 1.3826                 1.3970
 IR Inten    --      7.6371                 0.4769                 6.1453

                     79                     80                     81
                      A                      A                      A
 Frequencies --   1503.8683              1507.3004              1528.1540
 Red. masses --      1.0520                 1.0529                 1.0802
 Frc consts  --      1.4018                 1.4094                 1.4863
 IR Inten    --      2.8134                 7.0680                12.4136

                     82                     83                     84
                      A                      A                      A
 Frequencies --   1762.3118              3003.2685              3007.2937
 Red. masses --      9.0159                 1.0786                 1.0691
 Frc consts  --     16.4978                 5.7321                 5.6968
 IR Inten    --     43.4217                 4.7683                25.4732

                     85                     86                     87
                      A                      A                      A
 Frequencies --   3018.9978              3024.5990              3031.6653
 Red. masses --      1.0610                 1.0717                 1.0491
 Frc consts  --      5.6977                 5.7765                 5.6809
 IR Inten    --     23.7793                40.5752                15.6412

                     88                     89                     90
                      A                      A                      A
 Frequencies --   3033.9905              3035.0447              3039.2515
 Red. masses --      1.0550                 1.0561                 1.0758
 Frc consts  --      5.7220                 5.7317                 5.8549
 IR Inten    --     18.9627                24.0707                30.1877

                     91                     92                     93
                      A                      A                      A
 Frequencies --   3039.4392              3040.2438              3040.8035
 Red. masses --      1.0422                 1.0755                 1.0779
 Frc consts  --      5.6728                 5.8571                 5.8724
 IR Inten    --     32.5486                26.4745                20.9831

                     94                     95                     96
                      A                      A                      A
 Frequencies --   3046.8830              3057.1684              3063.6601
 Red. masses --      1.0858                 1.0757                 1.0952
 Frc consts  --      5.9390                 5.9237                 6.0566
 IR Inten    --     13.5353                49.4586                28.8393

                     97                     98                     99
                      A                      A                      A
 Frequencies --   3079.0948              3096.3754              3097.8909
 Red. masses --      1.1065                 1.1001                 1.0962
 Frc consts  --      6.1808                 6.2142                 6.1980
 IR Inten    --      7.1028                27.3973                33.2147

                    100                    101                    102
                      A                      A                      A
 Frequencies --   3100.0786              3108.2071              3119.3150
 Red. masses --      1.0935                 1.1010                 1.1034
 Frc consts  --      6.1915                 6.2668                 6.3254
 IR Inten    --     31.6717                22.4564                25.1410

                    103                    104                    105
                      A                      A                      A
 Frequencies --   3122.0556              3124.7209              3130.2687
 Red. masses --      1.0990                 1.0998                 1.0868
 Frc consts  --      6.3113                 6.3267                 6.2741
 IR Inten    --     35.4624                 8.7831                37.2561

 - Thermochemistry -
 -------------------
 Temperature   298.150 Kelvin.  Pressure   1.00000 Atm.
 Atom     1 has atomic number  6 and mass  12.00000

 Molecular mass:   213.15512 amu.
 Principal axes and moments of inertia in atomic units:
                           1         2         3
     Eigenvalues --  1797.258725637.208205822.32121
           X            0.99991  -0.01124  -0.00717
           Y            0.01091   0.99895  -0.04445
           Z            0.00766   0.04436   0.99899
 This molecule is an asymmetric top.
 Rotational symmetry number  1.
 Warning -- assumption of classical behavior for rotation
           may cause significant error
 Rotational temperatures (Kelvin)      0.04819     0.01536     0.01488
 Rotational constants (GHZ):           1.00416     0.32015     0.30997
 Zero-point vibrational energy     875788.4 (Joules/Mol)
                                  209.31844 (Kcal/Mol)
 Warning -- explicit consideration of  24 degrees of freedom as
           vibrations may cause significant error
 Vibrational temperatures:     38.41    61.58    66.03   101.95   114.43
          (Kelvin)            178.31   256.29   270.11   322.03   330.95
                              341.17   343.25   351.23   374.20   403.46
                              433.22   469.44   524.60   578.95   624.62
                              672.14   700.53   822.94   847.37   983.28
                              991.47  1006.80  1059.41  1136.59  1144.53
                             1202.05  1217.07  1272.41  1312.36  1342.63
                             1369.31  1407.15  1419.84  1427.88  1441.52
                             1481.05  1492.56  1501.77  1522.80  1545.24
                             1556.55  1607.21  1617.35  1642.88  1669.04
                             1763.43  1771.60  1809.32  1814.65  1816.61
                             1825.95  1869.17  1886.00  1915.31  1931.83
                             1944.24  1956.45  1985.07  1997.28  2019.19
                             2025.96  2028.78  2036.61  2051.29  2061.59
                             2110.97  2128.19  2133.90  2138.52  2143.87
                             2146.18  2152.05  2160.96  2163.73  2168.67
                             2198.67  2535.57  4321.03  4326.82  4343.66
                             4351.72  4361.89  4365.24  4366.75  4372.81
                             4373.08  4374.23  4375.04  4383.79  4398.58
                             4407.92  4430.13  4454.99  4457.17  4460.32
                             4472.02  4488.00  4491.94  4495.78  4503.76

 Zero-point correction=                           0.333570 (Hartree/Particle)
 Thermal correction to Energy=                    0.350056
 Thermal correction to Enthalpy=                  0.351001
 Thermal correction to Gibbs Free Energy=         0.288824
 Sum of electronic and zero-point Energies=           -923.750619
 Sum of electronic and thermal Energies=              -923.734132
 Sum of electronic and thermal Enthalpies=            -923.733188
 Sum of electronic and thermal Free Energies=         -923.795365

                     E (Thermal)             CV                S
                      KCal/Mol        Cal/Mol-Kelvin    Cal/Mol-Kelvin
 Total                  219.664             62.063            130.861
 Electronic               0.000              0.000              0.000
 Translational            0.889              2.981             41.974
 Rotational               0.889              2.981             32.445
 Vibrational            217.886             56.102             56.442
 Vibration     1          0.593              1.984              6.061
 Vibration     2          0.595              1.980              5.125
 Vibration     3          0.595              1.979              4.987
 Vibration     4          0.598              1.968              4.129
 Vibration     5          0.600              1.963              3.902
 Vibration     6          0.610              1.929              3.038
 Vibration     7          0.629              1.869              2.348
 Vibration     8          0.632              1.857              2.250
 Vibration     9          0.649              1.805              1.928
 Vibration    10          0.652              1.795              1.879
 Vibration    11          0.656              1.784              1.824
 Vibration    12          0.657              1.782              1.813
 Vibration    13          0.659              1.773              1.773
 Vibration    14          0.668              1.746              1.661
 Vibration    15          0.680              1.710              1.531
 Vibration    16          0.693              1.672              1.411
 Vibration    17          0.710              1.623              1.278
 Vibration    18          0.738              1.545              1.102
 Vibration    19          0.768              1.465              0.954
 Vibration    20          0.795              1.396              0.845
 Vibration    21          0.824              1.323              0.746
 Vibration    22          0.843              1.279              0.692
 Vibration    23          0.928              1.092              0.500
 Vibration    24          0.946              1.055              0.469

 Optimization completed.
    -- Stationary point found.
 Normal termination of Gaussian 16 at Mon May 29 07:44:15 2023.
