 Gaussian 16, Revision A.03,
 Gaussian 16:  ES64L-G16RevA.03 25-Dec-2016

 -----------------------------
 # opt freq b3lyp/6-31g(2df,p)
 -----------------------------

 -------------------
 Title Card Required
 -------------------
 Symbolic Z-matrix:
 Charge =  0 Multiplicity = 1

 SCF Done:  E(RB3LYP) =  -1416.40484563     A.U. after   12 cycles
 SCF Done:  E(RB3LYP) =  -1416.41222484     A.U. after   10 cycles
 SCF Done:  E(RB3LYP) =  -1416.41298707     A.U. after   10 cycles
 SCF Done:  E(RB3LYP) =  -1416.41316514     A.U. after   11 cycles
 SCF Done:  E(RB3LYP) =  -1416.41425285     A.U. after   14 cycles
 SCF Done:  E(RB3LYP) =  -1416.41433966     A.U. after   13 cycles
 SCF Done:  E(RB3LYP) =  -1416.41782932     A.U. after   10 cycles
 SCF Done:  E(RB3LYP) =  -1416.42141570     A.U. after   12 cycles
 SCF Done:  E(RB3LYP) =  -1416.42174410     A.U. after   12 cycles
 SCF Done:  E(RB3LYP) =  -1416.42304390     A.U. after   11 cycles
 SCF Done:  E(RB3LYP) =  -1416.42312870     A.U. after    9 cycles
 SCF Done:  E(RB3LYP) =  -1416.42313287     A.U. after    8 cycles
 SCF Done:  E(RB3LYP) =  -1416.42313395     A.U. after    7 cycles
 SCF Done:  E(RB3LYP) =  -1416.42313428     A.U. after    7 cycles
 SCF Done:  E(RB3LYP) =  -1416.42313435     A.U. after    6 cycles
 SCF Done:  E(RB3LYP) =  -1416.42313440     A.U. after    6 cycles
 Optimization completed.
    -- Stationary point found.
 Normal termination of Gaussian 16 at Mon May 22 12:03:41 2023.

 ----------------------------------------------------------------------
 #N Geom=AllCheck Guess=TCheck SCRF=Check GenChk RB3LYP/6-31G(2df,p) Fr
 eq
 ----------------------------------------------------------------------

 Structure from the checkpoint file:  "CCSSCCCqOrOCCqCrCCO.chk"
 -------------------
 Title Card Required
 -------------------
 Charge =  0 Multiplicity = 1

                         Standard orientation:
 ---------------------------------------------------------------------
 Center     Atomic      Atomic             Coordinates (Angstroms)
 Number     Number       Type             X           Y           Z
 ---------------------------------------------------------------------
      1          6           0       -7.034640   -1.351015   -0.057362
      2          6           0       -5.691338   -0.835562   -0.571783
      3         16           0       -5.126237    0.551194    0.504506
      4         16           0       -3.385475    1.192405   -0.392660
      5          6           0       -2.090544    0.112546    0.348778
      6          6           0       -0.719232    0.551970   -0.165050
      7          6           0        0.400972   -0.358596    0.342815
      8          8           0        0.214696   -1.708717   -0.026013
      9          8           0        1.601829    0.162442   -0.156082
     10          6           0        2.775954   -0.419939    0.400571
     11          6           0        4.003535    0.253841   -0.213279
     12          6           0        4.011755    1.759165    0.089219
     13          6           0        5.276346   -0.465190    0.267468
     14          6           0        6.558896   -0.036292   -0.449722
     15          8           0        7.678178   -0.826685   -0.077448
     16          1           0       -7.383143   -2.175269   -0.687765
     17          1           0       -7.795653   -0.565249   -0.076061
     18          1           0       -6.953815   -1.722273    0.968727
     19          1           0       -5.773445   -0.457307   -1.592906
     20          1           0       -4.934750   -1.623556   -0.550988
     21          1           0       -2.284162   -0.926126    0.075447
     22          1           0       -2.153305    0.203561    1.436042
     23          1           0       -0.499816    1.578146    0.145610
     24          1           0       -0.694246    0.540248   -1.262537
     25          1           0        0.418613   -0.380805    1.443616
     26          1           0        0.208086   -1.738786   -0.991221
     27          1           0        2.786792   -1.499110    0.202402
     28          1           0        2.772306   -0.283168    1.495538
     29          1           0        3.923791    0.119955   -1.301508
     30          1           0        4.158375    1.938521    1.161694
     31          1           0        3.059679    2.209418   -0.200072
     32          1           0        4.809557    2.278957   -0.448185
     33          1           0        5.168187   -1.547587    0.126091
     34          1           0        5.399405   -0.302552    1.349185
     35          1           0        6.760113    1.032719   -0.285362
     36          1           0        6.444990   -0.179392   -1.530395
     37          1           0        7.841985   -0.679817    0.859534
 ---------------------------------------------------------------------

 SCF Done:  E(RB3LYP) =  -1416.42313440     A.U. after    1 cycles

 The electronic state is 1-A.
 Alpha  occ. eigenvalues --  -88.88527 -88.88396 -19.15030 -19.14924 -19.13276
 Alpha  occ. eigenvalues --  -10.28465 -10.22825 -10.22585 -10.21546 -10.21389
 Alpha  occ. eigenvalues --  -10.19548 -10.19284 -10.18933 -10.18298 -10.17310
 Alpha  occ. eigenvalues --   -7.94768  -7.94660  -5.91281  -5.91174  -5.90892
 Alpha  occ. eigenvalues --   -5.90777  -5.90269  -5.90159  -1.07126  -1.01363
 Alpha  occ. eigenvalues --   -1.00547  -0.82385  -0.81350  -0.79324  -0.74973
 Alpha  occ. eigenvalues --   -0.72273  -0.69646  -0.66837  -0.63575  -0.62008
 Alpha  occ. eigenvalues --   -0.60914  -0.57485  -0.56841  -0.52377  -0.50316
 Alpha  occ. eigenvalues --   -0.49952  -0.48305  -0.46862  -0.46077  -0.45390
 Alpha  occ. eigenvalues --   -0.43936  -0.43355  -0.42570  -0.42019  -0.40096
 Alpha  occ. eigenvalues --   -0.39605  -0.39128  -0.38450  -0.37715  -0.37370
 Alpha  occ. eigenvalues --   -0.36328  -0.36082  -0.34733  -0.34032  -0.33449
 Alpha  occ. eigenvalues --   -0.33260  -0.31936  -0.31533  -0.31298  -0.29532
 Alpha  occ. eigenvalues --   -0.27368  -0.26387  -0.23555  -0.23163
 Alpha virt. eigenvalues --   -0.01188   0.04254   0.04703   0.07568   0.07681
 Alpha virt. eigenvalues --    0.08803   0.09562   0.10066   0.11437   0.12145
 Alpha virt. eigenvalues --    0.12176   0.13181   0.13928   0.14422   0.15034

 Mulliken charges:
               1
     1  C   -0.389281
     2  C   -0.171975
     3  S   -0.097917
     4  S   -0.108934
     5  C   -0.191490
     6  C   -0.240095
     7  C    0.187018
     8  O   -0.410010
     9  O   -0.253586
    10  C   -0.070324
    11  C    0.000298
    12  C   -0.393678
    13  C   -0.204193
    14  C   -0.070022
    15  O   -0.416884
    16  H    0.125159
    17  H    0.138143
    18  H    0.136011
    19  H    0.136176
    20  H    0.127265
    21  H    0.133910
    22  H    0.134779
    23  H    0.128258
    24  H    0.114308
    25  H    0.081567
    26  H    0.280815
    27  H    0.103434
    28  H    0.085742
    29  H    0.081351
    30  H    0.106889
    31  H    0.131860
    32  H    0.115286
    33  H    0.104645
    34  H    0.083732
    35  H    0.090829
    36  H    0.110944
    37  H    0.279971
 Sum of Mulliken charges =  -0.00000

 Dipole moment (field-independent basis, Debye):
    X=              0.0142    Y=             -1.1322    Z=              0.2641  Tot=              1.1627
 Quadrupole moment (field-independent basis, Debye-Ang):
   XX=           -114.3074   YY=           -112.4405   ZZ=           -103.9289
   XY=             16.2824   XZ=             12.4832   YZ=              2.3329

  Exact polarizability: 230.257   9.333 140.951  -0.005   0.547 129.502
 Approx polarizability: 263.776  11.671 218.746  -4.975  -0.792 215.367

                      1                      2                      3
                      A                      A                      A
 Frequencies --     14.2710                23.0926                26.0153
 Red. masses --      4.5348                 3.9200                 4.7932
 Frc consts  --      0.0005                 0.0012                 0.0019
 IR Inten    --      0.4903                 1.1164                 0.9245

                      4                      5                      6
                      A                      A                      A
 Frequencies --     35.2353                54.2452                58.4621
 Red. masses --      4.3059                 2.2425                 3.0612
 Frc consts  --      0.0031                 0.0039                 0.0062
 IR Inten    --      0.3409                 0.3089                 0.6827

                      7                      8                      9
                      A                      A                      A
 Frequencies --     72.7417                85.0857               104.0327
 Red. masses --      2.2053                 2.8521                 4.2237
 Frc consts  --      0.0069                 0.0122                 0.0269
 IR Inten    --      2.5111                 1.7952                 0.6476

                     10                     11                     12
                      A                      A                      A
 Frequencies --    114.9848               124.1048               150.5835
 Red. masses --      3.3825                 2.4987                 4.6890
 Frc consts  --      0.0263                 0.0227                 0.0626
 IR Inten    --      2.6023                 0.3845                 1.8819

                     13                     14                     15
                      A                      A                      A
 Frequencies --    171.0414               178.3612               200.5770
 Red. masses --      2.9649                 4.7374                 5.2667
 Frc consts  --      0.0511                 0.0888                 0.1248
 IR Inten    --      2.0792                 2.9010                 0.3231

                     16                     17                     18
                      A                      A                      A
 Frequencies --    232.2518               235.7544               250.4757
 Red. masses --      1.1539                 1.1675                 3.0724
 Frc consts  --      0.0367                 0.0382                 0.1136
 IR Inten    --      0.0919                 0.1806                 2.3786

                     19                     20                     21
                      A                      A                      A
 Frequencies --    273.6599               297.5862               305.9767
 Red. masses --      4.1756                 1.2002                 2.9781
 Frc consts  --      0.1842                 0.0626                 0.1643
 IR Inten    --      0.5235               101.6622                13.9023

                     22                     23                     24
                      A                      A                      A
 Frequencies --    333.4027               366.1426               376.1929
 Red. masses --      4.0539                 1.8728                 1.5821
 Frc consts  --      0.2655                 0.1479                 0.1319
 IR Inten    --     18.0458                59.2495                71.2320

                     25                     26                     27
                      A                      A                      A
 Frequencies --    433.2636               451.1519               522.6365
 Red. masses --      2.7884                 2.6124                12.4456
 Frc consts  --      0.3084                 0.3133                 2.0029
 IR Inten    --      1.9112                 7.7897                 3.9628

                     28                     29                     30
                      A                      A                      A
 Frequencies --    529.3808               558.8205               619.2387
 Red. masses --      3.2754                 3.0825                 4.2852
 Frc consts  --      0.5408                 0.5671                 0.9681
 IR Inten    --     22.4916                12.1518                13.9755

                     31                     32                     33
                      A                      A                      A
 Frequencies --    660.5512               750.7614               775.7571
 Red. masses --      4.1061                 4.4703                 1.2569
 Frc consts  --      1.0556                 1.4845                 0.4457
 IR Inten    --      0.0607                 1.0105                 1.6175

                     34                     35                     36
                      A                      A                      A
 Frequencies --    782.3985               786.5234               860.1745
 Red. masses --      1.1788                 1.1213                 2.5703
 Frc consts  --      0.4252                 0.4087                 1.1205
 IR Inten    --      2.2004                 2.8936                 1.6827

                     37                     38                     39
                      A                      A                      A
 Frequencies --    907.0552               931.1857               948.2372
 Red. masses --      2.3034                 1.2539                 1.6890
 Frc consts  --      1.1166                 0.6406                 0.8948
 IR Inten    --     43.9095                 2.5423                 5.0741

                     40                     41                     42
                      A                      A                      A
 Frequencies --    983.9979               986.8463               998.3039
 Red. masses --      1.9746                 1.5948                 3.3235
 Frc consts  --      1.1264                 0.9150                 1.9515
 IR Inten    --      3.6526                11.6130                20.8817

                     43                     44                     45
                      A                      A                      A
 Frequencies --   1018.5725              1029.4033              1035.5794
 Red. masses --      1.6822                 3.1397                 1.2498
 Frc consts  --      1.0283                 1.9602                 0.7897
 IR Inten    --     30.3041                36.0053                 2.4276

                     46                     47                     48
                      A                      A                      A
 Frequencies --   1056.8271              1062.5951              1077.9013
 Red. masses --      3.0128                 1.9758                 3.8190
 Frc consts  --      1.9825                 1.3144                 2.6143
 IR Inten    --     21.2240                 8.5780                86.4955

                     49                     50                     51
                      A                      A                      A
 Frequencies --   1093.2348              1117.3476              1122.2414
 Red. masses --      4.3447                 1.6980                 1.6730
 Frc consts  --      3.0594                 1.2490                 1.2414
 IR Inten    --    129.5634               129.3243                52.7181

                     52                     53                     54
                      A                      A                      A
 Frequencies --   1144.0697              1157.0254              1172.9694
 Red. masses --      2.0804                 2.4519                 1.8534
 Frc consts  --      1.6043                 1.9339                 1.5024
 IR Inten    --    176.6189                60.2462                 6.0963

                     55                     56                     57
                      A                      A                      A
 Frequencies --   1210.1432              1227.7742              1257.2673
 Red. masses --      1.4808                 1.2611                 1.2519
 Frc consts  --      1.2777                 1.1200                 1.1659
 IR Inten    --      1.6647                 7.0295                 0.3974

                     58                     59                     60
                      A                      A                      A
 Frequencies --   1269.0653              1273.5279              1282.0513
 Red. masses --      1.2151                 1.2530                 1.2883
 Frc consts  --      1.1530                 1.1973                 1.2476
 IR Inten    --      3.2370                18.7741                21.3767

                     61                     62                     63
                      A                      A                      A
 Frequencies --   1283.8790              1315.9893              1332.4834
 Red. masses --      1.1695                 1.2263                 1.2933
 Frc consts  --      1.1358                 1.2513                 1.3529
 IR Inten    --      1.4535                12.3697                 0.0975

                     64                     65                     66
                      A                      A                      A
 Frequencies --   1339.0682              1352.0101              1376.9438
 Red. masses --      1.3061                 1.3286                 1.3319
 Frc consts  --      1.3798                 1.4308                 1.4879
 IR Inten    --      5.5159                 5.9950                10.7888

                     67                     68                     69
                      A                      A                      A
 Frequencies --   1382.4554              1402.9950              1406.5740
 Red. masses --      1.4110                 1.2896                 1.2959
 Frc consts  --      1.5889                 1.4956                 1.5106
 IR Inten    --     58.9333                13.7846                 7.7503

                     70                     71                     72
                      A                      A                      A
 Frequencies --   1408.6849              1421.9606              1428.6718
 Red. masses --      1.2173                 1.3143                 1.3104
 Frc consts  --      1.4233                 1.5657                 1.5758
 IR Inten    --      1.0277                55.1637                38.4044

                     73                     74                     75
                      A                      A                      A
 Frequencies --   1440.3732              1479.7543              1481.0746
 Red. masses --      1.2957                 1.0855                 1.0844
 Frc consts  --      1.5838                 1.4004                 1.4015
 IR Inten    --      8.3600                 0.8976                11.6311

                     76                     77                     78
                      A                      A                      A
 Frequencies --   1484.7202              1490.9951              1493.6763
 Red. masses --      1.0840                 1.0369                 1.0964
 Frc consts  --      1.4078                 1.3581                 1.4413
 IR Inten    --      0.4600                 6.3731                 1.9758

                     79                     80                     81
                      A                      A                      A
 Frequencies --   1495.7011              1501.8002              1508.3647
 Red. masses --      1.0598                 1.0505                 1.0536
 Frc consts  --      1.3969                 1.3960                 1.4123
 IR Inten    --      2.1482                 1.9692                 5.3179

                     82                     83                     84
                      A                      A                      A
 Frequencies --   1514.8149              1521.7632              2961.4267
 Red. masses --      1.0923                 1.0834                 1.0668
 Frc consts  --      1.4767                 1.4782                 5.5123
 IR Inten    --      0.0665                 4.6088                25.2374

                     85                     86                     87
                      A                      A                      A
 Frequencies --   2991.2797              2991.8576              2993.2808
 Red. masses --      1.0697                 1.0830                 1.0651
 Frc consts  --      5.6396                 5.7114                 5.6224
 IR Inten    --     47.3885                29.2397                 9.7826

                     88                     89                     90
                      A                      A                      A
 Frequencies --   3010.3657              3031.0361              3031.9856
 Red. masses --      1.0785                 1.0438                 1.0629
 Frc consts  --      5.7583                 5.6499                 5.7572
 IR Inten    --     35.2721                21.9310                21.4361

                     91                     92                     93
                      A                      A                      A
 Frequencies --   3039.0876              3040.2661              3051.1240
 Red. masses --      1.0346                 1.0934                 1.0903
 Frc consts  --      5.6299                 5.9545                 5.9805
 IR Inten    --     23.8740                14.8065                27.6526

                     94                     95                     96
                      A                      A                      A
 Frequencies --   3062.0831              3066.6964              3071.1288
 Red. masses --      1.0572                 1.0571                 1.1003
 Frc consts  --      5.8406                 5.8574                 6.1145
 IR Inten    --     10.6281                11.1396                67.1618

                     97                     98                     99
                      A                      A                      A
 Frequencies --   3087.3951              3100.4973              3104.5929
 Red. masses --      1.0980                 1.0949                 1.1041
 Frc consts  --      6.1664                 6.2016                 6.2700
 IR Inten    --      8.9473                32.0186                 1.9660

                    100                    101                    102
                      A                      A                      A
 Frequencies --   3109.1755              3127.2481              3128.0111
 Red. masses --      1.1006                 1.1075                 1.1075
 Frc consts  --      6.2683                 6.3812                 6.3845
 IR Inten    --     17.3321                18.8236                15.5709

                    103                    104                    105
                      A                      A                      A
 Frequencies --   3128.4579              3778.1632              3815.3035
 Red. masses --      1.1003                 1.0651                 1.0661
 Frc consts  --      6.3448                 8.9582                 9.1436
 IR Inten    --     22.1002                16.8347                16.6289

 - Thermochemistry -
 -------------------
 Temperature   298.150 Kelvin.  Pressure   1.00000 Atm.
 Atom     1 has atomic number  6 and mass  12.00000

 Molecular mass:   254.10104 amu.
 Principal axes and moments of inertia in atomic units:
                           1         2         3
     Eigenvalues --   990.36612********************
           X            0.99993   0.01117   0.00270
           Y           -0.01119   0.99991   0.00696
           Z           -0.00262  -0.00699   0.99997
 This molecule is an asymmetric top.
 Rotational symmetry number  1.
 Warning -- assumption of classical behavior for rotation
           may cause significant error
 Rotational temperatures (Kelvin)      0.08746     0.00473     0.00457
 Rotational constants (GHZ):           1.82230     0.09847     0.09512
 Zero-point vibrational energy     835970.6 (Joules/Mol)
                                  199.80177 (Kcal/Mol)
 Warning -- explicit consideration of  30 degrees of freedom as
           vibrations may cause significant error
 Vibrational temperatures:     20.53    33.23    37.43    50.70    78.05
          (Kelvin)             84.11   104.66   122.42   149.68   165.44
                              178.56   216.66   246.09   256.62   288.59
                              334.16   339.20   360.38   393.74   428.16
                              440.23   479.69   526.80   541.26   623.37
                              649.11   751.96   761.66   804.02   890.95
                              950.39  1080.18  1116.14  1125.70  1131.63
                             1237.60  1305.05  1339.77  1364.30  1415.75
                             1419.85  1436.34  1465.50  1481.08  1489.97
                             1520.54  1528.84  1550.86  1572.92  1607.61
                             1614.66  1646.06  1664.70  1687.64  1741.13
                             1766.49  1808.93  1825.90  1832.32  1844.59
                             1847.22  1893.42  1917.15  1926.62  1945.24
                             1981.11  1989.05  2018.60  2023.75  2026.78
                             2045.88  2055.54  2072.38  2129.04  2130.94
                             2136.18  2145.21  2149.07  2151.98  2160.76
                             2170.20  2179.48  2189.48  4260.83  4303.78
                             4304.62  4306.66  4331.24  4360.98  4362.35
                             4372.57  4374.26  4389.89  4405.65  4412.29
                             4418.67  4442.07  4460.92  4466.82  4473.41
                             4499.41  4500.51  4501.15  5435.93  5489.37

 Zero-point correction=                           0.318404 (Hartree/Particle)
 Thermal correction to Energy=                    0.339009
 Thermal correction to Enthalpy=                  0.339953
 Thermal correction to Gibbs Free Energy=         0.264595
 Sum of electronic and zero-point Energies=          -1416.104730
 Sum of electronic and thermal Energies=             -1416.084126
 Sum of electronic and thermal Enthalpies=           -1416.083181
 Sum of electronic and thermal Free Energies=        -1416.158540

                     E (Thermal)             CV                S
                      KCal/Mol        Cal/Mol-Kelvin    Cal/Mol-Kelvin
 Total                  212.731             70.996            158.605
 Electronic               0.000              0.000              0.000
 Translational            0.889              2.981             42.498
 Rotational               0.889              2.981             34.198
 Vibrational            210.954             65.035             81.910
 Vibration     1          0.593              1.986              7.305
 Vibration     2          0.593              1.985              6.349
 Vibration     3          0.593              1.985              6.112
 Vibration     4          0.594              1.982              5.510
 Vibration     5          0.596              1.976              4.656
 Vibration     6          0.596              1.974              4.508
 Vibration     7          0.599              1.967              4.078
 Vibration     8          0.601              1.960              3.770
 Vibration     9          0.605              1.946              3.377
 Vibration    10          0.608              1.937              3.183
 Vibration    11          0.610              1.929              3.035
 Vibration    12          0.618              1.902              2.665
 Vibration    13          0.626              1.878              2.424
 Vibration    14          0.629              1.869              2.345
 Vibration    15          0.638              1.839              2.128
 Vibration    16          0.653              1.792              1.861
 Vibration    17          0.655              1.786              1.835
 Vibration    18          0.663              1.762              1.727
 Vibration    19          0.676              1.722              1.573
 Vibration    20          0.691              1.678              1.430
 Vibration    21          0.696              1.662              1.384
 Vibration    22          0.715              1.609              1.244
 Vibration    23          0.739              1.542              1.096
 Vibration    24          0.747              1.521              1.054
 Vibration    25          0.794              1.398              0.848
 Vibration    26          0.810              1.358              0.792
 Vibration    27          0.878              1.200              0.604
 Vibration    28          0.884              1.185              0.589
 Vibration    29          0.914              1.120              0.526
 Vibration    30          0.979              0.991              0.418

                           ! Non-Optimized Parameters !
 Normal termination of Gaussian 16 at Mon May 22 14:15:13 2023.
