 Gaussian 16, Revision A.03,
 Gaussian 16:  ES64L-G16RevA.03 25-Dec-2016

 -----------------------------
 # opt freq b3lyp/6-31g(2df,p)
 -----------------------------

 -------------------
 Title Card Required
 -------------------
 Symbolic Z-matrix:
 Charge =  0 Multiplicity = 1

 SCF Done:  E(RB3LYP) =  -443.502758875     A.U. after   14 cycles
 SCF Done:  E(RB3LYP) =  -443.526305633     A.U. after   13 cycles
 SCF Done:  E(RB3LYP) =  -443.528919906     A.U. after   15 cycles
 SCF Done:  E(RB3LYP) =  -443.528136512     A.U. after   14 cycles
 SCF Done:  E(RB3LYP) =  -443.529683228     A.U. after   12 cycles
 SCF Done:  E(RB3LYP) =  -443.531740982     A.U. after   15 cycles
 SCF Done:  E(RB3LYP) =  -443.533061381     A.U. after   13 cycles
 SCF Done:  E(RB3LYP) =  -443.533770415     A.U. after   14 cycles
 SCF Done:  E(RB3LYP) =  -443.534174800     A.U. after   13 cycles
 SCF Done:  E(RB3LYP) =  -443.533899782     A.U. after   12 cycles
 SCF Done:  E(RB3LYP) =  -443.534359079     A.U. after   16 cycles
 SCF Done:  E(RB3LYP) =  -443.534377255     A.U. after   10 cycles
 SCF Done:  E(RB3LYP) =  -443.534385472     A.U. after   11 cycles
 SCF Done:  E(RB3LYP) =  -443.534393493     A.U. after   11 cycles
 SCF Done:  E(RB3LYP) =  -443.534395203     A.U. after    8 cycles
 SCF Done:  E(RB3LYP) =  -443.534395484     A.U. after    7 cycles
 Optimization completed.
    -- Stationary point found.
 Normal termination of Gaussian 16 at Mon May 22 14:31:26 2023.

 ----------------------------------------------------------------------
 #N Geom=AllCheck Guess=TCheck SCRF=Check GenChk RB3LYP/6-31G(2df,p) Fr
 eq
 ----------------------------------------------------------------------

 Structure from the checkpoint file:  "CCtCCtCCC1qCrNC1C.chk"
 -------------------
 Title Card Required
 -------------------
 Charge =  0 Multiplicity = 1

                         Standard orientation:
 ---------------------------------------------------------------------
 Center     Atomic      Atomic             Coordinates (Angstroms)
 Number     Number       Type             X           Y           Z
 ---------------------------------------------------------------------
      1          6           0        5.383215    0.575463    0.098686
      2          6           0        4.003486    0.135233   -0.001082
      3          6           0        2.853228   -0.232062   -0.084334
      4          6           0        1.560077   -0.644277   -0.176553
      5          6           0        0.409867   -1.016180   -0.263418
      6          6           0       -0.971818   -1.462914   -0.346883
      7          6           0       -2.025197   -0.432210    0.096165
      8          6           0       -3.422134   -1.018301    0.100190
      9          7           0       -1.709761    0.473435    1.211230
     10          6           0       -1.768447    1.011852   -0.164230
     11          6           0       -2.830242    2.040734   -0.471803
     12          1           0        5.899953    0.078072    0.927248
     13          1           0        5.442115    1.656251    0.270283
     14          1           0        5.937069    0.354114   -0.820675
     15          1           0       -1.090318   -2.363877    0.272938
     16          1           0       -1.196082   -1.778507   -1.375521
     17          1           0       -3.465997   -1.897729    0.753211
     18          1           0       -3.721488   -1.332553   -0.906434
     19          1           0       -4.152095   -0.297886    0.470289
     20          1           0       -0.737348    0.358099    1.491549
     21          1           0       -0.805604    1.220332   -0.629161
     22          1           0       -3.761453    1.833383    0.059114
     23          1           0       -3.041833    2.076043   -1.546346
     24          1           0       -2.490805    3.036192   -0.165534
 ---------------------------------------------------------------------

 SCF Done:  E(RB3LYP) =  -443.534395484     A.U. after    1 cycles

 The electronic state is 1-A.
 Alpha  occ. eigenvalues --  -14.31193 -10.22087 -10.21411 -10.21371 -10.20520
 Alpha  occ. eigenvalues --  -10.19527 -10.19468 -10.19230 -10.18988 -10.17556
 Alpha  occ. eigenvalues --  -10.17160  -0.95038  -0.80361  -0.78574  -0.75178
 Alpha  occ. eigenvalues --   -0.72543  -0.71871  -0.68678  -0.60577  -0.58802
 Alpha  occ. eigenvalues --   -0.54303  -0.50867  -0.47442  -0.46401  -0.45179
 Alpha  occ. eigenvalues --   -0.43661  -0.43657  -0.41622  -0.40799  -0.40475
 Alpha  occ. eigenvalues --   -0.38948  -0.38302  -0.34661  -0.33139  -0.32997
 Alpha  occ. eigenvalues --   -0.31006  -0.29782  -0.23830  -0.23622  -0.23302
 Alpha virt. eigenvalues --   -0.00916  -0.00489   0.09008   0.10359   0.11360
 Alpha virt. eigenvalues --    0.11752   0.12015   0.13621   0.14014   0.15047
 Alpha virt. eigenvalues --    0.15829   0.16009   0.17938   0.18361   0.19037

 Mulliken charges:
               1
     1  C   -0.518403
     2  C    0.255099
     3  C   -0.218163
     4  C   -0.066299
     5  C    0.152298
     6  C   -0.454140
     7  C    0.301451
     8  C   -0.443160
     9  N   -0.371902
    10  C   -0.017129
    11  C   -0.406502
    12  H    0.157070
    13  H    0.157251
    14  H    0.157083
    15  H    0.136753
    16  H    0.137882
    17  H    0.116806
    18  H    0.111891
    19  H    0.129723
    20  H    0.231366
    21  H    0.092024
    22  H    0.124652
    23  H    0.113271
    24  H    0.121076
 Sum of Mulliken charges =  -0.00000

 Dipole moment (field-independent basis, Debye):
    X=              1.3706    Y=             -0.1949    Z=             -1.0641  Tot=              1.7461
 Quadrupole moment (field-independent basis, Debye-Ang):
   XX=            -51.9111   YY=            -64.1098   ZZ=            -68.4026
   XY=              5.5370   XZ=              4.5122   YZ=             -0.8905

  Exact polarizability: 195.962  21.546  97.777   6.193   0.277  76.575
 Approx polarizability: 290.565  53.130 144.689  12.731   3.253 120.731

                      1                      2                      3
                      A                      A                      A
 Frequencies --      8.0567                42.1425                46.6091
 Red. masses --      1.0184                 3.3746                 3.8833
 Frc consts  --      0.0000                 0.0035                 0.0050
 IR Inten    --      0.0033                 0.3033                 0.6109

                      4                      5                      6
                      A                      A                      A
 Frequencies --    108.5737               133.7037               157.8367
 Red. masses --      3.5286                 4.5741                 1.0751
 Frc consts  --      0.0245                 0.0482                 0.0158
 IR Inten    --      4.6057                 3.3383                 0.0083

                      7                      8                      9
                      A                      A                      A
 Frequencies --    165.5311               214.2480               249.8044
 Red. masses --      1.1355                 2.5273                 2.4923
 Frc consts  --      0.0183                 0.0684                 0.0916
 IR Inten    --      0.3021                 0.7703                 0.6053

                     10                     11                     12
                      A                      A                      A
 Frequencies --    255.2201               295.2756               313.4095
 Red. masses --      3.1428                 3.2010                 3.4964
 Frc consts  --      0.1206                 0.1644                 0.2023
 IR Inten    --      0.0188                 0.4181                 0.3203

                     13                     14                     15
                      A                      A                      A
 Frequencies --    376.8488               385.9246               420.0709
 Red. masses --      3.7771                 4.9171                 3.2328
 Frc consts  --      0.3160                 0.4315                 0.3361
 IR Inten    --      3.8360                 3.5089                 0.5245

                     16                     17                     18
                      A                      A                      A
 Frequencies --    471.9352               512.7431               545.2079
 Red. masses --      2.7538                 3.2248                 8.7708
 Frc consts  --      0.3614                 0.4995                 1.5361
 IR Inten    --      9.9040                 2.4020                 0.2395

                     19                     20                     21
                      A                      A                      A
 Frequencies --    552.6095               660.8524               695.4795
 Red. masses --      9.1686                 4.7079                 4.1021
 Frc consts  --      1.6496                 1.2114                 1.1690
 IR Inten    --      0.0630                 0.4282                 3.6013

                     22                     23                     24
                      A                      A                      A
 Frequencies --    768.6341               868.1573               919.9754
 Red. masses --      2.8713                 3.0534                 1.5479
 Frc consts  --      0.9995                 1.3559                 0.7719
 IR Inten    --     11.0096                26.5486                 6.9023

                     25                     26                     27
                      A                      A                      A
 Frequencies --    938.9866               981.4414               991.3166
 Red. masses --      2.3037                 1.3895                 2.4615
 Frc consts  --      1.1967                 0.7886                 1.4252
 IR Inten    --      2.5301                 8.5198                 1.3023

                     28                     29                     30
                      A                      A                      A
 Frequencies --   1035.3160              1048.0939              1048.5536
 Red. masses --      1.3878                 1.4084                 1.4038
 Frc consts  --      0.8765                 0.9115                 0.9094
 IR Inten    --     15.9522                 2.1899                 1.5422

                     31                     32                     33
                      A                      A                      A
 Frequencies --   1084.9509              1094.0012              1108.7309
 Red. masses --      2.2087                 1.3863                 1.4990
 Frc consts  --      1.5318                 0.9776                 1.0857
 IR Inten    --      6.0013                11.3341                 6.1284

                     34                     35                     36
                      A                      A                      A
 Frequencies --   1144.8009              1232.6730              1248.3476
 Red. masses --      2.1007                 1.2361                 1.4414
 Frc consts  --      1.6221                 1.1066                 1.3234
 IR Inten    --      7.3366                13.9451                 4.8362

                     37                     38                     39
                      A                      A                      A
 Frequencies --   1272.8617              1298.9571              1312.7633
 Red. masses --      1.9516                 1.7238                 2.5732
 Frc consts  --      1.8630                 1.7137                 2.6128
 IR Inten    --     11.8664                51.4923                 6.6546

                     40                     41                     42
                      A                      A                      A
 Frequencies --   1377.5862              1411.7217              1413.4206
 Red. masses --      1.4736                 1.3342                 1.3573
 Frc consts  --      1.6476                 1.5667                 1.5976
 IR Inten    --      1.8784                 7.0254                 7.1014

                     43                     44                     45
                      A                      A                      A
 Frequencies --   1420.6713              1458.4907              1464.3757
 Red. masses --      1.3137                 1.4773                 1.2183
 Frc consts  --      1.5622                 1.8515                 1.5392
 IR Inten    --      7.6001                 4.5093                 1.3118

                     46                     47                     48
                      A                      A                      A
 Frequencies --   1471.6222              1472.2588              1480.3997
 Red. masses --      1.0392                 1.0393                 1.0467
 Frc consts  --      1.3259                 1.3273                 1.3516
 IR Inten    --      5.9898                 6.0532                 4.1573

                     49                     50                     51
                      A                      A                      A
 Frequencies --   1488.0559              1500.8514              1513.0620
 Red. masses --      1.0458                 1.1084                 1.2750
 Frc consts  --      1.3643                 1.4710                 1.7197
 IR Inten    --      0.0286                 7.6026                 5.6881

                     52                     53                     54
                      A                      A                      A
 Frequencies --   2274.6820              2383.7567              2997.5399
 Red. masses --     11.8874                11.8881                 1.0591
 Frc consts  --     36.2393                39.8002                 5.6070
 IR Inten    --      3.2063                 4.1025                25.5091

                     55                     56                     57
                      A                      A                      A
 Frequencies --   3023.6782              3026.3600              3029.2181
 Red. masses --      1.0345                 1.0961                 1.0419
 Frc consts  --      5.5728                 5.9148                 5.6332
 IR Inten    --     34.2954                 9.5919                35.2490

                     58                     59                     60
                      A                      A                      A
 Frequencies --   3034.9507              3085.1110              3085.9245
 Red. masses --      1.0383                 1.1005                 1.1001
 Frc consts  --      5.6348                 6.1715                 6.1722
 IR Inten    --     28.2927                22.3267                 7.1776

                     61                     62                     63
                      A                      A                      A
 Frequencies --   3085.9778              3092.3564              3109.9665
 Red. masses --      1.1001                 1.1007                 1.0877
 Frc consts  --      6.1727                 6.2015                 6.1984
 IR Inten    --      7.1667                24.4075                 2.6912

                     64                     65                     66
                      A                      A                      A
 Frequencies --   3130.9419              3143.8896              3479.6545
 Red. masses --      1.0973                 1.0961                 1.0750
 Frc consts  --      6.3377                 6.3834                 7.6691
 IR Inten    --     22.6642                22.6521                 6.6836

 - Thermochemistry -
 -------------------
 Temperature   298.150 Kelvin.  Pressure   1.00000 Atm.
 Atom     1 has atomic number  6 and mass  12.00000

 Molecular mass:   147.10480 amu.
 Principal axes and moments of inertia in atomic units:
                           1         2         3
     Eigenvalues --   716.484184495.330344948.65154
           X            0.99996   0.00657   0.00542
           Y           -0.00648   0.99984  -0.01686
           Z           -0.00553   0.01682   0.99984
 This molecule is an asymmetric top.
 Rotational symmetry number  1.
 Warning -- assumption of classical behavior for rotation
           may cause significant error
 Rotational temperatures (Kelvin)      0.12089     0.01927     0.01750
 Rotational constants (GHZ):           2.51888     0.40147     0.36469
 Zero-point vibrational energy     529151.2 (Joules/Mol)
                                  126.47017 (Kcal/Mol)
 Warning -- explicit consideration of  19 degrees of freedom as
           vibrations may cause significant error
 Vibrational temperatures:     11.59    60.63    67.06   156.21   192.37
          (Kelvin)            227.09   238.16   308.26   359.41   367.20
                              424.84   450.93   542.20   555.26   604.39
                              679.01   737.72   784.43   795.08   950.82
                             1000.64  1105.89  1249.08  1323.64  1350.99
                             1412.08  1426.28  1489.59  1507.97  1508.63
                             1561.00  1574.02  1595.22  1647.11  1773.54
                             1796.09  1831.36  1868.91  1888.77  1982.04
                             2031.15  2033.60  2044.03  2098.44  2106.91
                             2117.34  2118.25  2129.96  2140.98  2159.39
                             2176.96  3272.76  3429.69  4312.79  4350.40
                             4354.26  4358.37  4366.62  4438.79  4439.96
                             4440.03  4449.21  4474.55  4504.73  4523.36
                             5006.45

 Zero-point correction=                           0.201543 (Hartree/Particle)
 Thermal correction to Energy=                    0.214646
 Thermal correction to Enthalpy=                  0.215590
 Thermal correction to Gibbs Free Energy=         0.159640
 Sum of electronic and zero-point Energies=           -443.332852
 Sum of electronic and thermal Energies=              -443.319749
 Sum of electronic and thermal Enthalpies=            -443.318805
 Sum of electronic and thermal Free Energies=         -443.374755

                     E (Thermal)             CV                S
                      KCal/Mol        Cal/Mol-Kelvin    Cal/Mol-Kelvin
 Total                  134.692             46.146            117.757
 Electronic               0.000              0.000              0.000
 Translational            0.889              2.981             40.869
 Rotational               0.889              2.981             31.145
 Vibrational            132.915             40.185             45.744
 Vibration     1          0.593              1.987              8.440
 Vibration     2          0.595              1.980              5.156
 Vibration     3          0.595              1.979              4.956
 Vibration     4          0.606              1.942              3.294
 Vibration     5          0.613              1.920              2.892
 Vibration     6          0.621              1.894              2.576
 Vibration     7          0.624              1.885              2.486
 Vibration     8          0.644              1.819              2.007
 Vibration     9          0.663              1.763              1.732
 Vibration    10          0.666              1.754              1.694
 Vibration    11          0.689              1.683              1.444
 Vibration    12          0.701              1.648              1.344
 Vibration    13          0.747              1.519              1.052
 Vibration    14          0.755              1.500              1.016
 Vibration    15          0.783              1.427              0.892
 Vibration    16          0.829              1.312              0.732
 Vibration    17          0.868              1.222              0.627
 Vibration    18          0.900              1.150              0.554
 Vibration    19          0.908              1.134              0.539

                           ! Non-Optimized Parameters !
 Normal termination of Gaussian 16 at Mon May 22 15:14:39 2023.
