 Gaussian 16, Revision A.03,
 Gaussian 16:  ES64L-G16RevA.03 25-Dec-2016

 -----------------------------
 # opt freq b3lyp/6-31g(2df,p)
 -----------------------------

 -------------------
 Title Card Required
 -------------------
 Symbolic Z-matrix:
 Charge =  0 Multiplicity = 1

 SCF Done:  E(RB3LYP) =  -663.660490020     A.U. after   13 cycles
 SCF Done:  E(RB3LYP) =  -663.687766167     A.U. after   12 cycles
 SCF Done:  E(RB3LYP) =  -663.688867519     A.U. after   11 cycles
 SCF Done:  E(RB3LYP) =  -663.680826511     A.U. after   13 cycles
 SCF Done:  E(RB3LYP) =  -663.690125630     A.U. after   11 cycles
 SCF Done:  E(RB3LYP) =  -663.689472785     A.U. after   10 cycles
 SCF Done:  E(RB3LYP) =  -663.690338039     A.U. after   10 cycles
 SCF Done:  E(RB3LYP) =  -663.690359114     A.U. after    9 cycles
 SCF Done:  E(RB3LYP) =  -663.690363705     A.U. after    9 cycles
 SCF Done:  E(RB3LYP) =  -663.690365882     A.U. after    9 cycles
 SCF Done:  E(RB3LYP) =  -663.690358837     A.U. after    9 cycles
 SCF Done:  E(RB3LYP) =  -663.690372160     A.U. after    9 cycles
 SCF Done:  E(RB3LYP) =  -663.690372811     A.U. after    7 cycles
 SCF Done:  E(RB3LYP) =  -663.690374790     A.U. after    7 cycles
 SCF Done:  E(RB3LYP) =  -663.690377515     A.U. after    8 cycles
 SCF Done:  E(RB3LYP) =  -663.690377135     A.U. after    7 cycles
 SCF Done:  E(RB3LYP) =  -663.690378199     A.U. after    8 cycles
 SCF Done:  E(RB3LYP) =  -663.690378634     A.U. after    8 cycles
 SCF Done:  E(RB3LYP) =  -663.690379992     A.U. after    8 cycles
 Optimization completed on the basis of negligible forces.
    -- Stationary point found.
 Normal termination of Gaussian 16 at Mon May 22 19:00:32 2023.

 ----------------------------------------------------------------------
 #N Geom=AllCheck Guess=TCheck SCRF=Check GenChk RB3LYP/6-31G(2df,p) Fr
 eq
 ----------------------------------------------------------------------

 Structure from the checkpoint file:  "CCtCCCCCCqCrOCCCCqCrC.chk"
 -------------------
 Title Card Required
 -------------------
 Charge =  0 Multiplicity = 1

                         Standard orientation:
 ---------------------------------------------------------------------
 Center     Atomic      Atomic             Coordinates (Angstroms)
 Number     Number       Type             X           Y           Z
 ---------------------------------------------------------------------
      1          6           0       -8.213159    1.964394   -0.290814
      2          6           0       -7.094271    1.082795    0.012103
      3          6           0       -6.175297    0.347726    0.267904
      4          6           0       -5.039356   -0.520399    0.559450
      5          6           0       -3.709393    0.000974   -0.021394
      6          6           0       -2.525892   -0.919340    0.294585
      7          6           0       -1.206089   -0.403313   -0.288191
      8          6           0        0.030995   -1.222277    0.093662
      9          6           0        0.012140   -2.646318   -0.470503
     10          8           0        1.147691   -0.484411   -0.391138
     11          6           0        2.391458   -0.797699    0.199829
     12          6           0        3.428687    0.197550   -0.306993
     13          6           0        4.817837   -0.047938    0.291655
     14          6           0        5.934066    0.855436   -0.265041
     15          6           0        5.703111    2.339343    0.053885
     16          6           0        7.303131    0.399586    0.257794
     17          1           0       -7.877708    2.995631   -0.448604
     18          1           0       -8.943808    1.977530    0.525828
     19          1           0       -8.739064    1.646884   -1.198269
     20          1           0       -5.234653   -1.527668    0.166401
     21          1           0       -4.935896   -0.639735    1.646796
     22          1           0       -3.517469    1.005389    0.374159
     23          1           0       -3.815325    0.113553   -1.106962
     24          1           0       -2.742761   -1.924286   -0.089848
     25          1           0       -2.429589   -1.024376    1.384777
     26          1           0       -1.031675    0.624516    0.050863
     27          1           0       -1.270257   -0.360030   -1.383261
     28          1           0        0.091908   -1.275972    1.195408
     29          1           0       -0.064123   -2.618553   -1.562552
     30          1           0       -0.836054   -3.214233   -0.077113
     31          1           0        0.921079   -3.193323   -0.204912
     32          1           0        2.707120   -1.824465   -0.047445
     33          1           0        2.314402   -0.742634    1.300108
     34          1           0        3.073535    1.206894   -0.073481
     35          1           0        3.472717    0.126398   -1.401075
     36          1           0        5.099859   -1.095280    0.115784
     37          1           0        4.774742    0.072996    1.384136
     38          1           0        5.936981    0.741733   -1.359103
     39          1           0        5.663952    2.502920    1.137994
     40          1           0        4.768281    2.712619   -0.373682
     41          1           0        6.516661    2.955278   -0.343594
     42          1           0        7.354400    0.488441    1.349844
     43          1           0        8.111415    1.008174   -0.161130
     44          1           0        7.501993   -0.646239    0.000446
 ---------------------------------------------------------------------

 SCF Done:  E(RB3LYP) =  -663.690379992     A.U. after    1 cycles

 The electronic state is 1-A.
 Alpha  occ. eigenvalues --  -19.12803 -10.22656 -10.21933 -10.19806 -10.19715
 Alpha  occ. eigenvalues --  -10.18334 -10.18090 -10.17988 -10.17535 -10.17292
 Alpha  occ. eigenvalues --  -10.17280 -10.17053 -10.16831 -10.16775 -10.16339
 Alpha  occ. eigenvalues --  -10.15971  -1.02198  -0.81330  -0.80703  -0.78362
 Alpha  occ. eigenvalues --   -0.76200  -0.74573  -0.72079  -0.68093  -0.67760
 Alpha  occ. eigenvalues --   -0.66637  -0.63703  -0.59457  -0.58170  -0.56749
 Alpha  occ. eigenvalues --   -0.55224  -0.49365  -0.47716  -0.47513  -0.46956
 Alpha  occ. eigenvalues --   -0.45468  -0.44963  -0.43641  -0.43324  -0.42570
 Alpha  occ. eigenvalues --   -0.41926  -0.41878  -0.41085  -0.40642  -0.39240
 Alpha  occ. eigenvalues --   -0.38985  -0.37857  -0.37197  -0.36852  -0.36024
 Alpha  occ. eigenvalues --   -0.35312  -0.34410  -0.33915  -0.33231  -0.33197
 Alpha  occ. eigenvalues --   -0.32157  -0.31649  -0.31483  -0.30603  -0.29794
 Alpha  occ. eigenvalues --   -0.24637  -0.23977  -0.23939
 Alpha virt. eigenvalues --    0.06454   0.06935   0.08411   0.08646   0.10288
 Alpha virt. eigenvalues --    0.11262   0.11587   0.11843   0.12212   0.12461
 Alpha virt. eigenvalues --    0.12793   0.13989   0.14740   0.15106   0.15661

 Mulliken charges:
               1
     1  C   -0.496900
     2  C    0.107921
     3  C    0.025767
     4  C   -0.360273
     5  C   -0.168147
     6  C   -0.189804
     7  C   -0.201163
     8  C    0.139755
     9  C   -0.400721
    10  O   -0.263931
    11  C   -0.063395
    12  C   -0.204852
    13  C   -0.168369
    14  C    0.043032
    15  C   -0.380893
    16  C   -0.388516
    17  H    0.144862
    18  H    0.144746
    19  H    0.144316
    20  H    0.121618
    21  H    0.121564
    22  H    0.106411
    23  H    0.106611
    24  H    0.097226
    25  H    0.092468
    26  H    0.100438
    27  H    0.100207
    28  H    0.058207
    29  H    0.119802
    30  H    0.116748
    31  H    0.115864
    32  H    0.083688
    33  H    0.079680
    34  H    0.106513
    35  H    0.101850
    36  H    0.087981
    37  H    0.088942
    38  H    0.070650
    39  H    0.108903
    40  H    0.116444
    41  H    0.108720
    42  H    0.110088
    43  H    0.108232
    44  H    0.107712
 Sum of Mulliken charges =  -0.00000

 Dipole moment (field-independent basis, Debye):
    X=              0.1934    Y=             -0.5007    Z=              0.4841  Tot=              0.7228
 Quadrupole moment (field-independent basis, Debye-Ang):
   XX=            -97.7062   YY=            -99.7991   ZZ=           -102.1453
   XY=             -3.4696   XZ=              1.5596   YZ=             -0.5113

  Exact polarizability: 228.035 -15.085 157.552   5.184  -3.790 132.984
 Approx polarizability: 250.582 -24.639 228.914   8.892  -7.606 211.204

                      1                      2                      3
                      A                      A                      A
 Frequencies --      5.4215                16.2827                18.8954
 Red. masses --      1.0114                 2.4330                 4.0027
 Frc consts  --      0.0000                 0.0004                 0.0008
 IR Inten    --      0.0006                 0.0287                 0.0525

                      4                      5                      6
                      A                      A                      A
 Frequencies --     29.8546                40.3904                55.0575
 Red. masses --      3.0389                 2.9779                 2.8586
 Frc consts  --      0.0016                 0.0029                 0.0051
 IR Inten    --      0.0104                 0.1995                 0.0434

                      7                      8                      9
                      A                      A                      A
 Frequencies --     67.7399                80.0207                98.2990
 Red. masses --      3.4908                 1.7754                 2.6336
 Frc consts  --      0.0094                 0.0067                 0.0150
 IR Inten    --      0.2380                 0.4616                 0.2001

                     10                     11                     12
                      A                      A                      A
 Frequencies --    113.4198               120.1631               132.3833
 Red. masses --      2.2923                 3.6965                 2.0312
 Frc consts  --      0.0174                 0.0314                 0.0210
 IR Inten    --      0.7644                 0.6486                 0.0143

                     13                     14                     15
                      A                      A                      A
 Frequencies --    153.5930               179.4326               198.3810
 Red. masses --      2.0653                 3.7866                 2.5857
 Frc consts  --      0.0287                 0.0718                 0.0600
 IR Inten    --      1.2060                 0.4884                 1.3444

                     16                     17                     18
                      A                      A                      A
 Frequencies --    220.7317               225.4944               240.8279
 Red. masses --      2.5975                 1.0721                 1.3834
 Frc consts  --      0.0746                 0.0321                 0.0473
 IR Inten    --      7.1253                 0.1552                 1.1370

                     19                     20                     21
                      A                      A                      A
 Frequencies --    249.2472               253.8766               301.0127
 Red. masses --      1.5303                 1.8725                 3.3141
 Frc consts  --      0.0560                 0.0711                 0.1769
 IR Inten    --      0.6527                 2.1231                 1.6026

                     22                     23                     24
                      A                      A                      A
 Frequencies --    334.0561               348.5168               387.0041
 Red. masses --      3.2851                 2.6918                 4.0071
 Frc consts  --      0.2160                 0.1926                 0.3536
 IR Inten    --      1.2036                 0.0759                 0.0067

                     25                     26                     27
                      A                      A                      A
 Frequencies --    391.9306               425.0807               436.1805
 Red. masses --      2.3924                 2.4506                 2.5688
 Frc consts  --      0.2165                 0.2609                 0.2880
 IR Inten    --      0.0905                 2.0446                 0.9620

                     28                     29                     30
                      A                      A                      A
 Frequencies --    447.2659               502.6950               536.4806
 Red. masses --      2.5052                 4.3838                 2.9201
 Frc consts  --      0.2953                 0.6527                 0.4952
 IR Inten    --      1.1061                 0.8260                 2.4502

                     31                     32                     33
                      A                      A                      A
 Frequencies --    556.0943               735.3111               756.4895
 Red. masses --      3.0812                 1.0829                 1.1273
 Frc consts  --      0.5614                 0.3450                 0.3801
 IR Inten    --      6.0052                 2.7358                 1.2193

                     34                     35                     36
                      A                      A                      A
 Frequencies --    771.7090               777.2357               819.5179
 Red. masses --      3.7898                 1.2422                 2.4812
 Frc consts  --      1.3298                 0.4421                 0.9818
 IR Inten    --      0.1326                 0.2061                 0.5178

                     37                     38                     39
                      A                      A                      A
 Frequencies --    850.0017               862.6090               897.8210
 Red. masses --      2.3003                 1.2528                 1.2953
 Frc consts  --      0.9792                 0.5492                 0.6152
 IR Inten    --      0.8107                 0.9237                 0.5666

                     40                     41                     42
                      A                      A                      A
 Frequencies --    926.3599               930.0653               954.5388
 Red. masses --      1.4867                 1.7431                 1.8803
 Frc consts  --      0.7517                 0.8884                 1.0094
 IR Inten    --      3.4188                 6.2179                 5.7608

                     43                     44                     45
                      A                      A                      A
 Frequencies --    965.6234              1000.9563              1013.3016
 Red. masses --      1.4569                 1.4262                 3.2778
 Frc consts  --      0.8004                 0.8419                 1.9829
 IR Inten    --      0.1395                 1.4526                 1.8085

                     46                     47                     48
                      A                      A                      A
 Frequencies --   1021.5726              1027.5153              1052.2028
 Red. masses --      1.3462                 3.1477                 2.5458
 Frc consts  --      0.8277                 1.9580                 1.6606
 IR Inten    --      1.5831                 2.9152                 1.8506

                     49                     50                     51
                      A                      A                      A
 Frequencies --   1053.5827              1054.4919              1060.3123
 Red. masses --      1.4057                 1.6527                 2.4380
 Frc consts  --      0.9194                 1.0828                 1.6149
 IR Inten    --      0.9925                 1.2273                 1.1013

                     52                     53                     54
                      A                      A                      A
 Frequencies --   1065.7093              1102.8624              1131.6354
 Red. masses --      2.3801                 3.1282                 1.9252
 Frc consts  --      1.5927                 2.2418                 1.4525
 IR Inten    --      0.7444                22.8062                25.0357

                     55                     56                     57
                      A                      A                      A
 Frequencies --   1135.3132              1153.1107              1158.2407
 Red. masses --      1.9964                 2.9769                 2.3710
 Frc consts  --      1.5161                 2.3321                 1.8741
 IR Inten    --     51.5989               201.2919                19.8366

                     58                     59                     60
                      A                      A                      A
 Frequencies --   1168.7536              1191.1609              1195.1298
 Red. masses --      3.3621                 1.7894                 1.7779
 Frc consts  --      2.7059                 1.4959                 1.4962
 IR Inten    --      0.2900                 1.3378                 4.9153

                     61                     62                     63
                      A                      A                      A
 Frequencies --   1213.8534              1235.0378              1248.3842
 Red. masses --      1.7903                 1.3768                 1.2832
 Frc consts  --      1.5542                 1.2373                 1.1783
 IR Inten    --     20.9611                 2.9412                 5.3140

                     64                     65                     66
                      A                      A                      A
 Frequencies --   1274.2647              1279.7868              1305.0582
 Red. masses --      1.2891                 1.3121                 1.2033
 Frc consts  --      1.2332                 1.2662                 1.2075
 IR Inten    --      4.4553                 2.5729                 0.8685

                     67                     68                     69
                      A                      A                      A
 Frequencies --   1315.2384              1318.3806              1320.2793
 Red. masses --      1.3053                 1.0928                 1.1343
 Frc consts  --      1.3303                 1.1191                 1.1650
 IR Inten    --      1.1690                 0.0575                 1.4604

                     70                     71                     72
                      A                      A                      A
 Frequencies --   1328.6298              1345.6166              1362.6118
 Red. masses --      1.0770                 1.3181                 1.3259
 Frc consts  --      1.1201                 1.4061                 1.4505
 IR Inten    --      0.5219                 1.3133                41.2055

                     73                     74                     75
                      A                      A                      A
 Frequencies --   1371.6430              1376.2344              1385.1202
 Red. masses --      1.3303                 1.2998                 1.4802
 Frc consts  --      1.4746                 1.4505                 1.6731
 IR Inten    --      2.6884                18.8516                 9.1112

                     76                     77                     78
                      A                      A                      A
 Frequencies --   1393.0015              1398.7285              1400.8770
 Red. masses --      1.5235                 1.5974                 1.2786
 Frc consts  --      1.7417                 1.8413                 1.4783
 IR Inten    --      0.1873                 2.3624                 7.0917

                     79                     80                     81
                      A                      A                      A
 Frequencies --   1406.9975              1415.6537              1422.4983
 Red. masses --      1.2994                 1.2484                 1.2456
 Frc consts  --      1.5156                 1.4741                 1.4850
 IR Inten    --     25.3398                 8.6713                 3.0778

                     82                     83                     84
                      A                      A                      A
 Frequencies --   1438.4428              1474.3741              1479.5208
 Red. masses --      1.4421                 1.0829                 1.0718
 Frc consts  --      1.7580                 1.3869                 1.3823
 IR Inten    --      6.3595                 0.9061                 0.3316

                     85                     86                     87
                      A                      A                      A
 Frequencies --   1479.5747              1480.0330              1481.1664
 Red. masses --      1.0414                 1.0399                 1.0706
 Frc consts  --      1.3432                 1.3421                 1.3838
 IR Inten    --      4.7802                 4.9112                 0.2563

                     88                     89                     90
                      A                      A                      A
 Frequencies --   1489.3189              1489.9357              1492.9023
 Red. masses --      1.0453                 1.0791                 1.0655
 Frc consts  --      1.3661                 1.4114                 1.3992
 IR Inten    --      0.8249                 0.1747                 3.6469

                     91                     92                     93
                      A                      A                      A
 Frequencies --   1495.3677              1499.4908              1502.3251
 Red. masses --      1.0585                 1.0760                 1.0743
 Frc consts  --      1.3946                 1.4255                 1.4286
 IR Inten    --      0.5414                 4.0823                 0.6416

                     94                     95                     96
                      A                      A                      A
 Frequencies --   1505.2277              1510.9490              1511.5102
 Red. masses --      1.0549                 1.0916                 1.0560
 Frc consts  --      1.4082                 1.4682                 1.4215
 IR Inten    --      2.8000                 6.5308                 4.8169

                     97                     98                     99
                      A                      A                      A
 Frequencies --   1528.5929              2373.3454              2938.6263
 Red. masses --      1.0905                11.8142                 1.0765
 Frc consts  --      1.5013                39.2082                 5.4770
 IR Inten    --      5.5773                 0.0428                16.5584

                    100                    101                    102
                      A                      A                      A
 Frequencies --   2948.4320              2978.7872              2991.7988
 Red. masses --      1.0636                 1.0989                 1.0755
 Frc consts  --      5.4475                 5.7449                 5.6719
 IR Inten    --     62.6584                37.6251                 3.8356

                    103                    104                    105
                      A                      A                      A
 Frequencies --   2999.3591              3003.0022              3006.1068
 Red. masses --      1.0650                 1.0598                 1.0591
 Frc consts  --      5.6450                 5.6310                 5.6388
 IR Inten    --     30.8974                 1.8505                35.6856

                    106                    107                    108
                      A                      A                      A
 Frequencies --   3021.3017              3023.7235              3024.5364
 Red. masses --      1.0360                 1.0349                 1.0599
 Frc consts  --      5.5719                 5.5747                 5.7123
 IR Inten    --     28.0508                40.2604                 8.9427

                    109                    110                    111
                      A                      A                      A
 Frequencies --   3027.0914              3029.7428              3030.2318
 Red. masses --      1.0386                 1.0862                 1.0998
 Frc consts  --      5.6075                 5.8747                 5.9499
 IR Inten    --     22.9055                22.8255                 8.4263

                    112                    113                    114
                      A                      A                      A
 Frequencies --   3034.4340              3034.6638              3036.5849
 Red. masses --      1.0681                 1.0693                 1.0753
 Frc consts  --      5.7945                 5.8019                 5.8421
 IR Inten    --     16.1261                61.0499                 5.9509

                    115                    116                    117
                      A                      A                      A
 Frequencies --   3040.7867              3067.6510              3081.3039
 Red. masses --      1.0520                 1.1034                 1.1030
 Frc consts  --      5.7309                 6.1177                 6.1700
 IR Inten    --     16.8519                 3.4628                 3.4421

                    118                    119                    120
                      A                      A                      A
 Frequencies --   3081.9393              3082.8888              3083.0495
 Red. masses --      1.1042                 1.1001                 1.1001
 Frc consts  --      6.1796                 6.1604                 6.1606
 IR Inten    --    105.1430                16.5432                14.5689

                    121                    122                    123
                      A                      A                      A
 Frequencies --   3085.5324              3091.4862              3096.8725
 Red. masses --      1.1001                 1.0998                 1.1012
 Frc consts  --      6.1706                 6.1929                 6.2227
 IR Inten    --     12.6927                68.5602                46.3817

                    124                    125                    126
                      A                      A                      A
 Frequencies --   3107.8422              3112.1284              3113.0321
 Red. masses --      1.0995                 1.1012                 1.1004
 Frc consts  --      6.2572                 6.2841                 6.2832
 IR Inten    --     37.0591                30.4394                34.8726

 - Thermochemistry -
 -------------------
 Temperature   298.150 Kelvin.  Pressure   1.00000 Atm.
 Atom     1 has atomic number  6 and mass  12.00000

 Molecular mass:   224.21402 amu.
 Principal axes and moments of inertia in atomic units:
                           1         2         3
     Eigenvalues --  1409.85453********************
           X            1.00000   0.00185   0.00193
           Y           -0.00184   0.99999  -0.00455
           Z           -0.00194   0.00455   0.99999
 This molecule is an asymmetric top.
 Rotational symmetry number  1.
 Warning -- assumption of classical behavior for rotation
           may cause significant error
 Rotational temperatures (Kelvin)      0.06143     0.00471     0.00444
 Rotational constants (GHZ):           1.28009     0.09813     0.09255
 Zero-point vibrational energy    1049853.9 (Joules/Mol)
                                  250.92111 (Kcal/Mol)
 Warning -- explicit consideration of  31 degrees of freedom as
           vibrations may cause significant error
 Vibrational temperatures:      7.80    23.43    27.19    42.95    58.11
          (Kelvin)             79.22    97.46   115.13   141.43   163.19
                              172.89   190.47   220.99   258.16   285.43
                              317.58   324.44   346.50   358.61   365.27
                              433.09   480.63   501.44   556.81   563.90
                              611.60   627.57   643.52   723.27   771.88
                              800.10  1057.95  1088.42  1110.32  1118.27
                             1179.10  1222.96  1241.10  1291.76  1332.83
                             1338.16  1373.37  1389.32  1440.15  1457.91
                             1469.82  1478.37  1513.89  1515.87  1517.18
                             1525.55  1533.32  1586.77  1628.17  1633.46
                             1659.07  1666.45  1681.58  1713.81  1719.53
                             1746.46  1776.94  1796.15  1833.38  1841.33
                             1877.69  1892.33  1896.86  1899.59  1911.60
                             1936.04  1960.49  1973.49  1980.09  1992.88
                             2004.22  2012.46  2015.55  2024.36  2036.81
                             2046.66  2069.60  2121.30  2128.70  2128.78
                             2129.44  2131.07  2142.80  2143.69  2147.95
                             2151.50  2157.43  2161.51  2165.69  2173.92
                             2174.73  2199.30  3414.71  4228.03  4242.14
                             4285.81  4304.53  4315.41  4320.65  4325.12
                             4346.98  4350.46  4351.63  4355.31  4359.12
                             4359.83  4365.87  4366.20  4368.97  4375.01
                             4413.67  4433.31  4434.22  4435.59  4435.82
                             4439.39  4447.96  4455.71  4471.49  4477.66
                             4478.96

 Zero-point correction=                           0.399868 (Hartree/Particle)
 Thermal correction to Energy=                    0.421475
 Thermal correction to Enthalpy=                  0.422419
 Thermal correction to Gibbs Free Energy=         0.343316
 Sum of electronic and zero-point Energies=           -663.290512
 Sum of electronic and thermal Energies=              -663.268905
 Sum of electronic and thermal Enthalpies=            -663.267961
 Sum of electronic and thermal Free Energies=         -663.347064

                     E (Thermal)             CV                S
                      KCal/Mol        Cal/Mol-Kelvin    Cal/Mol-Kelvin
 Total                  264.480             75.469            166.487
 Electronic               0.000              0.000              0.000
 Translational            0.889              2.981             42.125
 Rotational               0.889              2.981             34.580
 Vibrational            262.702             69.507             89.783
 Vibration     1          0.593              1.987              9.227
 Vibration     2          0.593              1.986              7.043
 Vibration     3          0.593              1.986              6.747
 Vibration     4          0.594              1.984              5.839
 Vibration     5          0.594              1.981              5.240
 Vibration     6          0.596              1.976              4.627
 Vibration     7          0.598              1.970              4.218
 Vibration     8          0.600              1.963              3.890
 Vibration     9          0.604              1.950              3.488
 Vibration    10          0.607              1.938              3.210
 Vibration    11          0.609              1.932              3.098
 Vibration    12          0.612              1.921              2.911
 Vibration    13          0.619              1.899              2.627
 Vibration    14          0.629              1.868              2.334
 Vibration    15          0.637              1.842              2.148
 Vibration    16          0.647              1.810              1.953
 Vibration    17          0.650              1.802              1.915
 Vibration    18          0.658              1.778              1.797
 Vibration    19          0.662              1.764              1.736
 Vibration    20          0.665              1.756              1.704
 Vibration    21          0.693              1.672              1.411
 Vibration    22          0.716              1.607              1.240
 Vibration    23          0.726              1.578              1.173
 Vibration    24          0.755              1.498              1.012
 Vibration    25          0.759              1.487              0.993
 Vibration    26          0.787              1.416              0.875
 Vibration    27          0.797              1.391              0.839
 Vibration    28          0.806              1.367              0.804
 Vibration    29          0.858              1.244              0.651
 Vibration    30          0.891              1.169              0.573
 Vibration    31          0.912              1.126              0.532

 Optimization completed on the basis of negligible forces.
    -- Stationary point found.
 Normal termination of Gaussian 16 at Mon May 22 22:04:42 2023.
