 Gaussian 16, Revision A.03,
 Gaussian 16:  ES64L-G16RevA.03 25-Dec-2016

 -----------------------------
 # opt freq b3lyp/6-31g(2df,p)
 -----------------------------

 -------------------
 Title Card Required
 -------------------
 Symbolic Z-matrix:
 Charge =  0 Multiplicity = 1

 SCF Done:  E(RB3LYP) =  -563.910153919     A.U. after   13 cycles
 SCF Done:  E(RB3LYP) =  -563.941299656     A.U. after   12 cycles
 SCF Done:  E(RB3LYP) =  -563.945032402     A.U. after   11 cycles
 SCF Done:  E(RB3LYP) =  -563.947617905     A.U. after   10 cycles
 SCF Done:  E(RB3LYP) =  -563.945197344     A.U. after   12 cycles
 SCF Done:  E(RB3LYP) =  -563.947655877     A.U. after   11 cycles
 SCF Done:  E(RB3LYP) =  -563.948400342     A.U. after   11 cycles
 SCF Done:  E(RB3LYP) =  -563.948575401     A.U. after   11 cycles
 SCF Done:  E(RB3LYP) =  -563.948979033     A.U. after   10 cycles
 SCF Done:  E(RB3LYP) =  -563.949018263     A.U. after   10 cycles
 SCF Done:  E(RB3LYP) =  -563.949028592     A.U. after    6 cycles
 SCF Done:  E(RB3LYP) =  -563.949028693     A.U. after    8 cycles
 SCF Done:  E(RB3LYP) =  -563.949028841     A.U. after    8 cycles
 SCF Done:  E(RB3LYP) =  -563.949029033     A.U. after    8 cycles
 SCF Done:  E(RB3LYP) =  -563.949029259     A.U. after    8 cycles
 SCF Done:  E(RB3LYP) =  -563.949029437     A.U. after    8 cycles
 SCF Done:  E(RB3LYP) =  -563.949029588     A.U. after    8 cycles
 SCF Done:  E(RB3LYP) =  -563.949029665     A.U. after    8 cycles
 SCF Done:  E(RB3LYP) =  -563.949029688     A.U. after    6 cycles
 Optimization completed on the basis of negligible forces.
    -- Stationary point found.
 Normal termination of Gaussian 16 at Mon May 22 22:45:15 2023.

 ----------------------------------------------------------------------
 #N Geom=AllCheck Guess=TCheck SCRF=Check GenChk RB3LYP/6-31G(2df,p) Fr
 eq
 ----------------------------------------------------------------------

 Structure from the checkpoint file:  "CCtCCCC1CCC1CCqCrqCrN.chk"
 -------------------
 Title Card Required
 -------------------
 Charge =  0 Multiplicity = 1

                         Standard orientation:
 ---------------------------------------------------------------------
 Center     Atomic      Atomic             Coordinates (Angstroms)
 Number     Number       Type             X           Y           Z
 ---------------------------------------------------------------------
      1          6           0        5.577954   -1.405804    0.045785
      2          6           0        4.292526   -0.752713   -0.159164
      3          6           0        3.231021   -0.213288   -0.339463
      4          6           0        1.939754    0.440714   -0.523796
      5          6           0        1.241927    0.763539    0.815253
      6          6           0       -0.085762    1.515784    0.703440
      7          6           0       -0.107431    2.936795    0.074365
      8          6           0       -1.516894    2.625312   -0.482243
      9          6           0       -1.236568    1.106795   -0.284874
     10          6           0       -2.425244    0.256070    0.178435
     11          6           0       -2.392923   -1.288726    0.015711
     12          6           0       -2.318523   -1.682709   -1.467544
     13          6           0       -1.227293   -1.924917    0.784043
     14          7           0       -3.633356   -1.891606    0.550259
     15          1           0        5.596630   -2.403234   -0.407704
     16          1           0        5.799634   -1.525138    1.112320
     17          1           0        6.396022   -0.826922   -0.397562
     18          1           0        1.292030   -0.202162   -1.133985
     19          1           0        2.078423    1.361668   -1.104608
     20          1           0        1.928084    1.366771    1.423120
     21          1           0        1.100361   -0.172448    1.365675
     22          1           0       -0.519045    1.578589    1.710010
     23          1           0        0.627249    3.042229   -0.729671
     24          1           0        0.001855    3.787858    0.751338
     25          1           0       -1.759927    2.966806   -1.491748
     26          1           0       -2.303747    2.968433    0.197983
     27          1           0       -0.812404    0.704190   -1.210853
     28          1           0       -3.311960    0.607738   -0.369846
     29          1           0       -2.624333    0.482328    1.236310
     30          1           0       -1.393976   -1.333395   -1.935929
     31          1           0       -3.158551   -1.255930   -2.028288
     32          1           0       -2.365619   -2.770362   -1.567302
     33          1           0       -0.262497   -1.636135    0.361122
     34          1           0       -1.308727   -3.014636    0.744905
     35          1           0       -1.237025   -1.623668    1.838290
     36          1           0       -4.437861   -1.470873    0.089790
     37          1           0       -3.726391   -1.651579    1.535120
 ---------------------------------------------------------------------

 SCF Done:  E(RB3LYP) =  -563.949029688     A.U. after    1 cycles

 The electronic state is 1-A.
 Alpha  occ. eigenvalues --  -14.29985 -10.21255 -10.19836 -10.19742 -10.18339
 Alpha  occ. eigenvalues --  -10.18231 -10.17958 -10.17595 -10.17532 -10.17325
 Alpha  occ. eigenvalues --  -10.16676 -10.16592 -10.16379 -10.16026  -0.88421
 Alpha  occ. eigenvalues --   -0.84617  -0.78980  -0.75842  -0.75427  -0.70735
 Alpha  occ. eigenvalues --   -0.69581  -0.68190  -0.65276  -0.62105  -0.59924
 Alpha  occ. eigenvalues --   -0.54334  -0.53633  -0.48386  -0.47710  -0.46671
 Alpha  occ. eigenvalues --   -0.45777  -0.45569  -0.44631  -0.43015  -0.42067
 Alpha  occ. eigenvalues --   -0.41974  -0.41925  -0.41657  -0.38361  -0.38116
 Alpha  occ. eigenvalues --   -0.37024  -0.36819  -0.36299  -0.35869  -0.35447
 Alpha  occ. eigenvalues --   -0.33095  -0.32181  -0.31734  -0.30825  -0.29470
 Alpha  occ. eigenvalues --   -0.28651  -0.24016  -0.23978  -0.22893
 Alpha virt. eigenvalues --    0.05758   0.06578   0.07217   0.08469   0.09497
 Alpha virt. eigenvalues --    0.10956   0.11576   0.11874   0.12310   0.12993
 Alpha virt. eigenvalues --    0.14302   0.15028   0.15724   0.15828   0.16235

 Mulliken charges:
               1
     1  C   -0.497156
     2  C    0.117216
     3  C    0.021107
     4  C   -0.367821
     5  C   -0.217932
     6  C    0.030557
     7  C   -0.245538
     8  C   -0.237095
     9  C    0.014593
    10  C   -0.230549
    11  C    0.236040
    12  C   -0.389404
    13  C   -0.394361
    14  N   -0.523617
    15  H    0.144869
    16  H    0.144781
    17  H    0.144487
    18  H    0.125860
    19  H    0.124194
    20  H    0.103180
    21  H    0.109600
    22  H    0.062855
    23  H    0.099969
    24  H    0.094062
    25  H    0.093078
    26  H    0.095799
    27  H    0.069328
    28  H    0.082256
    29  H    0.075713
    30  H    0.112239
    31  H    0.101917
    32  H    0.122575
    33  H    0.123325
    34  H    0.122202
    35  H    0.100790
    36  H    0.215373
    37  H    0.215508
 Sum of Mulliken charges =  -0.00000

 Dipole moment (field-independent basis, Debye):
    X=             -0.1025    Y=              1.0443    Z=              0.3326  Tot=              1.1007
 Quadrupole moment (field-independent basis, Debye-Ang):
   XX=            -82.5788   YY=            -93.0731   ZZ=            -86.9222
   XY=             -6.6292   XZ=             -0.0252   YZ=              0.1508

  Exact polarizability: 180.620 -13.158 142.790   4.148  -1.612 118.680
 Approx polarizability: 233.387 -21.186 195.016   6.771  -3.541 186.098

                      1                      2                      3
                      A                      A                      A
 Frequencies --     16.2720                22.2206                30.1173
 Red. masses --      1.0118                 3.0498                 3.3942
 Frc consts  --      0.0002                 0.0009                 0.0018
 IR Inten    --      0.0005                 0.1076                 0.0941

                      4                      5                      6
                      A                      A                      A
 Frequencies --     62.5308                77.3821                83.9840
 Red. masses --      2.9507                 3.2069                 2.7256
 Frc consts  --      0.0068                 0.0113                 0.0113
 IR Inten    --      0.0846                 0.5985                 0.0366

                      7                      8                      9
                      A                      A                      A
 Frequencies --    131.7290               168.8789               189.7212
 Red. masses --      2.5981                 2.6035                 2.6185
 Frc consts  --      0.0266                 0.0437                 0.0555
 IR Inten    --      0.4135                 0.5889                 0.8730

                     10                     11                     12
                      A                      A                      A
 Frequencies --    204.9052               217.5878               227.1516
 Red. masses --      2.2708                 1.4246                 1.8284
 Frc consts  --      0.0562                 0.0397                 0.0556
 IR Inten    --      3.3632                 5.4357                 4.4845

                     13                     14                     15
                      A                      A                      A
 Frequencies --    266.9007               279.3169               286.1616
 Red. masses --      1.2196                 1.1013                 3.2709
 Frc consts  --      0.0512                 0.0506                 0.1578
 IR Inten    --      2.9148                24.7298                 2.0853

                     16                     17                     18
                      A                      A                      A
 Frequencies --    304.2467               335.8021               354.7331
 Red. masses --      2.9027                 2.3338                 2.2775
 Frc consts  --      0.1583                 0.1551                 0.1689
 IR Inten    --      2.2960                 2.4487                 0.4678

                     19                     20                     21
                      A                      A                      A
 Frequencies --    366.8252               389.9573               426.9737
 Red. masses --      1.9867                 3.7555                 2.6249
 Frc consts  --      0.1575                 0.3365                 0.2820
 IR Inten    --      1.3066                 0.0154                 1.9189

                     22                     23                     24
                      A                      A                      A
 Frequencies --    444.2322               470.7843               496.9103
 Red. masses --      2.2311                 5.3975                 2.5283
 Frc consts  --      0.2594                 0.7048                 0.3678
 IR Inten    --      5.2605                 1.1135                 4.5306

                     25                     26                     27
                      A                      A                      A
 Frequencies --    570.6523               637.0367               736.1495
 Red. masses --      2.6250                 2.4996                 1.8290
 Frc consts  --      0.5036                 0.5977                 0.5840
 IR Inten    --      0.3793                 1.5900                 0.6538

                     28                     29                     30
                      A                      A                      A
 Frequencies --    750.2021               768.9113               788.9751
 Red. masses --      1.5823                 2.4802                 3.5069
 Frc consts  --      0.5247                 0.8640                 1.2862
 IR Inten    --      4.0425                 0.4429                 0.1351

                     31                     32                     33
                      A                      A                      A
 Frequencies --    821.8071               871.9320               885.3703
 Red. masses --      1.5082                 1.7278                 1.8290
 Frc consts  --      0.6001                 0.7740                 0.8447
 IR Inten    --      0.3136                 3.2169               132.9111

                     34                     35                     36
                      A                      A                      A
 Frequencies --    908.1952               925.9652               936.1941
 Red. masses --      2.1568                 1.8924                 2.0050
 Frc consts  --      1.0482                 0.9560                 1.0354
 IR Inten    --      0.3105                18.9019                 1.2150

                     37                     38                     39
                      A                      A                      A
 Frequencies --    945.5514               959.4001               969.0463
 Red. masses --      1.7158                 1.6480                 2.2379
 Frc consts  --      0.9039                 0.8938                 1.2382
 IR Inten    --      0.6242                 1.3863                 4.8740

                     40                     41                     42
                      A                      A                      A
 Frequencies --   1002.3601              1014.1239              1028.6610
 Red. masses --      1.2856                 1.5412                 1.5978
 Frc consts  --      0.7610                 0.9339                 0.9962
 IR Inten    --      0.3967                13.2895                 5.9275

                     43                     44                     45
                      A                      A                      A
 Frequencies --   1053.2851              1053.9808              1079.4826
 Red. masses --      1.3963                 1.3958                 2.0044
 Frc consts  --      0.9127                 0.9136                 1.3761
 IR Inten    --      0.8471                 0.4981                 2.0260

                     46                     47                     48
                      A                      A                      A
 Frequencies --   1090.1455              1109.2488              1129.2554
 Red. masses --      2.5452                 1.8748                 2.0110
 Frc consts  --      1.7822                 1.3591                 1.5109
 IR Inten    --      0.8605                 0.2561                 1.2568

                     49                     50                     51
                      A                      A                      A
 Frequencies --   1137.0559              1168.6938              1196.6258
 Red. masses --      2.2993                 3.2155                 1.3592
 Frc consts  --      1.7515                 2.5876                 1.1467
 IR Inten    --      0.1410                 0.2897                 9.1690

                     52                     53                     54
                      A                      A                      A
 Frequencies --   1201.4851              1214.3600              1227.8849
 Red. masses --      1.2601                 1.8539                 1.3622
 Frc consts  --      1.0717                 1.6108                 1.2101
 IR Inten    --      2.2446                30.9572                 0.2317

                     55                     56                     57
                      A                      A                      A
 Frequencies --   1252.6113              1260.2160              1263.4353
 Red. masses --      2.2700                 1.2322                 1.4031
 Frc consts  --      2.0985                 1.1530                 1.3196
 IR Inten    --     19.2463                 0.5662                 0.2694

                     58                     59                     60
                      A                      A                      A
 Frequencies --   1278.5735              1284.8034              1295.9410
 Red. masses --      1.4532                 1.4124                 1.4737
 Frc consts  --      1.3997                 1.3736                 1.4582
 IR Inten    --      1.7125                 0.4640                 3.9759

                     61                     62                     63
                      A                      A                      A
 Frequencies --   1320.9349              1338.6778              1364.9397
 Red. masses --      1.2201                 1.3191                 1.5097
 Frc consts  --      1.2543                 1.3928                 1.6571
 IR Inten    --      3.0773                 1.8703                 9.7603

                     64                     65                     66
                      A                      A                      A
 Frequencies --   1366.9998              1387.2318              1397.6279
 Red. masses --      1.4548                 1.4913                 1.3815
 Frc consts  --      1.6017                 1.6909                 1.5900
 IR Inten    --      3.0884                 0.7058                 7.3320

                     67                     68                     69
                      A                      A                      A
 Frequencies --   1403.1598              1415.5417              1416.6033
 Red. masses --      1.4712                 1.2512                 1.2498
 Frc consts  --      1.7066                 1.4772                 1.4776
 IR Inten    --      9.3816                 4.8752                13.6050

                     70                     71                     72
                      A                      A                      A
 Frequencies --   1469.2959              1472.6984              1479.4136
 Red. masses --      1.0813                 1.0740                 1.0647
 Frc consts  --      1.3754                 1.3724                 1.3730
 IR Inten    --      0.5997                 6.6883                 2.6158

                     73                     74                     75
                      A                      A                      A
 Frequencies --   1479.6947              1479.9307              1484.5317
 Red. masses --      1.0399                 1.0423                 1.0839
 Frc consts  --      1.3414                 1.3450                 1.4074
 IR Inten    --      4.7630                 3.9436                 1.8008

                     76                     77                     78
                      A                      A                      A
 Frequencies --   1487.5858              1491.5077              1501.9763
 Red. masses --      1.0639                 1.0686                 1.0922
 Frc consts  --      1.3871                 1.4007                 1.4517
 IR Inten    --      2.6421                 0.8056                 0.5608

                     79                     80                     81
                      A                      A                      A
 Frequencies --   1503.5601              1509.2405              1655.7841
 Red. masses --      1.1061                 1.0611                 1.0940
 Frc consts  --      1.4732                 1.4241                 1.7672
 IR Inten    --      5.7417                 5.2568                23.2892

                     82                     83                     84
                      A                      A                      A
 Frequencies --   2373.2849              2985.5206              3010.4179
 Red. masses --     11.8113                 1.0592                 1.0693
 Frc consts  --     39.1967                 5.5625                 5.7095
 IR Inten    --      0.0416                29.2705                 9.6049

                     85                     86                     87
                      A                      A                      A
 Frequencies --   3015.7999              3019.8568              3023.7457
 Red. masses --      1.0723                 1.0971                 1.0348
 Frc consts  --      5.7462                 5.8947                 5.5746
 IR Inten    --     29.7194                12.6618                40.8887

                     88                     89                     90
                      A                      A                      A
 Frequencies --   3028.7211              3032.2740              3034.2320
 Red. masses --      1.0393                 1.0684                 1.0463
 Frc consts  --      5.6173                 5.7880                 5.6755
 IR Inten    --     28.9001                36.0925                 8.4758

                     91                     92                     93
                      A                      A                      A
 Frequencies --   3040.3092              3043.8894              3053.5543
 Red. masses --      1.0860                 1.0619                 1.0690
 Frc consts  --      5.9147                 5.7970                 5.8725
 IR Inten    --      0.9603                46.3752                51.3550

                     94                     95                     96
                      A                      A                      A
 Frequencies --   3054.8618              3077.2748              3082.9673
 Red. masses --      1.0761                 1.0992                 1.1001
 Frc consts  --      5.9169                 6.1326                 6.1606
 IR Inten    --     30.2424                44.1632                12.0453

                     97                     98                     99
                      A                      A                      A
 Frequencies --   3083.0797              3092.5055              3097.3462
 Red. masses --      1.1000                 1.1053                 1.0971
 Frc consts  --      6.1607                 6.2282                 6.2012
 IR Inten    --     11.8743                18.9999                21.5052

                    100                    101                    102
                      A                      A                      A
 Frequencies --   3101.9929              3108.2786              3119.0794
 Red. masses --      1.0955                 1.1068                 1.1014
 Frc consts  --      6.2107                 6.3002                 6.3134
 IR Inten    --     25.9679                66.5774                18.1153

                    103                    104                    105
                      A                      A                      A
 Frequencies --   3130.7568              3460.6295              3538.7011
 Red. masses --      1.1001                 1.0489                 1.0915
 Frc consts  --      6.3531                 7.4010                 8.0532
 IR Inten    --     36.7337                 1.7417                 0.7183

 - Thermochemistry -
 -------------------
 Temperature   298.150 Kelvin.  Pressure   1.00000 Atm.
 Atom     1 has atomic number  6 and mass  12.00000

 Molecular mass:   193.18305 amu.
 Principal axes and moments of inertia in atomic units:
                           1         2         3
     Eigenvalues --  2147.784265469.385176938.92587
           X            0.99997  -0.00633   0.00389
           Y            0.00633   0.99998   0.00004
           Z           -0.00389  -0.00001   0.99999
 This molecule is an asymmetric top.
 Rotational symmetry number  1.
 Warning -- assumption of classical behavior for rotation
           may cause significant error
 Rotational temperatures (Kelvin)      0.04033     0.01584     0.01248
 Rotational constants (GHZ):           0.84028     0.32997     0.26009
 Zero-point vibrational energy     877514.4 (Joules/Mol)
                                  209.73098 (Kcal/Mol)
 Warning -- explicit consideration of  25 degrees of freedom as
           vibrations may cause significant error
 Vibrational temperatures:     23.41    31.97    43.33    89.97   111.34
          (Kelvin)            120.83   189.53   242.98   272.97   294.81
                              313.06   326.82   384.01   401.87   411.72
                              437.74   483.14   510.38   527.78   561.06
                              614.32   639.15   677.35   714.94   821.04
                              916.55  1059.15  1079.37  1106.29  1135.16
                             1182.40  1254.52  1273.85  1306.69  1332.26
                             1346.97  1360.44  1380.36  1394.24  1442.17
                             1459.10  1480.01  1515.44  1516.44  1553.13
                             1568.48  1595.96  1624.75  1635.97  1681.49
                             1721.68  1728.67  1747.19  1766.65  1802.23
                             1813.17  1817.80  1839.58  1848.55  1864.57
                             1900.53  1926.06  1963.84  1966.81  1995.92
                             2010.87  2018.83  2036.65  2038.18  2113.99
                             2118.88  2128.55  2128.95  2129.29  2135.91
                             2140.30  2145.95  2161.01  2163.29  2171.46
                             2382.30  3414.63  4295.50  4331.32  4339.06
                             4344.90  4350.50  4357.65  4362.77  4365.58
                             4374.33  4379.48  4393.38  4395.26  4427.51
                             4435.70  4435.86  4449.43  4456.39  4463.08
                             4472.12  4487.66  4504.46  4979.07  5091.40

 Zero-point correction=                           0.334228 (Hartree/Particle)
 Thermal correction to Energy=                    0.351472
 Thermal correction to Enthalpy=                  0.352416
 Thermal correction to Gibbs Free Energy=         0.287071
 Sum of electronic and zero-point Energies=           -563.614802
 Sum of electronic and thermal Energies=              -563.597558
 Sum of electronic and thermal Enthalpies=            -563.596614
 Sum of electronic and thermal Free Energies=         -563.661959

                     E (Thermal)             CV                S
                      KCal/Mol        Cal/Mol-Kelvin    Cal/Mol-Kelvin
 Total                  220.552             63.590            137.529
 Electronic               0.000              0.000              0.000
 Translational            0.889              2.981             41.681
 Rotational               0.889              2.981             32.766
 Vibrational            218.774             57.628             63.082
 Vibration     1          0.593              1.986              7.044
 Vibration     2          0.593              1.985              6.425
 Vibration     3          0.594              1.984              5.822
 Vibration     4          0.597              1.972              4.376
 Vibration     5          0.599              1.964              3.956
 Vibration     6          0.601              1.960              3.796
 Vibration     7          0.612              1.922              2.921
 Vibration     8          0.625              1.881              2.448
 Vibration     9          0.633              1.854              2.231
 Vibration    10          0.640              1.833              2.089
 Vibration    11          0.646              1.814              1.979
 Vibration    12          0.651              1.800              1.901
 Vibration    13          0.672              1.734              1.616
 Vibration    14          0.680              1.712              1.538
 Vibration    15          0.684              1.699              1.497
 Vibration    16          0.695              1.666              1.393
 Vibration    17          0.717              1.604              1.232
 Vibration    18          0.731              1.566              1.145
 Vibration    19          0.740              1.540              1.093
 Vibration    20          0.758              1.492              1.000
 Vibration    21          0.789              1.412              0.869
 Vibration    22          0.804              1.374              0.813
 Vibration    23          0.828              1.315              0.735
 Vibration    24          0.852              1.257              0.666
 Vibration    25          0.927              1.095              0.503

 Optimization completed on the basis of negligible forces.
    -- Stationary point found.
 Normal termination of Gaussian 16 at Tue May 23 01:05:16 2023.
