 Gaussian 16, Revision A.03,
 Gaussian 16:  ES64L-G16RevA.03 25-Dec-2016

 -----------------------------
 # opt freq b3lyp/6-31g(2df,p)
 -----------------------------

 -------------------
 Title Card Required
 -------------------
 Symbolic Z-matrix:
 Charge =  0 Multiplicity = 1

 SCF Done:  E(RB3LYP) =  -553.271913008     A.U. after   14 cycles
 SCF Done:  E(RB3LYP) =  -553.285015816     A.U. after   13 cycles
 SCF Done:  E(RB3LYP) =  -553.286820253     A.U. after   12 cycles
 SCF Done:  E(RB3LYP) =  -553.286940473     A.U. after   12 cycles
 SCF Done:  E(RB3LYP) =  -553.287880369     A.U. after   12 cycles
 SCF Done:  E(RB3LYP) =  -553.288226865     A.U. after   12 cycles
 SCF Done:  E(RB3LYP) =  -553.288648903     A.U. after   13 cycles
 SCF Done:  E(RB3LYP) =  -553.288842771     A.U. after   12 cycles
 SCF Done:  E(RB3LYP) =  -553.289261857     A.U. after   12 cycles
 SCF Done:  E(RB3LYP) =  -553.289674897     A.U. after   12 cycles
 SCF Done:  E(RB3LYP) =  -553.306060167     A.U. after   11 cycles
 SCF Done:  E(RB3LYP) =  -553.306075784     A.U. after   10 cycles
 SCF Done:  E(RB3LYP) =  -553.306081115     A.U. after    8 cycles
 SCF Done:  E(RB3LYP) =  -553.306082403     A.U. after    7 cycles
 SCF Done:  E(RB3LYP) =  -553.306083302     A.U. after    8 cycles
 SCF Done:  E(RB3LYP) =  -553.306084007     A.U. after    8 cycles
 SCF Done:  E(RB3LYP) =  -553.306084448     A.U. after    7 cycles
 SCF Done:  E(RB3LYP) =  -553.306084651     A.U. after    7 cycles
 SCF Done:  E(RB3LYP) =  -553.306084707     A.U. after    7 cycles
 Optimization completed.
    -- Stationary point found.
 Normal termination of Gaussian 16 at Wed May 24 00:07:48 2023.

 ----------------------------------------------------------------------
 #N Geom=AllCheck Guess=TCheck SCRF=Check GenChk RB3LYP/6-31G(2df,p) Fr
 eq
 ----------------------------------------------------------------------

 Structure from the checkpoint file:  "CdC1CNqCrCCqdOrCNqCrN1.chk"
 -------------------
 Title Card Required
 -------------------
 Charge =  0 Multiplicity = 1

                         Standard orientation:
 ---------------------------------------------------------------------
 Center     Atomic      Atomic             Coordinates (Angstroms)
 Number     Number       Type             X           Y           Z
 ---------------------------------------------------------------------
      1          6           0        0.296982   -2.563250    1.488928
      2          6           0        0.115330   -1.607591    0.566628
      3          6           0        1.208523   -1.226427   -0.407163
      4          7           0        1.433482    0.210523   -0.587830
      5          6           0        2.691274    0.461032   -1.263948
      6          6           0        1.168506    1.064990    0.552201
      7          6           0       -0.249300    1.659281    0.636371
      8          8           0       -0.497522    2.474729    1.492718
      9          6           0       -1.323598    1.286379   -0.395163
     10          7           0       -1.336329   -0.141952   -0.686501
     11          6           0       -2.521064   -0.599729   -1.387427
     12          7           0       -1.059888   -0.877854    0.467881
     13          1           0        1.261776   -3.033812    1.613989
     14          1           0       -0.503773   -2.883679    2.146858
     15          1           0        0.964141   -1.643959   -1.394263
     16          1           0        2.125805   -1.736612   -0.066526
     17          1           0        2.717009   -0.096511   -2.207265
     18          1           0        3.581798    0.160488   -0.678075
     19          1           0        2.785438    1.524106   -1.504570
     20          1           0        1.833519    1.934333    0.513111
     21          1           0        1.366944    0.586361    1.525372
     22          1           0       -1.124392    1.837007   -1.325025
     23          1           0       -2.278775    1.654218    0.015092
     24          1           0       -2.640511   -0.022072   -2.309068
     25          1           0       -3.447317   -0.481876   -0.792717
     26          1           0       -2.406215   -1.654740   -1.649207
     27          1           0       -1.836034   -1.124218    1.073140
 ---------------------------------------------------------------------

 SCF Done:  E(RB3LYP) =  -553.306084707     A.U. after    1 cycles

 The electronic state is 1-A.
 Alpha  occ. eigenvalues --  -19.12235 -14.36343 -14.36052 -14.31999 -10.26410
 Alpha  occ. eigenvalues --  -10.22015 -10.21434 -10.21235 -10.21171 -10.21003
 Alpha  occ. eigenvalues --  -10.20384 -10.15367  -1.03644  -1.00393  -0.92125
 Alpha  occ. eigenvalues --   -0.85391  -0.75094  -0.74704  -0.71470  -0.69502
 Alpha  occ. eigenvalues --   -0.63650  -0.61464  -0.57610  -0.54615  -0.51095
 Alpha  occ. eigenvalues --   -0.49482  -0.47920  -0.47053  -0.45905  -0.44597
 Alpha  occ. eigenvalues --   -0.43525  -0.42620  -0.41959  -0.39983  -0.39683
 Alpha  occ. eigenvalues --   -0.38786  -0.38547  -0.38428  -0.37375  -0.35274
 Alpha  occ. eigenvalues --   -0.33602  -0.31991  -0.25147  -0.23826  -0.19989
 Alpha  occ. eigenvalues --   -0.19821
 Alpha virt. eigenvalues --   -0.00972   0.03919   0.07106   0.09702   0.10630
 Alpha virt. eigenvalues --    0.12387   0.12614   0.14006   0.14544   0.14868
 Alpha virt. eigenvalues --    0.15527   0.15751   0.16162   0.16646   0.16977

 Mulliken charges:
               1
     1  C   -0.467284
     2  C    0.404962
     3  C   -0.221783
     4  N   -0.055330
     5  C   -0.321212
     6  C   -0.262454
     7  C    0.370939
     8  O   -0.308072
     9  C   -0.230984
    10  N   -0.031451
    11  C   -0.317749
    12  N   -0.345111
    13  H    0.102588
    14  H    0.085967
    15  H    0.114380
    16  H    0.089695
    17  H    0.118687
    18  H    0.093073
    19  H    0.118241
    20  H    0.125247
    21  H    0.129772
    22  H    0.123927
    23  H    0.100431
    24  H    0.130384
    25  H    0.096429
    26  H    0.131312
    27  H    0.225395
 Sum of Mulliken charges =  -0.00000

 Dipole moment (field-independent basis, Debye):
    X=             -0.4314    Y=             -1.4173    Z=             -2.1822  Tot=              2.6376
 Quadrupole moment (field-independent basis, Debye-Ang):
   XX=            -65.0810   YY=            -79.4401   ZZ=            -75.0284
   XY=              3.3970   XZ=              0.6564   YZ=             -5.6451

  Exact polarizability: 114.982  -5.567 117.437   1.093 -10.582 102.548
 Approx polarizability: 152.163 -12.197 170.289   0.878 -14.302 159.082

                      1                      2                      3
                      A                      A                      A
 Frequencies --     25.1815                63.3439                88.1490
 Red. masses --      4.8747                 3.8777                 2.8384
 Frc consts  --      0.0018                 0.0092                 0.0130
 IR Inten    --      5.2446                 1.9958                 1.3524

                      4                      5                      6
                      A                      A                      A
 Frequencies --    113.5854               143.5679               218.5500
 Red. masses --      2.6813                 2.3483                 1.9595
 Frc consts  --      0.0204                 0.0285                 0.0551
 IR Inten    --      1.5419                 3.0005                 2.0809

                      7                      8                      9
                      A                      A                      A
 Frequencies --    222.9989               249.4553               289.6765
 Red. masses --      1.2211                 1.2831                 2.9363
 Frc consts  --      0.0358                 0.0470                 0.1452
 IR Inten    --      1.3306                 0.9114                 1.8116

                     10                     11                     12
                      A                      A                      A
 Frequencies --    294.5884               341.6044               356.0068
 Red. masses --      2.4753                 3.2652                 2.3858
 Frc consts  --      0.1266                 0.2245                 0.1782
 IR Inten    --      2.3473                 1.9628                 2.0894

                     13                     14                     15
                      A                      A                      A
 Frequencies --    374.2568               404.3785               429.1896
 Red. masses --      1.7461                 2.0901                 1.9840
 Frc consts  --      0.1441                 0.2014                 0.2153
 IR Inten    --     48.1648                16.9459                24.8233

                     16                     17                     18
                      A                      A                      A
 Frequencies --    445.5212               501.8080               517.9533
 Red. masses --      3.2837                 3.0594                 3.2095
 Frc consts  --      0.3840                 0.4539                 0.5073
 IR Inten    --     12.4579                10.2190                 5.0626

                     19                     20                     21
                      A                      A                      A
 Frequencies --    562.0281               573.6708               630.7811
 Red. masses --      4.5122                 2.9347                 4.3669
 Frc consts  --      0.8398                 0.5690                 1.0237
 IR Inten    --      5.6024                 5.7438                 1.4902

                     22                     23                     24
                      A                      A                      A
 Frequencies --    694.9745               775.4679               802.7917
 Red. masses --      1.1326                 2.9664                 1.4078
 Frc consts  --      0.3223                 1.0510                 0.5346
 IR Inten    --      1.3114                 4.8097                50.1170

                     25                     26                     27
                      A                      A                      A
 Frequencies --    857.9981               890.6947               901.1484
 Red. masses --      2.3613                 3.0637                 3.0514
 Frc consts  --      1.0242                 1.4320                 1.4600
 IR Inten    --      2.2666                10.4134                10.8100

                     28                     29                     30
                      A                      A                      A
 Frequencies --    946.4034               994.0475              1001.4435
 Red. masses --      2.4450                 2.1015                 1.9271
 Frc consts  --      1.2903                 1.2234                 1.1387
 IR Inten    --      7.1681                24.0838                13.0386

                     31                     32                     33
                      A                      A                      A
 Frequencies --   1031.0890              1076.4540              1083.3893
 Red. masses --      2.0835                 1.8317                 1.8766
 Frc consts  --      1.3051                 1.2505                 1.2978
 IR Inten    --      3.7505                18.0348                25.3610

                     34                     35                     36
                      A                      A                      A
 Frequencies --   1134.2578              1151.0608              1162.0097
 Red. masses --      1.4368                 1.4462                 2.3860
 Frc consts  --      1.0891                 1.1290                 1.8982
 IR Inten    --      5.6008                16.0962                72.2092

                     37                     38                     39
                      A                      A                      A
 Frequencies --   1190.6122              1204.9664              1245.3313
 Red. masses --      1.8001                 3.1745                 1.4183
 Frc consts  --      1.5035                 2.7157                 1.2959
 IR Inten    --      8.5493                 9.2957                 7.5650

                     40                     41                     42
                      A                      A                      A
 Frequencies --   1262.4697              1286.3388              1291.3448
 Red. masses --      1.7346                 2.4605                 1.8553
 Frc consts  --      1.6289                 2.3988                 1.8228
 IR Inten    --     12.9022                17.4180                26.3770

                     43                     44                     45
                      A                      A                      A
 Frequencies --   1323.1105              1352.0853              1366.6605
 Red. masses --      1.5010                 1.4411                 1.4821
 Frc consts  --      1.5482                 1.5522                 1.6310
 IR Inten    --     14.6422                 4.2767                 3.5144

                     46                     47                     48
                      A                      A                      A
 Frequencies --   1379.7063              1401.8894              1420.9671
 Red. masses --      2.4262                 1.4444                 1.4907
 Frc consts  --      2.7211                 1.6725                 1.7734
 IR Inten    --     83.1237                20.0521                20.4898

                     49                     50                     51
                      A                      A                      A
 Frequencies --   1438.5955              1449.0605              1470.4151
 Red. masses --      1.1005                 1.1632                 1.1587
 Frc consts  --      1.3419                 1.4390                 1.4760
 IR Inten    --     11.4171                 1.0214                 1.6607

                     52                     53                     54
                      A                      A                      A
 Frequencies --   1474.5829              1483.1665              1486.5350
 Red. masses --      1.0771                 1.0836                 1.0917
 Frc consts  --      1.3799                 1.4045                 1.4214
 IR Inten    --     13.1479                21.1595                 0.5760

                     55                     56                     57
                      A                      A                      A
 Frequencies --   1496.4780              1501.5553              1513.2508
 Red. masses --      1.0846                 1.0530                 1.0719
 Frc consts  --      1.4311                 1.3989                 1.4462
 IR Inten    --      4.7168                 1.1135                 4.0821

                     58                     59                     60
                      A                      A                      A
 Frequencies --   1519.4797              1704.0045              1805.0462
 Red. masses --      1.3023                 5.1749                12.0985
 Frc consts  --      1.7715                 8.8530                23.2252
 IR Inten    --      1.1936               134.7544               172.2366

                     61                     62                     63
                      A                      A                      A
 Frequencies --   2915.5841              2925.6000              2953.2303
 Red. masses --      1.0612                 1.0601                 1.0698
 Frc consts  --      5.3151                 5.3461                 5.4971
 IR Inten    --    115.1927                80.5735                62.6861

                     64                     65                     66
                      A                      A                      A
 Frequencies --   2967.9193              2972.7287              3007.6533
 Red. masses --      1.0651                 1.0702                 1.0895
 Frc consts  --      5.5278                 5.5724                 5.8067
 IR Inten    --     52.1075                37.3912                24.0793

                     67                     68                     69
                      A                      A                      A
 Frequencies --   3032.5412              3048.6902              3069.2362
 Red. masses --      1.0940                 1.0709                 1.0711
 Frc consts  --      5.9278                 5.8645                 5.9449
 IR Inten    --     17.2811                34.6602                27.2715

                     70                     71                     72
                      A                      A                      A
 Frequencies --   3070.4699              3098.7938              3119.3266
 Red. masses --      1.0893                 1.1008                 1.1037
 Frc consts  --      6.0510                 6.2278                 6.3274
 IR Inten    --      8.2112                29.2472                17.5748

                     73                     74                     75
                      A                      A                      A
 Frequencies --   3159.5761              3255.6454              3508.5899
 Red. masses --      1.0630                 1.1121                 1.0751
 Frc consts  --      6.2522                 6.9446                 7.7975
 IR Inten    --      5.4592                 7.2975                14.4079

 - Thermochemistry -
 -------------------
 Temperature   298.150 Kelvin.  Pressure   1.00000 Atm.
 Atom     1 has atomic number  6 and mass  12.00000

 Molecular mass:   169.12151 amu.
 Principal axes and moments of inertia in atomic units:
                           1         2         3
     Eigenvalues --  1845.635851912.161732573.57994
           X            0.98484   0.17321   0.00943
           Y           -0.17254   0.98376  -0.04940
           Z           -0.01784   0.04703   0.99873
 This molecule is an asymmetric top.
 Rotational symmetry number  1.
 Warning -- assumption of classical behavior for rotation
           may cause significant error
 Rotational temperatures (Kelvin)      0.04693     0.04530     0.03366
 Rotational constants (GHZ):           0.97784     0.94382     0.70126
 Zero-point vibrational energy     607241.0 (Joules/Mol)
                                  145.13408 (Kcal/Mol)
 Warning -- explicit consideration of  20 degrees of freedom as
           vibrations may cause significant error
 Vibrational temperatures:     36.23    91.14   126.83   163.42   206.56
          (Kelvin)            314.44   320.85   358.91   416.78   423.85
                              491.49   512.21   538.47   581.81   617.51
                              641.01   721.99   745.22   808.63   825.38
                              907.55   999.91  1115.73  1155.04  1234.47
                             1281.51  1296.55  1361.66  1430.21  1440.85
                             1483.51  1548.78  1558.76  1631.94  1656.12
                             1671.87  1713.03  1733.68  1791.75  1816.41
                             1850.75  1857.96  1903.66  1945.35  1966.32
                             1985.09  2017.01  2044.45  2069.82  2084.87
                             2115.60  2121.60  2133.95  2138.79  2153.10
                             2160.40  2177.23  2186.19  2451.68  2597.06
                             4194.88  4209.29  4249.04  4270.17  4277.09
                             4327.34  4363.15  4386.39  4415.95  4417.72
                             4458.47  4488.02  4545.93  4684.15  5048.08

 Zero-point correction=                           0.231286 (Hartree/Particle)
 Thermal correction to Energy=                    0.244100
 Thermal correction to Enthalpy=                  0.245044
 Thermal correction to Gibbs Free Energy=         0.191988
 Sum of electronic and zero-point Energies=           -553.074799
 Sum of electronic and thermal Energies=              -553.061985
 Sum of electronic and thermal Enthalpies=            -553.061041
 Sum of electronic and thermal Free Energies=         -553.114097

                     E (Thermal)             CV                S
                      KCal/Mol        Cal/Mol-Kelvin    Cal/Mol-Kelvin
 Total                  153.175             48.257            111.666
 Electronic               0.000              0.000              0.000
 Translational            0.889              2.981             41.284
 Rotational               0.889              2.981             30.586
 Vibrational            151.398             42.296             39.796
 Vibration     1          0.593              1.985              6.177
 Vibration     2          0.597              1.972              4.350
 Vibration     3          0.601              1.958              3.701
 Vibration     4          0.607              1.938              3.207
 Vibration     5          0.616              1.910              2.756
 Vibration     6          0.646              1.813              1.971
 Vibration     7          0.649              1.806              1.935
 Vibration     8          0.662              1.764              1.734
 Vibration     9          0.686              1.693              1.476
 Vibration    10          0.689              1.684              1.447
 Vibration    11          0.721              1.592              1.205
 Vibration    12          0.732              1.563              1.139
 Vibration    13          0.745              1.525              1.062
 Vibration    14          0.770              1.461              0.947
 Vibration    15          0.791              1.407              0.861
 Vibration    16          0.805              1.371              0.809
 Vibration    17          0.857              1.246              0.654
 Vibration    18          0.873              1.210              0.615
 Vibration    19          0.918              1.113              0.520
 Vibration    20          0.930              1.088              0.497

                           ! Non-Optimized Parameters !
 Normal termination of Gaussian 16 at Wed May 24 01:44:10 2023.
