 Gaussian 16, Revision A.03,
 Gaussian 16:  ES64L-G16RevA.03 25-Dec-2016

 -----------------------------
 # opt freq b3lyp/6-31g(2df,p)
 -----------------------------

 -------------------
 Title Card Required
 -------------------
 Symbolic Z-matrix:
 Charge =  0 Multiplicity = 1

 SCF Done:  E(RB3LYP) =  -595.103717034     A.U. after   14 cycles
 SCF Done:  E(RB3LYP) =  -595.146448376     A.U. after   13 cycles
 SCF Done:  E(RB3LYP) =  -595.188867174     A.U. after   12 cycles
 SCF Done:  E(RB3LYP) =  -595.206514514     A.U. after   12 cycles
 SCF Done:  E(RB3LYP) =  -595.213779489     A.U. after   11 cycles
 SCF Done:  E(RB3LYP) =  -595.216951937     A.U. after   11 cycles
 SCF Done:  E(RB3LYP) =  -595.218805503     A.U. after   11 cycles
 SCF Done:  E(RB3LYP) =  -595.219700235     A.U. after   11 cycles
 SCF Done:  E(RB3LYP) =  -595.220028867     A.U. after   10 cycles
 SCF Done:  E(RB3LYP) =  -595.220193307     A.U. after   10 cycles
 SCF Done:  E(RB3LYP) =  -595.220324975     A.U. after   10 cycles
 SCF Done:  E(RB3LYP) =  -595.220393039     A.U. after   10 cycles
 SCF Done:  E(RB3LYP) =  -595.220430175     A.U. after    9 cycles
 SCF Done:  E(RB3LYP) =  -595.220443364     A.U. after    8 cycles
 SCF Done:  E(RB3LYP) =  -595.220444850     A.U. after    7 cycles
 SCF Done:  E(RB3LYP) =  -595.220445113     A.U. after    7 cycles
 SCF Done:  E(RB3LYP) =  -595.220445177     A.U. after    6 cycles
 Optimization completed.
    -- Stationary point found.
 Normal termination of Gaussian 16 at Mon May 29 22:07:56 2023.

 ----------------------------------------------------------------------
 #N Geom=AllCheck Guess=TCheck SCRF=Check GenChk RB3LYP/6-31G(2df,p) Fr
 eq
 ----------------------------------------------------------------------

 Structure from the checkpoint file:  "CdC1C2CCdCqNrOCqOCrCC12.chk"
 -------------------
 Title Card Required
 -------------------
 Charge =  0 Multiplicity = 1

                         Standard orientation:
 ---------------------------------------------------------------------
 Center     Atomic      Atomic             Coordinates (Angstroms)
 Number     Number       Type             X           Y           Z
 ---------------------------------------------------------------------
      1          6           0        1.229625   -1.345273    2.027130
      2          6           0        1.453872   -1.149895    0.744696
      3          6           0        2.213159   -0.445989   -0.299323
      4          6           0        2.029546    1.053817   -0.593092
      5          6           0        1.035129    1.755558    0.286215
      6          6           0       -0.282296    1.754665    0.072294
      7          7           0       -1.242341    2.460117    0.803385
      8          8           0       -0.834727    1.143927   -1.036674
      9          6           0       -1.227227   -0.209834   -0.945868
     10          8           0       -1.712549   -0.438627    0.356097
     11          6           0       -2.490156   -1.606634    0.507703
     12          6           0       -0.158938   -1.208660   -1.423045
     13          6           0        1.125528   -1.488328   -0.646514
     14          1           0        1.795201   -0.817895    2.789574
     15          1           0        0.461821   -2.030060    2.374976
     16          1           0        3.226230   -0.801937   -0.484672
     17          1           0        1.750504    1.170601   -1.647530
     18          1           0        3.006877    1.535217   -0.480342
     19          1           0        1.404962    2.250119    1.178991
     20          1           0       -0.877149    2.813631    1.678801
     21          1           0       -2.061823    1.886818    0.966748
     22          1           0       -2.062904   -0.295664   -1.661776
     23          1           0       -2.926326   -1.569967    1.508377
     24          1           0       -1.889151   -2.521585    0.421896
     25          1           0       -3.302971   -1.649162   -0.233398
     26          1           0        0.104908   -0.891635   -2.440376
     27          1           0       -0.681962   -2.165738   -1.549148
     28          1           0        1.556929   -2.432521   -0.982367
 ---------------------------------------------------------------------

 SCF Done:  E(RB3LYP) =  -595.220445177     A.U. after    1 cycles

 The electronic state is 1-A.
 Alpha  occ. eigenvalues --  -19.15423 -19.14882 -14.31647 -10.28755 -10.24471
 Alpha  occ. eigenvalues --  -10.23635 -10.19097 -10.18968 -10.18457 -10.18360
 Alpha  occ. eigenvalues --  -10.17607 -10.16867 -10.14749  -1.07932  -1.02082
 Alpha  occ. eigenvalues --   -0.88590  -0.86248  -0.77269  -0.74529  -0.71048
 Alpha  occ. eigenvalues --   -0.70121  -0.67491  -0.62063  -0.56893  -0.53791
 Alpha  occ. eigenvalues --   -0.52273  -0.51012  -0.49148  -0.48590  -0.47691
 Alpha  occ. eigenvalues --   -0.46353  -0.45517  -0.43223  -0.42249  -0.41821
 Alpha  occ. eigenvalues --   -0.41195  -0.40135  -0.38689  -0.37075  -0.35838
 Alpha  occ. eigenvalues --   -0.34789  -0.33133  -0.29749  -0.28595  -0.27561
 Alpha  occ. eigenvalues --   -0.26882  -0.26141  -0.24162  -0.18848
 Alpha virt. eigenvalues --    0.01712   0.05579   0.07026   0.10245   0.11112
 Alpha virt. eigenvalues --    0.11919   0.12407   0.12946   0.13443   0.13742
 Alpha virt. eigenvalues --    0.14489   0.15743   0.16897   0.17345   0.17590

 Mulliken charges:
               1
     1  C   -0.456230
     2  C    0.364638
     3  C   -0.128047
     4  C   -0.285557
     5  C   -0.180331
     6  C    0.393344
     7  N   -0.553905
     8  O   -0.282374
     9  C    0.192840
    10  O   -0.232262
    11  C   -0.239627
    12  C   -0.278547
    13  C   -0.114643
    14  H    0.102886
    15  H    0.098416
    16  H    0.088492
    17  H    0.109287
    18  H    0.095970
    19  H    0.065936
    20  H    0.237656
    21  H    0.244888
    22  H    0.076519
    23  H    0.133423
    24  H    0.121396
    25  H    0.110641
    26  H    0.119195
    27  H    0.102588
    28  H    0.093406
 Sum of Mulliken charges =  -0.00000

 Dipole moment (field-independent basis, Debye):
    X=             -1.0135    Y=             -2.2059    Z=              0.6804  Tot=              2.5212
 Quadrupole moment (field-independent basis, Debye-Ang):
   XX=            -72.2867   YY=            -79.2019   ZZ=            -74.0956
   XY=              5.1166   XZ=             -2.4020   YZ=              6.0558

  Exact polarizability: 126.140   5.942 108.224  -2.075   3.201 116.571
 Approx polarizability: 185.298   8.081 151.228  -3.610   3.934 184.796

                      1                      2                      3
                      A                      A                      A
 Frequencies --     45.7478                70.1359               104.5965
 Red. masses --      2.8931                 3.6102                 3.1231
 Frc consts  --      0.0036                 0.0105                 0.0201
 IR Inten    --      1.0927                 1.9984                 0.8772

                      4                      5                      6
                      A                      A                      A
 Frequencies --    120.1747               162.3142               175.5674
 Red. masses --      3.1185                 2.7311                 2.7182
 Frc consts  --      0.0265                 0.0424                 0.0494
 IR Inten    --      1.6698                 3.9547                 1.3568

                      7                      8                      9
                      A                      A                      A
 Frequencies --    200.9618               223.2140               241.1209
 Red. masses --      2.3330                 3.5851                 1.9414
 Frc consts  --      0.0555                 0.1052                 0.0665
 IR Inten    --      0.1601                 3.7525                 0.6100

                     10                     11                     12
                      A                      A                      A
 Frequencies --    305.5651               318.6613               339.7885
 Red. masses --      1.5945                 2.0791                 3.2421
 Frc consts  --      0.0877                 0.1244                 0.2205
 IR Inten    --     15.7330                 7.7792                 1.9537

                     13                     14                     15
                      A                      A                      A
 Frequencies --    352.8112               429.0081               459.7133
 Red. masses --      1.8196                 2.7332                 2.4604
 Frc consts  --      0.1335                 0.2964                 0.3064
 IR Inten    --     14.7842                 0.8964                 0.2568

                     16                     17                     18
                      A                      A                      A
 Frequencies --    478.5343               507.0493               540.8771
 Red. masses --      3.2775                 3.2304                 3.5695
 Frc consts  --      0.4422                 0.4893                 0.6153
 IR Inten    --      6.1103                 5.5299                19.8561

                     19                     20                     21
                      A                      A                      A
 Frequencies --    600.4463               664.1510               675.7485
 Red. masses --      2.8107                 2.2708                 3.3281
 Frc consts  --      0.5970                 0.5902                 0.8954
 IR Inten    --      3.5990                 1.0231                20.4454

                     22                     23                     24
                      A                      A                      A
 Frequencies --    708.2350               738.3298               775.5707
 Red. masses --      1.9686                 3.2176                 1.9348
 Frc consts  --      0.5818                 1.0334                 0.6857
 IR Inten    --     77.6393                32.2994                68.3862

                     25                     26                     27
                      A                      A                      A
 Frequencies --    803.1165               816.9886               834.5123
 Red. masses --      3.0614                 3.1068                 1.7889
 Frc consts  --      1.1634                 1.2218                 0.7340
 IR Inten    --      3.7503                13.1242               144.2998

                     28                     29                     30
                      A                      A                      A
 Frequencies --    857.3280               903.7924               914.8004
 Red. masses --      2.2188                 2.1708                 1.3272
 Frc consts  --      0.9609                 1.0448                 0.6544
 IR Inten    --      5.1615                15.1413                26.7430

                     31                     32                     33
                      A                      A                      A
 Frequencies --    938.6965               966.2193              1038.7295
 Red. masses --      2.4724                 2.1574                 2.0081
 Frc consts  --      1.2836                 1.1867                 1.2765
 IR Inten    --     12.8823                25.1539                 8.9012

                     34                     35                     36
                      A                      A                      A
 Frequencies --   1045.9243              1065.7176              1072.8062
 Red. masses --      2.4438                 1.6400                 2.1767
 Frc consts  --      1.5752                 1.0974                 1.4760
 IR Inten    --     17.3278                 2.9556                 7.0816

                     37                     38                     39
                      A                      A                      A
 Frequencies --   1104.7792              1127.7664              1141.5747
 Red. masses --      1.5334                 3.0963                 3.3305
 Frc consts  --      1.1027                 2.3203                 2.5572
 IR Inten    --     10.9962               152.7938                81.2884

                     40                     41                     42
                      A                      A                      A
 Frequencies --   1165.0153              1177.6739              1182.1974
 Red. masses --      2.0136                 1.5270                 1.3000
 Frc consts  --      1.6102                 1.2478                 1.0704
 IR Inten    --     76.7915                20.5910                 5.9359

                     43                     44                     45
                      A                      A                      A
 Frequencies --   1203.3540              1221.9570              1244.5633
 Red. masses --      1.6154                 1.8081                 2.2062
 Frc consts  --      1.3783                 1.5907                 2.0134
 IR Inten    --      7.6229                37.7574                42.5899

                     46                     47                     48
                      A                      A                      A
 Frequencies --   1279.7938              1291.8568              1299.0264
 Red. masses --      1.1961                 1.6801                 1.6203
 Frc consts  --      1.1542                 1.6520                 1.6109
 IR Inten    --     24.1595                65.2743                 4.9755

                     49                     50                     51
                      A                      A                      A
 Frequencies --   1319.7923              1350.8002              1382.8254
 Red. masses --      1.5794                 1.3357                 1.3769
 Frc consts  --      1.6208                 1.4359                 1.5513
 IR Inten    --      5.8918                11.2430                35.9433

                     52                     53                     54
                      A                      A                      A
 Frequencies --   1398.2572              1407.1579              1433.6349
 Red. masses --      1.3946                 1.3304                 1.3883
 Frc consts  --      1.6065                 1.5521                 1.6811
 IR Inten    --      6.9778                19.0280                11.7352

                     55                     56                     57
                      A                      A                      A
 Frequencies --   1464.6753              1473.9050              1479.8290
 Red. masses --      1.0943                 1.1691                 1.1045
 Frc consts  --      1.3832                 1.4964                 1.4251
 IR Inten    --      6.0519                 2.8651                 4.3865

                     58                     59                     60
                      A                      A                      A
 Frequencies --   1484.7285              1497.1906              1510.1210
 Red. masses --      1.1235                 1.1024                 1.0520
 Frc consts  --      1.4592                 1.4560                 1.4134
 IR Inten    --      0.3071                 3.0116                 3.3106

                     61                     62                     63
                      A                      A                      A
 Frequencies --   1635.8639              1756.8377              1840.1870
 Red. masses --      1.1420                 6.9581                 8.8909
 Frc consts  --      1.8005                12.6533                17.7386
 IR Inten    --     37.9913               162.2190                 2.3213

                     64                     65                     66
                      A                      A                      A
 Frequencies --   2951.2677              2985.4699              3020.2325
 Red. masses --      1.0829                 1.0396                 1.0625
 Frc consts  --      5.5574                 5.4592                 5.7105
 IR Inten    --     56.0241                55.0108                52.0896

                     67                     68                     69
                      A                      A                      A
 Frequencies --   3024.4023              3043.8694              3050.4119
 Red. masses --      1.0606                 1.0986                 1.0996
 Frc consts  --      5.7157                 5.9968                 6.0286
 IR Inten    --     36.8714                29.6426                27.5970

                     70                     71                     72
                      A                      A                      A
 Frequencies --   3063.0924              3081.9589              3103.3828
 Red. masses --      1.1009                 1.0845                 1.0869
 Frc consts  --      6.0860                 6.0694                 6.1677
 IR Inten    --     15.6307                16.9206                43.9097

                     73                     74                     75
                      A                      A                      A
 Frequencies --   3118.9357              3130.3800              3167.3829
 Red. masses --      1.0976                 1.0594                 1.0892
 Frc consts  --      6.2907                 6.1166                 6.4383
 IR Inten    --     19.0608                15.0862                17.5140

                     76                     77                     78
                      A                      A                      A
 Frequencies --   3206.9443              3526.8114              3626.2014
 Red. masses --      1.1146                 1.0474                 1.0952
 Frc consts  --      6.7541                 7.6762                 8.4850
 IR Inten    --     12.3938                10.0549                 9.7384

 - Thermochemistry -
 -------------------
 Temperature   298.150 Kelvin.  Pressure   1.00000 Atm.
 Atom     1 has atomic number  6 and mass  12.00000

 Molecular mass:   181.11028 amu.
 Principal axes and moments of inertia in atomic units:
                           1         2         3
     Eigenvalues --  1887.536912104.302912776.64578
           X            0.98110   0.19313  -0.01222
           Y           -0.19277   0.98090   0.02598
           Z            0.01700  -0.02314   0.99959
 This molecule is an asymmetric top.
 Rotational symmetry number  1.
 Warning -- assumption of classical behavior for rotation
           may cause significant error
 Rotational temperatures (Kelvin)      0.04589     0.04116     0.03119
 Rotational constants (GHZ):           0.95614     0.85764     0.64997
 Zero-point vibrational energy     624887.7 (Joules/Mol)
                                  149.35174 (Kcal/Mol)
 Warning -- explicit consideration of  19 degrees of freedom as
           vibrations may cause significant error
 Vibrational temperatures:     65.82   100.91   150.49   172.90   233.53
          (Kelvin)            252.60   289.14   321.16   346.92   439.64
                              458.48   488.88   507.62   617.25   661.42
                              688.50   729.53   778.20   863.91   955.57
                              972.25  1018.99  1062.29  1115.87  1155.51
                             1175.46  1200.68  1233.50  1300.36  1316.19
                             1350.57  1390.17  1494.50  1504.85  1533.33
                             1543.53  1589.53  1622.60  1642.47  1676.20
                             1694.41  1700.92  1731.36  1758.12  1790.65
                             1841.34  1858.69  1869.01  1898.89  1943.50
                             1989.58  2011.78  2024.59  2062.68  2107.34
                             2120.62  2129.14  2136.19  2154.12  2172.73
                             2353.64  2527.70  2647.62  4246.22  4295.43
                             4345.44  4351.44  4379.45  4388.86  4407.11
                             4434.25  4465.08  4487.45  4503.92  4557.16
                             4614.08  5074.29  5217.29

 Zero-point correction=                           0.238007 (Hartree/Particle)
 Thermal correction to Energy=                    0.251029
 Thermal correction to Enthalpy=                  0.251973
 Thermal correction to Gibbs Free Energy=         0.199035
 Sum of electronic and zero-point Energies=           -594.982438
 Sum of electronic and thermal Energies=              -594.969417
 Sum of electronic and thermal Enthalpies=            -594.968472
 Sum of electronic and thermal Free Energies=         -595.021410

                     E (Thermal)             CV                S
                      KCal/Mol        Cal/Mol-Kelvin    Cal/Mol-Kelvin
 Total                  157.523             50.219            111.417
 Electronic               0.000              0.000              0.000
 Translational            0.889              2.981             41.488
 Rotational               0.889              2.981             30.779
 Vibrational            155.745             44.257             39.150
 Vibration     1          0.595              1.979              4.993
 Vibration     2          0.598              1.968              4.150
 Vibration     3          0.605              1.946              3.367
 Vibration     4          0.609              1.932              3.098
 Vibration     5          0.622              1.889              2.523
 Vibration     6          0.628              1.872              2.375
 Vibration     7          0.638              1.839              2.124
 Vibration     8          0.649              1.806              1.933
 Vibration     9          0.658              1.777              1.795
 Vibration    10          0.696              1.663              1.386
 Vibration    11          0.705              1.638              1.317
 Vibration    12          0.720              1.596              1.213
 Vibration    13          0.729              1.569              1.154
 Vibration    14          0.790              1.407              0.862
 Vibration    15          0.818              1.339              0.767
 Vibration    16          0.835              1.298              0.714
 Vibration    17          0.862              1.234              0.641
 Vibration    18          0.896              1.160              0.563
 Vibration    19          0.959              1.031              0.449

 Optimization completed.
    -- Stationary point found.
 Normal termination of Gaussian 16 at Mon May 29 23:48:55 2023.
