 Gaussian 16, Revision A.03,
 Gaussian 16:  ES64L-G16RevA.03 25-Dec-2016

 -----------------------------
 # opt freq b3lyp/6-31g(2df,p)
 -----------------------------

 -------------------
 Title Card Required
 -------------------
 Symbolic Z-matrix:
 Charge =  0 Multiplicity = 1

 SCF Done:  E(RB3LYP) =  -1242.41198465     A.U. after   14 cycles
 SCF Done:  E(RB3LYP) =  -1242.42047354     A.U. after   12 cycles
 SCF Done:  E(RB3LYP) =  -1242.42413083     A.U. after   12 cycles
 SCF Done:  E(RB3LYP) =  -1242.42530812     A.U. after   11 cycles
 SCF Done:  E(RB3LYP) =  -1242.42612841     A.U. after   11 cycles
 SCF Done:  E(RB3LYP) =  -1242.42716076     A.U. after   12 cycles
 SCF Done:  E(RB3LYP) =  -1242.42781256     A.U. after   12 cycles
 SCF Done:  E(RB3LYP) =  -1242.42873606     A.U. after   12 cycles
 SCF Done:  E(RB3LYP) =  -1242.42699957     A.U. after   13 cycles
 SCF Done:  E(RB3LYP) =  -1242.42966711     A.U. after   11 cycles
 SCF Done:  E(RB3LYP) =  -1242.43001440     A.U. after   11 cycles
 SCF Done:  E(RB3LYP) =  -1242.43021578     A.U. after   11 cycles
 SCF Done:  E(RB3LYP) =  -1242.43029148     A.U. after   10 cycles
 SCF Done:  E(RB3LYP) =  -1242.43031345     A.U. after    9 cycles
 SCF Done:  E(RB3LYP) =  -1242.43032166     A.U. after    8 cycles
 SCF Done:  E(RB3LYP) =  -1242.43032379     A.U. after    8 cycles
 SCF Done:  E(RB3LYP) =  -1242.43032427     A.U. after    8 cycles
 SCF Done:  E(RB3LYP) =  -1242.43032441     A.U. after    7 cycles
 Optimization completed.
    -- Stationary point found.
 Normal termination of Gaussian 16 at Mon May 29 13:03:43 2023.

 ----------------------------------------------------------------------
 #N Geom=AllCheck Guess=TCheck SCRF=Check GenChk RB3LYP/6-31G(2df,p) Fr
 eq
 ----------------------------------------------------------------------

 Structure from the checkpoint file:  "CdC1CqdNCrCqCSrCSCC1C.chk"
 -------------------
 Title Card Required
 -------------------
 Charge =  0 Multiplicity = 1

                         Standard orientation:
 ---------------------------------------------------------------------
 Center     Atomic      Atomic             Coordinates (Angstroms)
 Number     Number       Type             X           Y           Z
 ---------------------------------------------------------------------
      1          6           0       -1.532996   -0.591420    1.810693
      2          6           0       -1.312229   -0.353266    0.518576
      3          6           0       -0.335492   -1.175248   -0.274395
      4          7           0       -0.525554   -2.361793   -0.696540
      5          6           0       -1.753025   -3.089553   -0.437192
      6          6           0        1.017707   -0.546908   -0.611991
      7          6           0        1.934750   -0.660136    0.623058
      8         16           0        3.690519   -0.205554    0.337792
      9          6           0        0.953302    0.879091   -1.195474
     10         16           0        0.462569    2.225966   -0.056167
     11          6           0       -1.371592    2.139217   -0.023905
     12          6           0       -2.004488    0.756557   -0.269917
     13          6           0       -3.518555    0.829365   -0.008006
     14          1           0       -1.012014   -1.382469    2.339360
     15          1           0       -2.232878   -0.003194    2.395650
     16          1           0       -2.157894   -3.435266   -1.395345
     17          1           0       -2.528499   -2.533278    0.103058
     18          1           0       -1.510280   -3.990998    0.137975
     19          1           0        1.433170   -1.190814   -1.395360
     20          1           0        1.901085   -1.678567    1.014021
     21          1           0        1.601127    0.019063    1.411056
     22          1           0        3.984855   -1.220485   -0.497567
     23          1           0        0.329705    0.905422   -2.092624
     24          1           0        1.962924    1.166543   -1.498536
     25          1           0       -1.774639    2.852464   -0.749455
     26          1           0       -1.640973    2.493074    0.976355
     27          1           0       -1.875943    0.524094   -1.333399
     28          1           0       -3.735350    1.077338    1.035427
     29          1           0       -4.001828   -0.124758   -0.235714
     30          1           0       -3.977396    1.601597   -0.633794
 ---------------------------------------------------------------------

 SCF Done:  E(RB3LYP) =  -1242.43032441     A.U. after    1 cycles

 The electronic state is 1-A.
 Alpha  occ. eigenvalues --  -88.86701 -88.86410 -14.32169 -10.23145 -10.21671
 Alpha  occ. eigenvalues --  -10.21486 -10.21362 -10.21210 -10.20463 -10.20127
 Alpha  occ. eigenvalues --  -10.20121 -10.18996 -10.18858  -7.93281  -7.92715
 Alpha  occ. eigenvalues --   -5.89732  -5.89392  -5.89214  -5.88843  -5.88801
 Alpha  occ. eigenvalues --   -5.88236  -0.92363  -0.84283  -0.81654  -0.77663
 Alpha  occ. eigenvalues --   -0.75524  -0.72717  -0.70347  -0.66790  -0.64857
 Alpha  occ. eigenvalues --   -0.61671  -0.59264  -0.54886  -0.51928  -0.48606
 Alpha  occ. eigenvalues --   -0.47622  -0.46744  -0.46013  -0.44093  -0.42752
 Alpha  occ. eigenvalues --   -0.42625  -0.42253  -0.41374  -0.40298  -0.40040
 Alpha  occ. eigenvalues --   -0.37662  -0.37478  -0.37297  -0.35203  -0.34677
 Alpha  occ. eigenvalues --   -0.33972  -0.32303  -0.29788  -0.28675  -0.26446
 Alpha  occ. eigenvalues --   -0.24546  -0.23449  -0.21889
 Alpha virt. eigenvalues --   -0.01251   0.00314   0.03504   0.04667   0.05669
 Alpha virt. eigenvalues --    0.07882   0.08715   0.09910   0.11245   0.11910
 Alpha virt. eigenvalues --    0.12388   0.13364   0.13991   0.14602   0.15322

 Mulliken charges:
               1
     1  C   -0.398588
     2  C    0.284224
     3  C    0.175074
     4  N   -0.239741
     5  C   -0.333624
     6  C   -0.049231
     7  C   -0.210433
     8  S   -0.278340
     9  C   -0.241704
    10  S   -0.173007
    11  C   -0.192621
    12  C   -0.080928
    13  C   -0.414723
    14  H    0.116685
    15  H    0.111942
    16  H    0.127068
    17  H    0.109412
    18  H    0.130205
    19  H    0.097075
    20  H    0.138214
    21  H    0.162144
    22  H    0.155694
    23  H    0.126887
    24  H    0.161983
    25  H    0.125042
    26  H    0.130795
    27  H    0.090864
    28  H    0.123446
    29  H    0.126829
    30  H    0.119356
 Sum of Mulliken charges =   0.00000

 Dipole moment (field-independent basis, Debye):
    X=             -3.3063    Y=             -0.8318    Z=             -0.3515  Tot=              3.4274
 Quadrupole moment (field-independent basis, Debye-Ang):
   XX=            -95.5939   YY=            -98.3198   ZZ=            -92.5326
   XY=             -5.0503   XZ=             -3.6457   YZ=             -1.6306

  Exact polarizability: 170.727   2.835 152.603  -4.593   2.834 123.033
 Approx polarizability: 231.249   2.982 229.298 -11.233  11.509 216.325

                      1                      2                      3
                      A                      A                      A
 Frequencies --     36.8518                59.1016                84.8246
 Red. masses --      4.8990                 4.3987                 3.6815
 Frc consts  --      0.0039                 0.0091                 0.0156
 IR Inten    --      0.3307                 0.1023                 2.0931

                      4                      5                      6
                      A                      A                      A
 Frequencies --    102.1790               109.7176               151.4540
 Red. masses --      2.8791                 3.4620                 1.1566
 Frc consts  --      0.0177                 0.0246                 0.0156
 IR Inten    --      0.7722                 0.1557                 0.5274

                      7                      8                      9
                      A                      A                      A
 Frequencies --    180.4668               200.6613               205.4452
 Red. masses --      3.0662                 3.0641                 2.2188
 Frc consts  --      0.0588                 0.0727                 0.0552
 IR Inten    --      0.9477                 1.4860                 0.3783

                     10                     11                     12
                      A                      A                      A
 Frequencies --    239.9553               245.8212               253.2069
 Red. masses --      1.3305                 1.5720                 1.9903
 Frc consts  --      0.0451                 0.0560                 0.0752
 IR Inten    --      2.4549                14.6172                 1.6294

                     13                     14                     15
                      A                      A                      A
 Frequencies --    273.2899               283.6988               303.6806
 Red. masses --      2.8980                 2.6988                 3.8912
 Frc consts  --      0.1275                 0.1280                 0.2114
 IR Inten    --      7.7649                 0.6549                 1.1654

                     16                     17                     18
                      A                      A                      A
 Frequencies --    326.9108               345.1731               380.1480
 Red. masses --      3.0641                 2.8926                 3.4100
 Frc consts  --      0.1929                 0.2031                 0.2903
 IR Inten    --      0.9323                 2.6679                 0.3535

                     19                     20                     21
                      A                      A                      A
 Frequencies --    458.3717               513.7101               570.5729
 Red. masses --      2.9157                 3.3354                 2.7709
 Frc consts  --      0.3609                 0.5186                 0.5315
 IR Inten    --      2.3978                 5.0677                 1.6410

                     22                     23                     24
                      A                      A                      A
 Frequencies --    649.0828               664.9412               686.6757
 Red. masses --      3.9209                 3.8168                 3.8197
 Frc consts  --      0.9733                 0.9943                 1.0612
 IR Inten    --      0.5365                 1.8703                12.3821

                     25                     26                     27
                      A                      A                      A
 Frequencies --    719.0494               734.6732               748.8742
 Red. masses --      1.5638                 2.1099                 4.4569
 Frc consts  --      0.4764                 0.6710                 1.4726
 IR Inten    --      0.7934                 2.4733                 0.1994

                     28                     29                     30
                      A                      A                      A
 Frequencies --    786.4949               799.6378               843.3456
 Red. masses --      1.7417                 2.5029                 2.3895
 Frc consts  --      0.6348                 0.9429                 1.0013
 IR Inten    --      0.7942                 5.4259                11.6456

                     31                     32                     33
                      A                      A                      A
 Frequencies --    855.5608               891.9055               927.9936
 Red. masses --      1.9977                 1.6553                 1.6705
 Frc consts  --      0.8616                 0.7758                 0.8476
 IR Inten    --     14.7900                 4.8279                 7.8710

                     34                     35                     36
                      A                      A                      A
 Frequencies --    947.0169               949.6764               997.7592
 Red. masses --      1.7492                 1.4783                 2.1358
 Frc consts  --      0.9243                 0.7855                 1.2527
 IR Inten    --      3.0642                24.4337                 8.3183

                     37                     38                     39
                      A                      A                      A
 Frequencies --   1037.4626              1044.8091              1060.8855
 Red. masses --      1.9213                 2.2280                 2.6909
 Frc consts  --      1.2184                 1.4330                 1.7844
 IR Inten    --     10.1649                 7.4271                 4.0702

                     40                     41                     42
                      A                      A                      A
 Frequencies --   1079.4180              1112.6389              1128.1097
 Red. masses --      2.0265                 2.2165                 1.4447
 Frc consts  --      1.3912                 1.6167                 1.0833
 IR Inten    --      2.9127                 1.0613                 1.6081

                     43                     44                     45
                      A                      A                      A
 Frequencies --   1134.2912              1173.7057              1182.0479
 Red. masses --      1.8056                 1.4071                 1.1535
 Frc consts  --      1.3687                 1.1421                 0.9496
 IR Inten    --      5.8952                 5.9709                 2.6268

                     46                     47                     48
                      A                      A                      A
 Frequencies --   1202.3959              1217.1525              1257.5512
 Red. masses --      1.4274                 1.4717                 1.3605
 Frc consts  --      1.2159                 1.2846                 1.2676
 IR Inten    --      3.9326                 0.2090                 7.5544

                     49                     50                     51
                      A                      A                      A
 Frequencies --   1270.5930              1281.3160              1300.8037
 Red. masses --      1.5058                 1.3970                 1.3861
 Frc consts  --      1.4323                 1.3514                 1.3818
 IR Inten    --     43.6486                 6.8570                 4.2787

                     52                     53                     54
                      A                      A                      A
 Frequencies --   1335.6943              1349.4453              1354.6631
 Red. masses --      1.3961                 1.2468                 1.2824
 Frc consts  --      1.4675                 1.3377                 1.3866
 IR Inten    --      4.6236                 2.2098                13.6501

                     55                     56                     57
                      A                      A                      A
 Frequencies --   1384.4721              1407.6385              1432.7865
 Red. masses --      1.4567                 1.2115                 1.1777
 Frc consts  --      1.6451                 1.4144                 1.4244
 IR Inten    --      1.5993                 1.6177                 5.8224

                     58                     59                     60
                      A                      A                      A
 Frequencies --   1451.6245              1454.5914              1460.4184
 Red. masses --      1.1086                 1.1326                 1.0813
 Frc consts  --      1.3764                 1.4120                 1.3588
 IR Inten    --      1.6221                22.1843                 6.0756

                     61                     62                     63
                      A                      A                      A
 Frequencies --   1475.2757              1487.9184              1491.1577
 Red. masses --      1.0906                 1.0522                 1.0474
 Frc consts  --      1.3985                 1.3725                 1.3722
 IR Inten    --      0.8252                 4.3152                 9.6367

                     64                     65                     66
                      A                      A                      A
 Frequencies --   1494.7067              1502.0125              1701.5959
 Red. masses --      1.0502                 1.0550                 5.3403
 Frc consts  --      1.3825                 1.4023                 9.1102
 IR Inten    --      3.5443                 3.2251                 7.0609

                     67                     68                     69
                      A                      A                      A
 Frequencies --   1718.5199              2668.6337              3009.5877
 Red. masses --      9.7037                 1.0385                 1.0329
 Frc consts  --     16.8849                 4.3575                 5.5120
 IR Inten    --     65.7167                 4.2458                50.0400

                     70                     71                     72
                      A                      A                      A
 Frequencies --   3030.6910              3037.0242              3041.6002
 Red. masses --      1.0824                 1.0400                 1.0524
 Frc consts  --      5.8575                 5.6516                 5.7363
 IR Inten    --      6.3021                 5.4409                50.1473

                     73                     74                     75
                      A                      A                      A
 Frequencies --   3044.3224              3066.6500              3074.9811
 Red. masses --      1.0809                 1.0620                 1.0995
 Frc consts  --      5.9022                 5.8844                 6.1253
 IR Inten    --      1.6054                16.5849                15.7666

                     76                     77                     78
                      A                      A                      A
 Frequencies --   3075.4420              3079.9176              3090.8931
 Red. masses --      1.0584                 1.1020                 1.1070
 Frc consts  --      5.8982                 6.1591                 6.2309
 IR Inten    --      7.5106                24.9873                 5.5241

                     79                     80                     81
                      A                      A                      A
 Frequencies --   3106.8288              3114.6460              3116.0263
 Red. masses --      1.1013                 1.1038                 1.1021
 Frc consts  --      6.2633                 6.3091                 6.3046
 IR Inten    --     27.6072                 1.5455                21.4931

                     82                     83                     84
                      A                      A                      A
 Frequencies --   3131.0371              3146.6803              3225.5728
 Red. masses --      1.1066                 1.0607                 1.1147
 Frc consts  --      6.3915                 6.1878                 6.8330
 IR Inten    --      2.8868                 5.5043                 8.3936

 - Thermochemistry -
 -------------------
 Temperature   298.150 Kelvin.  Pressure   1.00000 Atm.
 Atom     1 has atomic number  6 and mass  12.00000

 Molecular mass:   215.08024 amu.
 Principal axes and moments of inertia in atomic units:
                           1         2         3
     Eigenvalues --  2281.838983702.561525173.72017
           X            0.99987  -0.01402  -0.00819
           Y            0.01397   0.99988  -0.00611
           Z            0.00827   0.00600   0.99995
 This molecule is an asymmetric top.
 Rotational symmetry number  1.
 Warning -- assumption of classical behavior for rotation
           may cause significant error
 Rotational temperatures (Kelvin)      0.03796     0.02339     0.01674
 Rotational constants (GHZ):           0.79092     0.48743     0.34883
 Zero-point vibrational energy     661380.4 (Joules/Mol)
                                  158.07370 (Kcal/Mol)
 Warning -- explicit consideration of  21 degrees of freedom as
           vibrations may cause significant error
 Vibrational temperatures:     53.02    85.03   122.04   147.01   157.86
          (Kelvin)            217.91   259.65   288.71   295.59   345.24
                              353.68   364.31   393.20   408.18   436.93
                              470.35   496.63   546.95   659.49   739.11
                              820.93   933.89   956.70   987.97  1034.55
                             1057.03  1077.46  1131.59  1150.50  1213.39
                             1230.96  1283.25  1335.18  1362.55  1366.37
                             1435.55  1492.68  1503.25  1526.38  1553.04
                             1600.84  1623.10  1631.99  1688.70  1700.70
                             1729.98  1751.21  1809.34  1828.10  1843.53
                             1871.57  1921.77  1941.55  1949.06  1991.95
                             2025.28  2061.46  2088.56  2092.83  2101.22
                             2122.59  2140.78  2145.44  2150.55  2161.06
                             2448.22  2472.57  3839.57  4330.13  4360.49
                             4369.60  4376.18  4380.10  4412.23  4424.21
                             4424.88  4431.31  4447.11  4470.03  4481.28
                             4483.27  4504.86  4527.37  4640.88

 Zero-point correction=                           0.251906 (Hartree/Particle)
 Thermal correction to Energy=                    0.267095
 Thermal correction to Enthalpy=                  0.268039
 Thermal correction to Gibbs Free Energy=         0.209566
 Sum of electronic and zero-point Energies=          -1242.178418
 Sum of electronic and thermal Energies=             -1242.163230
 Sum of electronic and thermal Enthalpies=           -1242.162285
 Sum of electronic and thermal Free Energies=        -1242.220758

                     E (Thermal)             CV                S
                      KCal/Mol        Cal/Mol-Kelvin    Cal/Mol-Kelvin
 Total                  167.605             56.606            123.066
 Electronic               0.000              0.000              0.000
 Translational            0.889              2.981             42.001
 Rotational               0.889              2.981             32.147
 Vibrational            165.827             50.644             48.918
 Vibration     1          0.594              1.982              5.422
 Vibration     2          0.596              1.974              4.487
 Vibration     3          0.601              1.960              3.776
 Vibration     4          0.604              1.947              3.412
 Vibration     5          0.606              1.941              3.274
 Vibration     6          0.619              1.901              2.654
 Vibration     7          0.629              1.866              2.324
 Vibration     8          0.638              1.839              2.127
 Vibration     9          0.640              1.832              2.084
 Vibration    10          0.657              1.779              1.803
 Vibration    11          0.660              1.770              1.760
 Vibration    12          0.664              1.757              1.708
 Vibration    13          0.676              1.723              1.575
 Vibration    14          0.682              1.704              1.511
 Vibration    15          0.695              1.667              1.397
 Vibration    16          0.711              1.622              1.275
 Vibration    17          0.724              1.585              1.188
 Vibration    18          0.750              1.512              1.039
 Vibration    19          0.816              1.342              0.771
 Vibration    20          0.869              1.220              0.625
 Vibration    21          0.927              1.095              0.503

                           ! Non-Optimized Parameters !
 Normal termination of Gaussian 16 at Mon May 29 14:57:38 2023.
