 Gaussian 16, Revision A.03,
 Gaussian 16:  ES64L-G16RevA.03 25-Dec-2016

 -----------------------------
 # opt freq b3lyp/6-31g(2df,p)
 -----------------------------

 -------------------
 Title Card Required
 -------------------
 Symbolic Z-matrix:
 Charge =  0 Multiplicity = 1

 SCF Done:  E(RB3LYP) =  -781.908421096     A.U. after   14 cycles
 SCF Done:  E(RB3LYP) =  -781.961365361     A.U. after   14 cycles
 SCF Done:  E(RB3LYP) =  -781.957036202     A.U. after   15 cycles
 SCF Done:  E(RB3LYP) =  -782.015794522     A.U. after   13 cycles
 SCF Done:  E(RB3LYP) =  -782.023981470     A.U. after   13 cycles
 SCF Done:  E(RB3LYP) =  -782.038406140     A.U. after   13 cycles
 SCF Done:  E(RB3LYP) =  -782.051807953     A.U. after   13 cycles
 SCF Done:  E(RB3LYP) =  -782.060842684     A.U. after   13 cycles
 SCF Done:  E(RB3LYP) =  -782.065647551     A.U. after   12 cycles
 SCF Done:  E(RB3LYP) =  -782.069022604     A.U. after   12 cycles
 SCF Done:  E(RB3LYP) =  -782.072232057     A.U. after   12 cycles
 SCF Done:  E(RB3LYP) =  -782.072299424     A.U. after   10 cycles
 SCF Done:  E(RB3LYP) =  -782.072341029     A.U. after   10 cycles
 SCF Done:  E(RB3LYP) =  -782.072349187     A.U. after    9 cycles
 SCF Done:  E(RB3LYP) =  -782.072352206     A.U. after    9 cycles
 SCF Done:  E(RB3LYP) =  -782.072353810     A.U. after    9 cycles
 SCF Done:  E(RB3LYP) =  -782.072354133     A.U. after    7 cycles
 SCF Done:  E(RB3LYP) =  -782.072354280     A.U. after    7 cycles
 SCF Done:  E(RB3LYP) =  -782.072354304     A.U. after    6 cycles
 Optimization completed.
    -- Stationary point found.
 Normal termination of Gaussian 16 at Wed May 24 06:16:17 2023.

 ----------------------------------------------------------------------
 #N Geom=AllCheck Guess=TCheck SCRF=Check GenChk RB3LYP/6-31G(2df,p) Fr
 eq
 ----------------------------------------------------------------------

 Structure from the checkpoint file:  "CdC1CdCCdCqCqdCrCCqdCNOrCNOrN1.chk"
 -------------------
 Title Card Required
 -------------------
 Charge =  0 Multiplicity = 1

                         Standard orientation:
 ---------------------------------------------------------------------
 Center     Atomic      Atomic             Coordinates (Angstroms)
 Number     Number       Type             X           Y           Z
 ---------------------------------------------------------------------
      1          6           0        4.217521   -2.232245   -1.050886
      2          6           0        3.781415   -1.090871   -0.478186
      3          6           0        4.621419    0.043503   -0.140361
      4          6           0        4.115512    1.153153    0.446118
      5          6           0        2.718399    1.261075    0.755394
      6          6           0        1.897316    0.214137    0.458042
      7          6           0        0.436201    0.224761    0.710608
      8          6           0       -0.050534    0.759072    1.835461
      9          6           0       -0.454004   -0.374766   -0.380815
     10          6           0       -1.945690   -0.195755   -0.207692
     11          6           0       -2.533629    0.982437   -0.456318
     12          7           0       -1.851033    2.121509   -0.912448
     13          8           0       -2.643024    3.294646   -0.738552
     14          6           0       -2.738233   -1.401243    0.240225
     15          7           0       -4.171700   -1.229302    0.001562
     16          8           0       -4.816169   -2.466397    0.351002
     17          7           0        2.426138   -0.903280   -0.144033
     18          1           0        5.264013   -2.354166   -1.291317
     19          1           0        3.549039   -3.053308   -1.281302
     20          1           0        5.675208   -0.036929   -0.379991
     21          1           0        4.770437    1.985947    0.682042
     22          1           0        2.305191    2.165820    1.176945
     23          1           0        0.607882    1.137731    2.607968
     24          1           0       -1.118393    0.821578    2.010421
     25          1           0       -0.242886   -1.449810   -0.466458
     26          1           0       -0.139008    0.058331   -1.341160
     27          1           0       -3.602998    1.123536   -0.356827
     28          1           0       -0.988277    2.286677   -0.400182
     29          1           0       -2.724257    3.636036   -1.636329
     30          1           0       -2.610546   -1.579480    1.317262
     31          1           0       -2.352867   -2.305417   -0.261886
     32          1           0       -4.309463   -1.163810   -1.006308
     33          1           0       -5.444480   -2.192513    1.027772
     34          1           0        1.816956   -1.688254   -0.305350
 ---------------------------------------------------------------------

 SCF Done:  E(RB3LYP) =  -782.072354304     A.U. after    1 cycles

 The electronic state is 1-A.
 Alpha  occ. eigenvalues --  -19.17489 -19.15996 -14.38445 -14.36627 -14.36591
 Alpha  occ. eigenvalues --  -10.23464 -10.21825 -10.21242 -10.21149 -10.20858
 Alpha  occ. eigenvalues --  -10.20430 -10.18832 -10.18539 -10.18481 -10.18056
 Alpha  occ. eigenvalues --  -10.17351 -10.13973  -1.07111  -1.05267  -0.96233
 Alpha  occ. eigenvalues --   -0.87210  -0.83889  -0.82466  -0.79969  -0.77367
 Alpha  occ. eigenvalues --   -0.74300  -0.69064  -0.67821  -0.65601  -0.63574
 Alpha  occ. eigenvalues --   -0.61000  -0.56785  -0.55000  -0.53297  -0.52921
 Alpha  occ. eigenvalues --   -0.50133  -0.49939  -0.48552  -0.47554  -0.46254
 Alpha  occ. eigenvalues --   -0.45468  -0.44745  -0.44593  -0.43463  -0.42595
 Alpha  occ. eigenvalues --   -0.41401  -0.40250  -0.39523  -0.38561  -0.38153
 Alpha  occ. eigenvalues --   -0.37243  -0.37165  -0.35831  -0.33682  -0.31640
 Alpha  occ. eigenvalues --   -0.30221  -0.29691  -0.28955  -0.28440  -0.25447
 Alpha  occ. eigenvalues --   -0.24227  -0.20874  -0.16122
 Alpha virt. eigenvalues --   -0.03630   0.01293   0.02179   0.05010   0.06418
 Alpha virt. eigenvalues --    0.07177   0.08154   0.09242   0.10347   0.11201
 Alpha virt. eigenvalues --    0.11880   0.13160   0.13610   0.14031   0.14844

 Mulliken charges:
               1
     1  C   -0.484172
     2  C    0.426457
     3  C   -0.180944
     4  C   -0.062322
     5  C   -0.271675
     6  C    0.352126
     7  C    0.199263
     8  C   -0.389773
     9  C   -0.427613
    10  C    0.147941
    11  C    0.001836
    12  N   -0.257518
    13  O   -0.400634
    14  C   -0.170509
    15  N   -0.220887
    16  O   -0.417910
    17  N   -0.481966
    18  H    0.095106
    19  H    0.075949
    20  H    0.099700
    21  H    0.098457
    22  H    0.094967
    23  H    0.117725
    24  H    0.126474
    25  H    0.105206
    26  H    0.135347
    27  H    0.125122
    28  H    0.258116
    29  H    0.307017
    30  H    0.116661
    31  H    0.094535
    32  H    0.236848
    33  H    0.301457
    34  H    0.249614
 Sum of Mulliken charges =  -0.00000

 Dipole moment (field-independent basis, Debye):
    X=             -1.4534    Y=              1.2753    Z=             -0.1518  Tot=              1.9395
 Quadrupole moment (field-independent basis, Debye-Ang):
   XX=           -101.7335   YY=           -100.4154   ZZ=            -98.2884
   XY=              3.1766   XZ=              2.3703   YZ=             -3.3495

  Exact polarizability: 215.690 -14.083 180.395 -19.955  20.946 116.864
 Approx polarizability: 282.647 -27.762 302.941 -37.856  46.253 198.591

                      1                      2                      3
                      A                      A                      A
 Frequencies --     17.6842                23.8585                43.9529
 Red. masses --      4.9794                 4.7709                 4.0058
 Frc consts  --      0.0009                 0.0016                 0.0046
 IR Inten    --      0.1370                 0.1717                 0.1063

                      4                      5                      6
                      A                      A                      A
 Frequencies --     56.7647                87.9451                90.4636
 Red. masses --      3.8762                 3.7481                 3.2410
 Frc consts  --      0.0074                 0.0171                 0.0156
 IR Inten    --      0.0178                 0.8078                 1.8511

                      7                      8                      9
                      A                      A                      A
 Frequencies --    104.6850               114.7397               140.8751
 Red. masses --      4.8770                 3.9363                 4.1367
 Frc consts  --      0.0315                 0.0305                 0.0484
 IR Inten    --      0.1010                 0.0458                 0.2609

                     10                     11                     12
                      A                      A                      A
 Frequencies --    167.9753               186.8576               218.1777
 Red. masses --      3.7098                 4.2323                 3.2296
 Frc consts  --      0.0617                 0.0871                 0.0906
 IR Inten    --      0.9635                 0.6895                 0.8958

                     13                     14                     15
                      A                      A                      A
 Frequencies --    257.2325               278.5767               325.8273
 Red. masses --      3.7530                 2.3138                 1.1897
 Frc consts  --      0.1463                 0.1058                 0.0744
 IR Inten    --      3.1533                17.2711                86.9483

                     16                     17                     18
                      A                      A                      A
 Frequencies --    344.9861               357.2637               367.8639
 Red. masses --      3.0272                 1.6729                 4.4571
 Frc consts  --      0.2123                 0.1258                 0.3554
 IR Inten    --      1.8559                33.2000                 3.4333

                     19                     20                     21
                      A                      A                      A
 Frequencies --    378.7843               391.4667               421.9609
 Red. masses --      2.6294                 2.7775                 2.1807
 Frc consts  --      0.2223                 0.2508                 0.2288
 IR Inten    --      6.9191                26.0545                19.9610

                     22                     23                     24
                      A                      A                      A
 Frequencies --    449.1062               505.1290               516.3662
 Red. masses --      2.7796                 3.1329                 2.0404
 Frc consts  --      0.3303                 0.4710                 0.3205
 IR Inten    --     17.2662                 5.4884                27.4523

                     25                     26                     27
                      A                      A                      A
 Frequencies --    528.1250               547.7486               590.8681
 Red. masses --      2.1622                 3.9552                 2.8917
 Frc consts  --      0.3553                 0.6992                 0.5948
 IR Inten    --     22.0671                 9.3851                 1.6738

                     28                     29                     30
                      A                      A                      A
 Frequencies --    623.7454               662.6796               666.5829
 Red. masses --      1.9903                 1.5373                 3.6506
 Frc consts  --      0.4562                 0.3978                 0.9557
 IR Inten    --      9.7277                 0.7290                 9.5749

                     31                     32                     33
                      A                      A                      A
 Frequencies --    688.0961               725.4244               746.1223
 Red. masses --      1.7680                 1.9345                 3.6011
 Frc consts  --      0.4932                 0.5998                 1.1811
 IR Inten    --     21.9360                24.2055                 2.5395

                     34                     35                     36
                      A                      A                      A
 Frequencies --    759.9362               773.9790               800.2491
 Red. masses --      1.3218                 1.5847                 1.6680
 Frc consts  --      0.4497                 0.5593                 0.6294
 IR Inten    --     15.3153               190.7135                13.6434

                     37                     38                     39
                      A                      A                      A
 Frequencies --    839.7405               872.6075               894.6299
 Red. masses --      1.5001                 2.4064                 2.5204
 Frc consts  --      0.6232                 1.0796                 1.1885
 IR Inten    --      3.1051                12.7245                12.5089

                     40                     41                     42
                      A                      A                      A
 Frequencies --    905.7209               914.7376               930.4872
 Red. masses --      2.3588                 1.5977                 1.8750
 Frc consts  --      1.1401                 0.7877                 0.9565
 IR Inten    --     34.4493                 6.3699                 7.1972

                     43                     44                     45
                      A                      A                      A
 Frequencies --    955.8887               965.2193               980.4580
 Red. masses --      1.3691                 2.2114                 2.1430
 Frc consts  --      0.7370                 1.2139                 1.2138
 IR Inten    --     17.6335                13.3492                 4.6476

                     46                     47                     48
                      A                      A                      A
 Frequencies --    981.6577              1001.2296              1016.5175
 Red. masses --      1.2681                 2.7578                 3.3153
 Frc consts  --      0.7200                 1.6289                 2.0184
 IR Inten    --      0.0836                27.9787                 9.4346

                     49                     50                     51
                      A                      A                      A
 Frequencies --   1051.1882              1066.6063              1070.8400
 Red. masses --      3.2541                 2.0549                 2.6594
 Frc consts  --      2.1186                 1.3774                 1.7968
 IR Inten    --     26.4079                 3.2413                38.1691

                     52                     53                     54
                      A                      A                      A
 Frequencies --   1135.9630              1144.5306              1164.9532
 Red. masses --      1.6291                 1.6705                 2.3611
 Frc consts  --      1.2386                 1.2893                 1.8879
 IR Inten    --     17.7878                 0.4654                 0.3793

                     55                     56                     57
                      A                      A                      A
 Frequencies --   1187.7851              1226.1835              1249.5178
 Red. masses --      1.1365                 2.1247                 1.2337
 Frc consts  --      0.9447                 1.8822                 1.1349
 IR Inten    --     20.5824                 6.9217                37.0027

                     58                     59                     60
                      A                      A                      A
 Frequencies --   1264.8613              1283.7610              1314.4715
 Red. masses --      1.5730                 1.6556                 1.3473
 Frc consts  --      1.4827                 1.6076                 1.3715
 IR Inten    --     23.4710                10.0633                16.0649

                     61                     62                     63
                      A                      A                      A
 Frequencies --   1326.2701              1348.9645              1367.1300
 Red. masses --      2.4376                 1.6041                 1.5951
 Frc consts  --      2.5262                 1.7198                 1.7565
 IR Inten    --     22.7838                15.1851                 4.4750

                     64                     65                     66
                      A                      A                      A
 Frequencies --   1382.1706              1391.3709              1399.8203
 Red. masses --      1.5034                 1.2971                 1.4900
 Frc consts  --      1.6922                 1.4795                 1.7202
 IR Inten    --     25.5059                22.5532                 9.4071

                     67                     68                     69
                      A                      A                      A
 Frequencies --   1404.4771              1434.2579              1461.2226
 Red. masses --      1.3130                 1.2357                 2.2346
 Frc consts  --      1.5259                 1.4977                 2.8111
 IR Inten    --     97.0505                10.4375                21.4125

                     70                     71                     72
                      A                      A                      A
 Frequencies --   1464.4225              1481.4952              1487.0835
 Red. masses --      1.1186                 1.1011                 1.0877
 Frc consts  --      1.4133                 1.4239                 1.4172
 IR Inten    --      4.0513                 5.4515                 3.2349

                     73                     74                     75
                      A                      A                      A
 Frequencies --   1497.5955              1513.5030              1591.7343
 Red. masses --      1.8356                 1.0800                 4.5417
 Frc consts  --      2.4255                 1.4576                 6.7797
 IR Inten    --      9.6877                 2.8132                34.7063

                     76                     77                     78
                      A                      A                      A
 Frequencies --   1646.5993              1687.2177              1698.1011
 Red. masses --      4.2625                 5.3061                 5.7816
 Frc consts  --      6.8091                 8.8996                 9.8226
 IR Inten    --     95.4722                48.2208               256.0908

                     79                     80                     81
                      A                      A                      A
 Frequencies --   1721.9043              2951.3781              2994.4222
 Red. masses --      6.4714                 1.0713                 1.0590
 Frc consts  --     11.3049                 5.4979                 5.5948
 IR Inten    --     35.4093                47.2287                34.4339

                     82                     83                     84
                      A                      A                      A
 Frequencies --   3012.6144              3024.6061              3160.7906
 Red. masses --      1.0875                 1.1004                 1.0596
 Frc consts  --      5.8150                 5.9311                 6.2371
 IR Inten    --     23.6582                11.0751                 2.5146

                     85                     86                     87
                      A                      A                      A
 Frequencies --   3165.9563              3174.8696              3202.5048
 Red. masses --      1.0608                 1.0864                 1.0942
 Frc consts  --      6.2646                 6.4518                 6.6122
 IR Inten    --      1.7944                14.8034                11.9523

                     88                     89                     90
                      A                      A                      A
 Frequencies --   3214.7975              3232.7838              3249.1549
 Red. masses --      1.0906                 1.0919                 1.1151
 Frc consts  --      6.6408                 6.7233                 6.9361
 IR Inten    --      0.9162                 2.3727                 3.6181

                     91                     92                     93
                      A                      A                      A
 Frequencies --   3258.6663              3456.6362              3491.6637
 Red. masses --      1.1135                 1.0750                 1.0754
 Frc consts  --      6.9665                 7.5676                 7.7245
 IR Inten    --      9.4474                 0.7735                14.6526

                     94                     95                     96
                      A                      A                      A
 Frequencies --   3644.7204              3791.4500              3802.8487
 Red. masses --      1.0758                 1.0685                 1.0683
 Frc consts  --      8.4201                 9.0495                 9.1024
 IR Inten    --     29.9455                51.5532                41.4796

 - Thermochemistry -
 -------------------
 Temperature   298.150 Kelvin.  Pressure   1.00000 Atm.
 Atom     1 has atomic number  6 and mass  12.00000

 Molecular mass:   235.13208 amu.
 Principal axes and moments of inertia in atomic units:
                           1         2         3
     Eigenvalues --  2547.767128453.68643**********
           X            1.00000  -0.00092  -0.00302
           Y            0.00096   0.99989   0.01467
           Z            0.00300  -0.01467   0.99989
 This molecule is an asymmetric top.
 Rotational symmetry number  1.
 Warning -- assumption of classical behavior for rotation
           may cause significant error
 Rotational temperatures (Kelvin)      0.03400     0.01025     0.00858
 Rotational constants (GHZ):           0.70836     0.21349     0.17888
 Zero-point vibrational energy     738794.9 (Joules/Mol)
                                  176.57622 (Kcal/Mol)
 Warning -- explicit consideration of  27 degrees of freedom as
           vibrations may cause significant error
 Vibrational temperatures:     25.44    34.33    63.24    81.67   126.53
          (Kelvin)            130.16   150.62   165.08   202.69   241.68
                              268.85   313.91   370.10   400.81   468.79
                              496.36   514.02   529.27   544.99   563.23
                              607.11   646.16   726.77   742.94   759.85
                              788.09   850.13   897.43   953.45   959.06
                              990.02  1043.72  1073.50  1093.38  1113.58
                             1151.38  1208.20  1255.49  1287.17  1303.13
                             1316.10  1338.76  1375.31  1388.74  1410.66
                             1412.39  1440.55  1462.54  1512.43  1534.61
                             1540.70  1634.40  1646.72  1676.11  1708.96
                             1764.20  1797.78  1819.85  1847.05  1891.23
                             1908.21  1940.86  1967.00  1988.64  2001.87
                             2014.03  2020.73  2063.58  2102.37  2106.98
                             2131.54  2139.58  2154.71  2177.59  2290.15
                             2369.09  2427.53  2443.19  2477.44  4246.37
                             4308.31  4334.48  4351.73  4547.67  4555.11
                             4567.93  4607.69  4625.38  4651.25  4674.81
                             4688.49  4973.33  5023.73  5243.94  5455.05
                             5471.45

 Zero-point correction=                           0.281392 (Hartree/Particle)
 Thermal correction to Energy=                    0.299471
 Thermal correction to Enthalpy=                  0.300416
 Thermal correction to Gibbs Free Energy=         0.233111
 Sum of electronic and zero-point Energies=           -781.790962
 Sum of electronic and thermal Energies=              -781.772883
 Sum of electronic and thermal Enthalpies=            -781.771939
 Sum of electronic and thermal Free Energies=         -781.839243

                     E (Thermal)             CV                S
                      KCal/Mol        Cal/Mol-Kelvin    Cal/Mol-Kelvin
 Total                  187.921             67.502            141.654
 Electronic               0.000              0.000              0.000
 Translational            0.889              2.981             42.267
 Rotational               0.889              2.981             33.740
 Vibrational            186.144             61.540             65.647
 Vibration     1          0.593              1.986              6.879
 Vibration     2          0.593              1.985              6.284
 Vibration     3          0.595              1.980              5.072
 Vibration     4          0.596              1.975              4.567
 Vibration     5          0.601              1.958              3.705
 Vibration     6          0.602              1.956              3.650
 Vibration     7          0.605              1.945              3.365
 Vibration     8          0.608              1.937              3.187
 Vibration     9          0.615              1.912              2.792
 Vibration    10          0.625              1.882              2.458
 Vibration    11          0.632              1.858              2.259
 Vibration    12          0.646              1.813              1.974
 Vibration    13          0.667              1.751              1.680
 Vibration    14          0.679              1.713              1.542
 Vibration    15          0.710              1.624              1.281
 Vibration    16          0.723              1.585              1.189
 Vibration    17          0.732              1.560              1.134
 Vibration    18          0.740              1.538              1.089
 Vibration    19          0.749              1.515              1.044
 Vibration    20          0.759              1.488              0.995
 Vibration    21          0.784              1.422              0.885
 Vibration    22          0.808              1.363              0.798
 Vibration    23          0.860              1.239              0.645
 Vibration    24          0.871              1.214              0.618
 Vibration    25          0.883              1.188              0.591
 Vibration    26          0.903              1.145              0.549
 Vibration    27          0.948              1.051              0.466

                           ! Non-Optimized Parameters !
 Normal termination of Gaussian 16 at Wed May 24 09:18:41 2023.
