 Gaussian 16, Revision A.03,
 Gaussian 16:  ES64L-G16RevA.03 25-Dec-2016

 -----------------------------
 # opt freq b3lyp/6-31g(2df,p)
 -----------------------------

 -------------------
 Title Card Required
 -------------------
 Symbolic Z-matrix:
 Charge =  0 Multiplicity = 1

 SCF Done:  E(RB3LYP) =  -738.805213154     A.U. after   13 cycles
 SCF Done:  E(RB3LYP) =  -738.846466569     A.U. after   11 cycles
 SCF Done:  E(RB3LYP) =  -738.869018527     A.U. after   12 cycles
 SCF Done:  E(RB3LYP) =  -738.880468763     A.U. after   11 cycles
 SCF Done:  E(RB3LYP) =  -738.884140037     A.U. after   11 cycles
 SCF Done:  E(RB3LYP) =  -738.886581868     A.U. after   11 cycles
 SCF Done:  E(RB3LYP) =  -738.887841713     A.U. after   11 cycles
 SCF Done:  E(RB3LYP) =  -738.888910034     A.U. after   11 cycles
 SCF Done:  E(RB3LYP) =  -738.889538306     A.U. after   11 cycles
 SCF Done:  E(RB3LYP) =  -738.889827077     A.U. after   10 cycles
 SCF Done:  E(RB3LYP) =  -738.893462965     A.U. after   10 cycles
 SCF Done:  E(RB3LYP) =  -738.893903276     A.U. after   10 cycles
 SCF Done:  E(RB3LYP) =  -738.893987126     A.U. after    9 cycles
 SCF Done:  E(RB3LYP) =  -738.894051861     A.U. after    9 cycles
 SCF Done:  E(RB3LYP) =  -738.894079297     A.U. after    9 cycles
 SCF Done:  E(RB3LYP) =  -738.894091411     A.U. after    9 cycles
 SCF Done:  E(RB3LYP) =  -738.894094555     A.U. after    7 cycles
 SCF Done:  E(RB3LYP) =  -738.894095393     A.U. after    7 cycles
 SCF Done:  E(RB3LYP) =  -738.894095607     A.U. after    6 cycles
 Optimization completed.
    -- Stationary point found.
 Normal termination of Gaussian 16 at Mon May 22 13:55:54 2023.

 ----------------------------------------------------------------------
 #N Geom=AllCheck Guess=TCheck SCRF=Check GenChk RB3LYP/6-31G(2df,p) Fr
 eq
 ----------------------------------------------------------------------

 Structure from the checkpoint file:  "CdC1CCCCCqCrCqCrqCqOrCOrCC1C.chk"
 -------------------
 Title Card Required
 -------------------
 Charge =  0 Multiplicity = 1

                         Standard orientation:
 ---------------------------------------------------------------------
 Center     Atomic      Atomic             Coordinates (Angstroms)
 Number     Number       Type             X           Y           Z
 ---------------------------------------------------------------------
      1          6           0        2.205563   -1.787644   -1.777830
      2          6           0        2.237407   -1.265587   -0.549146
      3          6           0        3.364246   -0.328650   -0.158683
      4          6           0        2.957404    1.095818    0.269295
      5          6           0        2.088521    1.810740   -0.785767
      6          6           0        0.725287    2.357725   -0.324523
      7          6           0       -0.342324    1.517056    0.443933
      8          6           0       -0.082009    1.438908    1.960798
      9          6           0       -0.855039    0.159531   -0.181179
     10          6           0       -0.766330    0.188683   -1.721007
     11          6           0       -2.388022    0.116152    0.192949
     12          8           0       -3.034770    1.232085   -0.399835
     13          6           0       -3.185203   -1.141637   -0.201136
     14          8           0       -4.583795   -0.901692   -0.002919
     15          6           0       -0.283753   -1.186049    0.393157
     16          6           0        1.207368   -1.720447    0.489521
     17          6           0        1.765494   -1.721323    1.926075
     18          1           0        2.933627   -1.514026   -2.535007
     19          1           0        1.448879   -2.507400   -2.077085
     20          1           0        4.045311   -0.252623   -1.014097
     21          1           0        3.946998   -0.783329    0.653082
     22          1           0        3.878000    1.661151    0.453458
     23          1           0        2.441464    1.065424    1.229200
     24          1           0        1.944148    1.134645   -1.632258
     25          1           0        2.640864    2.664216   -1.197232
     26          1           0        0.236019    2.759008   -1.219887
     27          1           0        0.910219    3.233508    0.312689
     28          1           0       -1.215117    2.171135    0.357239
     29          1           0        0.731258    0.770431    2.240753
     30          1           0       -0.971479    1.098369    2.500883
     31          1           0        0.161773    2.433634    2.348687
     32          1           0       -1.316177    1.044760   -2.116442
     33          1           0       -1.207163   -0.714966   -2.154948
     34          1           0        0.261738    0.230424   -2.070886
     35          1           0       -2.459647    0.196191    1.293833
     36          1           0       -3.973937    1.000569   -0.417913
     37          1           0       -2.864764   -2.023849    0.361959
     38          1           0       -3.081916   -1.351512   -1.268604
     39          1           0       -4.749796   -0.895810    0.946292
     40          1           0       -0.791733   -1.948584   -0.204404
     41          1           0       -0.688334   -1.303777    1.406689
     42          1           0        1.068090   -2.785040    0.268776
     43          1           0        2.040398   -0.733334    2.298775
     44          1           0        2.660326   -2.349989    1.983048
     45          1           0        1.027808   -2.142031    2.616679
 ---------------------------------------------------------------------

 SCF Done:  E(RB3LYP) =  -738.894095607     A.U. after    1 cycles

 The electronic state is 1-A.
 Alpha  occ. eigenvalues --  -19.15394 -19.12447 -10.23005 -10.22536 -10.19490
 Alpha  occ. eigenvalues --  -10.19294 -10.18629 -10.18114 -10.17751 -10.17373
 Alpha  occ. eigenvalues --  -10.17340 -10.17157 -10.16766 -10.16601 -10.16419
 Alpha  occ. eigenvalues --  -10.16408 -10.15461  -1.03862  -1.00220  -0.83035
 Alpha  occ. eigenvalues --   -0.80543  -0.78475  -0.74498  -0.73222  -0.70738
 Alpha  occ. eigenvalues --   -0.70035  -0.67723  -0.64347  -0.63460  -0.60045
 Alpha  occ. eigenvalues --   -0.59188  -0.56447  -0.52678  -0.51521  -0.49966
 Alpha  occ. eigenvalues --   -0.49117  -0.47275  -0.46497  -0.45067  -0.44575
 Alpha  occ. eigenvalues --   -0.43651  -0.43291  -0.42726  -0.41849  -0.40908
 Alpha  occ. eigenvalues --   -0.40025  -0.39538  -0.38886  -0.38029  -0.37201
 Alpha  occ. eigenvalues --   -0.36485  -0.35725  -0.35312  -0.34889  -0.34170
 Alpha  occ. eigenvalues --   -0.33617  -0.32897  -0.32520  -0.31835  -0.31337
 Alpha  occ. eigenvalues --   -0.30986  -0.30367  -0.29617  -0.27963  -0.27228
 Alpha  occ. eigenvalues --   -0.25279  -0.23645
 Alpha virt. eigenvalues --    0.01714   0.05952   0.07138   0.09265   0.09908
 Alpha virt. eigenvalues --    0.10457   0.11800   0.12254   0.12795   0.13394
 Alpha virt. eigenvalues --    0.13738   0.13884   0.14849   0.15254   0.15383

 Mulliken charges:
               1
     1  C   -0.406114
     2  C    0.374738
     3  C   -0.296335
     4  C   -0.196351
     5  C   -0.194135
     6  C   -0.247167
     7  C    0.023868
     8  C   -0.425268
     9  C    0.189465
    10  C   -0.439301
    11  C    0.130070
    12  O   -0.446821
    13  C   -0.124220
    14  O   -0.425647
    15  C   -0.246243
    16  C   -0.093069
    17  C   -0.421379
    18  H    0.100966
    19  H    0.096473
    20  H    0.094834
    21  H    0.098751
    22  H    0.092863
    23  H    0.099801
    24  H    0.106963
    25  H    0.087718
    26  H    0.099234
    27  H    0.086178
    28  H    0.116427
    29  H    0.120460
    30  H    0.104946
    31  H    0.108170
    32  H    0.128986
    33  H    0.095005
    34  H    0.129271
    35  H    0.047579
    36  H    0.284008
    37  H    0.100123
    38  H    0.123302
    39  H    0.287905
    40  H    0.101037
    41  H    0.087384
    42  H    0.092881
    43  H    0.128659
    44  H    0.114662
    45  H    0.109323
 Sum of Mulliken charges =  -0.00000

 Dipole moment (field-independent basis, Debye):
    X=              0.0205    Y=             -1.2597    Z=              1.7032  Tot=              2.1185
 Quadrupole moment (field-independent basis, Debye-Ang):
   XX=           -107.1310   YY=           -109.0358   ZZ=           -106.8464
   XY=              3.5501   XZ=             -6.3811   YZ=             -0.9978

  Exact polarizability: 181.623   4.151 157.934  -3.109   4.386 157.035
 Approx polarizability: 239.327   5.575 233.352  -2.060   9.692 251.676

                      1                      2                      3
                      A                      A                      A
 Frequencies --     67.5392                74.0843                82.5588
 Red. masses --      3.5204                 2.9643                 3.1623
 Frc consts  --      0.0095                 0.0096                 0.0127
 IR Inten    --      0.7114                 1.1723                 1.7228

                      4                      5                      6
                      A                      A                      A
 Frequencies --    105.0098               109.6681               125.2077
 Red. masses --      3.4583                 3.5437                 2.4910
 Frc consts  --      0.0225                 0.0251                 0.0230
 IR Inten    --      0.0517                 0.4181                 1.1183

                      7                      8                      9
                      A                      A                      A
 Frequencies --    155.0421               179.2527               189.8797
 Red. masses --      3.1586                 1.5657                 2.3541
 Frc consts  --      0.0447                 0.0296                 0.0500
 IR Inten    --      0.6566                 0.2954                 0.3960

                     10                     11                     12
                      A                      A                      A
 Frequencies --    194.2120               232.5944               252.1797
 Red. masses --      2.5559                 1.6481                 1.9425
 Frc consts  --      0.0568                 0.0525                 0.0728
 IR Inten    --      0.5079                 0.4142                 0.7969

                     13                     14                     15
                      A                      A                      A
 Frequencies --    258.7991               263.8378               275.3842
 Red. masses --      1.6263                 1.7072                 1.6370
 Frc consts  --      0.0642                 0.0700                 0.0731
 IR Inten    --      0.3866                 0.1859                 0.1360

                     16                     17                     18
                      A                      A                      A
 Frequencies --    305.0124               307.9279               325.1305
 Red. masses --      2.9304                 2.1461                 2.2543
 Frc consts  --      0.1606                 0.1199                 0.1404
 IR Inten    --      2.0687                 0.0459                 5.2393

                     19                     20                     21
                      A                      A                      A
 Frequencies --    330.1994               339.6104               351.2086
 Red. masses --      2.4145                 1.5788                 1.7752
 Frc consts  --      0.1551                 0.1073                 0.1290
 IR Inten    --      6.1076                40.7658                21.6165

                     22                     23                     24
                      A                      A                      A
 Frequencies --    364.2203               375.0787               413.6570
 Red. masses --      2.6172                 3.6714                 2.2938
 Frc consts  --      0.2046                 0.3043                 0.2313
 IR Inten    --      0.7965                 9.8805                 2.7606

                     25                     26                     27
                      A                      A                      A
 Frequencies --    423.8896               451.4710               461.1340
 Red. masses --      2.7012                 2.5038                 2.2910
 Frc consts  --      0.2860                 0.3007                 0.2870
 IR Inten    --      1.6577                 2.0135                 1.3657

                     28                     29                     30
                      A                      A                      A
 Frequencies --    496.6134               544.5800               553.5554
 Red. masses --      2.7422                 1.9162                 2.5337
 Frc consts  --      0.3985                 0.3348                 0.4574
 IR Inten    --      3.6856                 7.1313                 5.8013

                     31                     32                     33
                      A                      A                      A
 Frequencies --    574.5076               627.9532               640.4352
 Red. masses --      1.2651                 3.4287                 2.8242
 Frc consts  --      0.2460                 0.7966                 0.6825
 IR Inten    --    101.8273                 6.5788                 0.6813

                     34                     35                     36
                      A                      A                      A
 Frequencies --    694.3112               716.4795               757.7941
 Red. masses --      2.5413                 1.5181                 2.0873
 Frc consts  --      0.7218                 0.4592                 0.7062
 IR Inten    --      4.1467                 2.0453                 2.3125

                     37                     38                     39
                      A                      A                      A
 Frequencies --    761.1741               792.7138               826.5410
 Red. masses --      1.3985                 2.1405                 2.4831
 Frc consts  --      0.4774                 0.7925                 0.9995
 IR Inten    --      1.9469                 1.5895                 3.9638

                     40                     41                     42
                      A                      A                      A
 Frequencies --    866.6715               876.0109               882.0543
 Red. masses --      1.9988                 1.9419                 2.1496
 Frc consts  --      0.8845                 0.8780                 0.9854
 IR Inten    --      6.8324                 1.0739                 1.0433

                     43                     44                     45
                      A                      A                      A
 Frequencies --    912.5886               928.7264               937.7184
 Red. masses --      1.9479                 1.7577                 1.5638
 Frc consts  --      0.9558                 0.8932                 0.8102
 IR Inten    --      4.3703                37.7655                11.6181

                     46                     47                     48
                      A                      A                      A
 Frequencies --    948.7520               962.6328               978.9720
 Red. masses --      1.8586                 1.8740                 1.9924
 Frc consts  --      0.9857                 1.0231                 1.1250
 IR Inten    --      6.8497                14.1429                25.6286

                     49                     50                     51
                      A                      A                      A
 Frequencies --    999.8001              1015.7077              1032.0282
 Red. masses --      2.4786                 1.5861                 1.8657
 Frc consts  --      1.4598                 0.9641                 1.1708
 IR Inten    --     61.5418                 0.9104                 4.0674

                     52                     53                     54
                      A                      A                      A
 Frequencies --   1037.2916              1053.0706              1062.9457
 Red. masses --      1.9866                 1.8976                 2.3453
 Frc consts  --      1.2594                 1.2399                 1.5613
 IR Inten    --      0.4484                 6.3258                 9.0725

                     55                     56                     57
                      A                      A                      A
 Frequencies --   1070.8596              1082.8337              1106.7048
 Red. masses --      3.0053                 2.1782                 2.6634
 Frc consts  --      2.0305                 1.5048                 1.9220
 IR Inten    --     20.7725                 9.7732                25.4263

                     58                     59                     60
                      A                      A                      A
 Frequencies --   1115.1847              1127.8166              1130.0695
 Red. masses --      2.0855                 2.5834                 2.0177
 Frc consts  --      1.5281                 1.9361                 1.5181
 IR Inten    --      1.3529                21.3324                 2.7482

                     61                     62                     63
                      A                      A                      A
 Frequencies --   1146.4817              1168.2277              1201.0201
 Red. masses --      1.9581                 2.0199                 1.3750
 Frc consts  --      1.5164                 1.6242                 1.1685
 IR Inten    --     15.0870                 7.1175                 0.6023

                     64                     65                     66
                      A                      A                      A
 Frequencies --   1207.0616              1223.5785              1231.6175
 Red. masses --      1.4279                 2.2063                 1.5482
 Frc consts  --      1.2257                 1.9461                 1.3836
 IR Inten    --     16.8007                 8.7050                 1.1049

                     67                     68                     69
                      A                      A                      A
 Frequencies --   1282.0385              1285.2625              1304.2690
 Red. masses --      1.5553                 1.3224                 1.2495
 Frc consts  --      1.5061                 1.2870                 1.2524
 IR Inten    --      3.8092                 0.8248                10.4083

                     70                     71                     72
                      A                      A                      A
 Frequencies --   1313.2681              1328.4799              1356.5657
 Red. masses --      1.2972                 1.2458                 1.2286
 Frc consts  --      1.3181                 1.2954                 1.3321
 IR Inten    --     10.3994                 7.1636                 0.8622

                     73                     74                     75
                      A                      A                      A
 Frequencies --   1360.9680              1365.5304              1369.5420
 Red. masses --      1.2144                 1.3133                 1.2868
 Frc consts  --      1.3253                 1.4428                 1.4221
 IR Inten    --     26.7384                 3.5386                10.0262

                     76                     77                     78
                      A                      A                      A
 Frequencies --   1372.0265              1374.2834              1376.9777
 Red. masses --      1.2490                 1.2138                 1.1952
 Frc consts  --      1.3853                 1.3507                 1.3352
 IR Inten    --      4.5683                 8.8120                 1.0947

                     79                     80                     81
                      A                      A                      A
 Frequencies --   1382.5747              1394.1333              1404.3286
 Red. masses --      1.2850                 1.2703                 1.2657
 Frc consts  --      1.4472                 1.4546                 1.4706
 IR Inten    --      4.9624                23.0853                 3.7766

                     82                     83                     84
                      A                      A                      A
 Frequencies --   1406.2986              1411.7012              1416.8594
 Red. masses --      1.2335                 1.2053                 1.2590
 Frc consts  --      1.4373                 1.4153                 1.4891
 IR Inten    --      6.4813                17.4774                 1.0836

                     85                     86                     87
                      A                      A                      A
 Frequencies --   1421.6890              1431.1777              1445.4228
 Red. masses --      1.2388                 1.4078                 1.2359
 Frc consts  --      1.4752                 1.6990                 1.5213
 IR Inten    --     16.4600                20.7899                 1.7244

                     88                     89                     90
                      A                      A                      A
 Frequencies --   1455.9328              1476.6572              1481.9768
 Red. masses --      1.1744                 1.0755                 1.0923
 Frc consts  --      1.4667                 1.3817                 1.4134
 IR Inten    --      3.1546                 1.3212                 9.5765

                     91                     92                     93
                      A                      A                      A
 Frequencies --   1482.8319              1492.0675              1494.8288
 Red. masses --      1.0790                 1.0667                 1.0508
 Frc consts  --      1.3979                 1.3992                 1.3834
 IR Inten    --      2.5832                 4.8247                 8.2999

                     94                     95                     96
                      A                      A                      A
 Frequencies --   1496.3153              1497.3853              1501.0617
 Red. masses --      1.0703                 1.0755                 1.0654
 Frc consts  --      1.4119                 1.4207                 1.4144
 IR Inten    --      0.7658                 4.9603                 4.9097

                     97                     98                     99
                      A                      A                      A
 Frequencies --   1504.2482              1513.0507              1515.8013
 Red. masses --      1.0717                 1.0587                 1.0586
 Frc consts  --      1.4288                 1.4280                 1.4331
 IR Inten    --      2.5061                 3.1733                 3.3289

                    100                    101                    102
                      A                      A                      A
 Frequencies --   1518.7549              1696.5091              2917.0029
 Red. masses --      1.0649                 5.1279                 1.0806
 Frc consts  --      1.4472                 8.6957                 5.4174
 IR Inten    --      0.4798                 8.8703                49.6016

                    103                    104                    105
                      A                      A                      A
 Frequencies --   3006.3433              3006.9175              3016.8122
 Red. masses --      1.0662                 1.0719                 1.0619
 Frc consts  --      5.6778                 5.7103                 5.6944
 IR Inten    --     21.8152                13.7320                19.5628

                    106                    107                    108
                      A                      A                      A
 Frequencies --   3019.6949              3027.9276              3040.3385
 Red. masses --      1.0757                 1.0725                 1.0415
 Frc consts  --      5.7793                 5.7936                 5.6721
 IR Inten    --     19.7686                29.7241                14.5897

                    109                    110                    111
                      A                      A                      A
 Frequencies --   3041.6552              3045.4965              3045.7342
 Red. masses --      1.0542                 1.0761                 1.0611
 Frc consts  --      5.7464                 5.8805                 5.7995
 IR Inten    --     20.2165                45.0653                52.7859

                    112                    113                    114
                      A                      A                      A
 Frequencies --   3049.2729              3050.3617              3056.6542
 Red. masses --      1.0742                 1.0572                 1.0987
 Frc consts  --      5.8849                 5.7958                 6.0482
 IR Inten    --     39.6712                 7.7100                20.4835

                    115                    116                    117
                      A                      A                      A
 Frequencies --   3059.7041              3068.9167              3088.5894
 Red. masses --      1.0822                 1.0893                 1.0927
 Frc consts  --      5.9693                 6.0448                 6.1413
 IR Inten    --     13.1552                39.4679                20.0955

                    118                    119                    120
                      A                      A                      A
 Frequencies --   3091.3467              3097.2952              3112.5540
 Red. masses --      1.0985                 1.1008                 1.1008
 Frc consts  --      6.1849                 6.2218                 6.2833
 IR Inten    --     50.7513                33.9115                29.0998

                    121                    122                    123
                      A                      A                      A
 Frequencies --   3120.7561              3123.3511              3132.0411
 Red. masses --      1.0931                 1.0899                 1.0958
 Frc consts  --      6.2726                 6.2643                 6.3334
 IR Inten    --     10.9058                32.6219                35.8774

                    124                    125                    126
                      A                      A                      A
 Frequencies --   3134.7455              3158.5228              3181.9965
 Red. masses --      1.0614                 1.0896                 1.0952
 Frc consts  --      6.1450                 6.4042                 6.5337
 IR Inten    --     11.7277                16.1262                 9.9471

                    127                    128                    129
                      A                      A                      A
 Frequencies --   3212.8287              3734.1829              3803.2545
 Red. masses --      1.1141                 1.0649                 1.0661
 Frc consts  --      6.7758                 8.7487                 9.0861
 IR Inten    --     15.9994                95.5895                21.5264

 - Thermochemistry -
 -------------------
 Temperature   298.150 Kelvin.  Pressure   1.00000 Atm.
 Atom     1 has atomic number  6 and mass  12.00000

 Molecular mass:   240.20893 amu.
 Principal axes and moments of inertia in atomic units:
                           1         2         3
     Eigenvalues --  2575.501115661.463496368.20938
           X            0.99998   0.00663  -0.00042
           Y           -0.00663   0.99997  -0.00448
           Z            0.00039   0.00448   0.99999
 This molecule is an asymmetric top.
 Rotational symmetry number  1.
 Warning -- assumption of classical behavior for rotation
           may cause significant error
 Rotational temperatures (Kelvin)      0.03363     0.01530     0.01360
 Rotational constants (GHZ):           0.70073     0.31878     0.28340
 Zero-point vibrational energy    1080718.3 (Joules/Mol)
                                  258.29787 (Kcal/Mol)
 Warning -- explicit consideration of  31 degrees of freedom as
           vibrations may cause significant error
 Vibrational temperatures:     97.17   106.59   118.78   151.09   157.79
          (Kelvin)            180.15   223.07   257.90   273.19   279.43
                              334.65   362.83   372.35   379.60   396.22
                              438.84   443.04   467.79   475.08   488.62
                              505.31   524.03   539.65   595.16   609.88
                              649.57   663.47   714.52   783.53   796.44
                              826.59   903.48   921.44   998.96  1030.85
                             1090.30  1095.16  1140.54  1189.21  1246.95
                             1260.38  1269.08  1313.01  1336.23  1349.17
                             1365.04  1385.01  1408.52  1438.49  1461.38
                             1484.86  1492.43  1515.13  1529.34  1540.73
                             1557.96  1592.30  1604.50  1622.68  1625.92
                             1649.53  1680.82  1728.00  1736.69  1760.46
                             1772.02  1844.57  1849.21  1876.55  1889.50
                             1911.39  1951.80  1958.13  1964.69  1970.47
                             1974.04  1977.29  1981.16  1989.22  2005.85
                             2020.52  2023.35  2031.12  2038.54  2045.49
                             2059.15  2079.64  2094.76  2124.58  2132.23
                             2133.46  2146.75  2150.73  2152.86  2154.40
                             2159.69  2164.28  2176.94  2180.90  2185.15
                             2440.90  4196.92  4325.46  4326.28  4340.52
                             4344.67  4356.51  4374.37  4376.26  4381.79
                             4382.13  4387.22  4388.79  4397.84  4402.23
                             4415.49  4443.79  4447.76  4456.32  4478.27
                             4490.07  4493.81  4506.31  4510.20  4544.41
                             4578.18  4622.54  5372.66  5472.03

 Zero-point correction=                           0.411624 (Hartree/Particle)
 Thermal correction to Energy=                    0.430576
 Thermal correction to Enthalpy=                  0.431520
 Thermal correction to Gibbs Free Energy=         0.367201
 Sum of electronic and zero-point Energies=           -738.482472
 Sum of electronic and thermal Energies=              -738.463520
 Sum of electronic and thermal Enthalpies=            -738.462576
 Sum of electronic and thermal Free Energies=         -738.526895

                     E (Thermal)             CV                S
                      KCal/Mol        Cal/Mol-Kelvin    Cal/Mol-Kelvin
 Total                  270.190             75.873            135.371
 Electronic               0.000              0.000              0.000
 Translational            0.889              2.981             42.330
 Rotational               0.889              2.981             32.896
 Vibrational            268.413             69.912             60.145
 Vibration     1          0.598              1.970              4.224
 Vibration     2          0.599              1.966              4.042
 Vibration     3          0.600              1.961              3.829
 Vibration     4          0.605              1.945              3.359
 Vibration     5          0.606              1.941              3.275
 Vibration     6          0.610              1.928              3.018
 Vibration     7          0.620              1.897              2.609
 Vibration     8          0.629              1.868              2.336
 Vibration     9          0.633              1.854              2.229
 Vibration    10          0.635              1.848              2.187
 Vibration    11          0.653              1.791              1.859
 Vibration    12          0.664              1.759              1.715
 Vibration    13          0.668              1.748              1.670
 Vibration    14          0.670              1.739              1.636
 Vibration    15          0.677              1.719              1.562
 Vibration    16          0.696              1.664              1.389
 Vibration    17          0.698              1.659              1.373
 Vibration    18          0.709              1.625              1.284
 Vibration    19          0.713              1.615              1.259
 Vibration    20          0.720              1.596              1.214
 Vibration    21          0.728              1.573              1.161
 Vibration    22          0.738              1.546              1.104
 Vibration    23          0.746              1.523              1.059
 Vibration    24          0.777              1.441              0.914
 Vibration    25          0.786              1.418              0.879
 Vibration    26          0.810              1.358              0.791
 Vibration    27          0.819              1.336              0.763
 Vibration    28          0.852              1.258              0.667
 Vibration    29          0.900              1.152              0.556
 Vibration    30          0.909              1.132              0.537
 Vibration    31          0.931              1.086              0.496

                           ! Non-Optimized Parameters !
 Normal termination of Gaussian 16 at Mon May 22 20:47:31 2023.
