 Gaussian 16, Revision A.03,
 Gaussian 16:  ES64L-G16RevA.03 25-Dec-2016

 -----------------------------
 # opt freq b3lyp/6-31g(2df,p)
 -----------------------------

 -------------------
 Title Card Required
 -------------------
 Symbolic Z-matrix:
 Charge =  0 Multiplicity = 1

 SCF Done:  E(RB3LYP) =  -539.859421794     A.U. after   14 cycles
 SCF Done:  E(RB3LYP) =  -539.869252010     A.U. after   12 cycles
 SCF Done:  E(RB3LYP) =  -539.870603536     A.U. after   12 cycles
 SCF Done:  E(RB3LYP) =  -539.871635056     A.U. after   12 cycles
 SCF Done:  E(RB3LYP) =  -539.872596706     A.U. after   14 cycles
 SCF Done:  E(RB3LYP) =  -539.873243006     A.U. after   11 cycles
 SCF Done:  E(RB3LYP) =  -539.874408577     A.U. after   12 cycles
 SCF Done:  E(RB3LYP) =  -539.874782916     A.U. after   12 cycles
 SCF Done:  E(RB3LYP) =  -539.874990765     A.U. after   10 cycles
 SCF Done:  E(RB3LYP) =  -539.875224165     A.U. after   11 cycles
 SCF Done:  E(RB3LYP) =  -539.875254973     A.U. after   10 cycles
 SCF Done:  E(RB3LYP) =  -539.875280912     A.U. after   10 cycles
 SCF Done:  E(RB3LYP) =  -539.875286696     A.U. after    9 cycles
 SCF Done:  E(RB3LYP) =  -539.875290111     A.U. after    9 cycles
 SCF Done:  E(RB3LYP) =  -539.875290280     A.U. after    7 cycles
 SCF Done:  E(RB3LYP) =  -539.875290354     A.U. after    7 cycles
 Optimization completed.
    -- Stationary point found.
 Normal termination of Gaussian 16 at Sun May 28 06:00:55 2023.

 ----------------------------------------------------------------------
 #N Geom=AllCheck Guess=TCheck SCRF=Check GenChk RB3LYP/6-31G(2df,p) Fr
 eq
 ----------------------------------------------------------------------

 Structure from the checkpoint file:  "CdC1CqdCCCqCrOrCdC1CO.chk"
 -------------------
 Title Card Required
 -------------------
 Charge =  0 Multiplicity = 1

                         Standard orientation:
 ---------------------------------------------------------------------
 Center     Atomic      Atomic             Coordinates (Angstroms)
 Number     Number       Type             X           Y           Z
 ---------------------------------------------------------------------
      1          6           0        1.042811    1.755463   -0.240759
      2          6           0        1.170671    0.436610   -0.128174
      3          6           0        0.313184   -0.800475   -0.281970
      4          6           0       -0.952723   -1.100801   -0.574576
      5          6           0       -2.058569   -0.134838   -0.879753
      6          6           0       -3.233536   -0.198239    0.121605
      7          6           0       -2.845977    0.265962    1.524374
      8          8           0       -4.353424    0.527233   -0.376532
      9          6           0        1.523943   -1.585257    0.043441
     10          6           0        2.298527   -0.477919    0.199499
     11          6           0        3.716524   -0.207915    0.566067
     12          8           0        4.293085    0.836161   -0.209604
     13          1           0        0.103198    2.227046   -0.501517
     14          1           0        1.898020    2.401906   -0.079668
     15          1           0       -1.227720   -2.155615   -0.586682
     16          1           0       -2.480027   -0.353114   -1.869741
     17          1           0       -1.676024    0.891668   -0.915713
     18          1           0       -3.585159   -1.236561    0.172323
     19          1           0       -2.500759    1.307880    1.503847
     20          1           0       -2.031984   -0.341110    1.930361
     21          1           0       -3.705877    0.202884    2.196530
     22          1           0       -4.121065    1.462439   -0.367634
     23          1           0        1.711236   -2.648047    0.134315
     24          1           0        4.305569   -1.136551    0.507615
     25          1           0        3.774250    0.142979    1.604363
     26          1           0        4.169925    0.611491   -1.137843
 ---------------------------------------------------------------------

 SCF Done:  E(RB3LYP) =  -539.875290354     A.U. after    1 cycles

 The electronic state is 1-A.
 Alpha  occ. eigenvalues --  -19.14404 -19.12928 -10.24096 -10.22979 -10.20195
 Alpha  occ. eigenvalues --  -10.19970 -10.19869 -10.19582 -10.18251 -10.18197
 Alpha  occ. eigenvalues --  -10.17464 -10.17131  -1.02413  -1.01203  -0.88171
 Alpha  occ. eigenvalues --   -0.79117  -0.73822  -0.73452  -0.71004  -0.66521
 Alpha  occ. eigenvalues --   -0.59721  -0.59695  -0.56171  -0.51243  -0.48506
 Alpha  occ. eigenvalues --   -0.48069  -0.47804  -0.45428  -0.44531  -0.44230
 Alpha  occ. eigenvalues --   -0.42434  -0.41788  -0.39768  -0.38373  -0.37154
 Alpha  occ. eigenvalues --   -0.36120  -0.35391  -0.34759  -0.33631  -0.32066
 Alpha  occ. eigenvalues --   -0.31274  -0.27891  -0.26824  -0.24127  -0.21866
 Alpha virt. eigenvalues --   -0.02975  -0.00330   0.07404   0.08220   0.10864
 Alpha virt. eigenvalues --    0.10987   0.12495   0.13456   0.13815   0.14350
 Alpha virt. eigenvalues --    0.14504   0.15862   0.16155   0.16594   0.17727

 Mulliken charges:
               1
     1  C   -0.456440
     2  C    0.150048
     3  C    0.335382
     4  C   -0.230904
     5  C   -0.272332
     6  C    0.141853
     7  C   -0.392213
     8  O   -0.430265
     9  C   -0.422757
    10  C    0.303124
    11  C   -0.188786
    12  O   -0.408800
    13  H    0.107338
    14  H    0.123589
    15  H    0.083759
    16  H    0.113350
    17  H    0.090768
    18  H    0.087173
    19  H    0.104554
    20  H    0.125397
    21  H    0.121431
    22  H    0.274613
    23  H    0.120240
    24  H    0.101949
    25  H    0.130147
    26  H    0.287781
 Sum of Mulliken charges =  -0.00000

 Dipole moment (field-independent basis, Debye):
    X=              1.1088    Y=             -0.8258    Z=             -0.0267  Tot=              1.3828
 Quadrupole moment (field-independent basis, Debye-Ang):
   XX=            -82.7781   YY=            -66.5374   ZZ=            -71.1710
   XY=             -7.7066   XZ=             -3.3746   YZ=             -1.0742

  Exact polarizability: 163.575   4.644 122.392  11.929  -1.626  79.023
 Approx polarizability: 223.571  14.673 214.809  24.518  -2.480 119.859

                      1                      2                      3
                      A                      A                      A
 Frequencies --     28.4471                47.9490                58.2062
 Red. masses --      3.7085                 3.8001                 4.5471
 Frc consts  --      0.0018                 0.0051                 0.0091
 IR Inten    --      1.1489                 0.7179                 1.1585

                      4                      5                      6
                      A                      A                      A
 Frequencies --     68.1724               131.5573               154.6764
 Red. masses --      3.3199                 3.7045                 2.9411
 Frc consts  --      0.0091                 0.0378                 0.0415
 IR Inten    --      1.4464                 0.5764                 1.5896

                      7                      8                      9
                      A                      A                      A
 Frequencies --    209.7505               239.7632               252.7954
 Red. masses --      2.3139                 1.6348                 1.5202
 Frc consts  --      0.0600                 0.0554                 0.0572
 IR Inten    --      0.6132                 7.6131                 3.0497

                     10                     11                     12
                      A                      A                      A
 Frequencies --    274.9663               301.0589               314.3772
 Red. masses --      1.2144                 2.3735                 2.6830
 Frc consts  --      0.0541                 0.1267                 0.1562
 IR Inten    --     66.6404                74.2726                 9.7292

                     13                     14                     15
                      A                      A                      A
 Frequencies --    318.5685               351.0922               408.7457
 Red. masses --      2.4177                 2.1354                 2.2439
 Frc consts  --      0.1446                 0.1551                 0.2209
 IR Inten    --     20.3529                61.4130                22.7082

                     16                     17                     18
                      A                      A                      A
 Frequencies --    423.1050               451.5921               499.2695
 Red. masses --      3.2116                 2.1381                 3.1836
 Frc consts  --      0.3387                 0.2569                 0.4676
 IR Inten    --     23.7088                 1.6208                 1.9610

                     19                     20                     21
                      A                      A                      A
 Frequencies --    575.9546               661.6845               742.5120
 Red. masses --      2.8221                 3.3901                 1.4648
 Frc consts  --      0.5516                 0.8745                 0.4758
 IR Inten    --      0.5402                 3.7027                 0.6589

                     22                     23                     24
                      A                      A                      A
 Frequencies --    771.8717               777.7835               789.5167
 Red. masses --      3.5172                 2.0333                 3.8740
 Frc consts  --      1.2346                 0.7247                 1.4228
 IR Inten    --      0.8116                 0.8114                 0.4176

                     25                     26                     27
                      A                      A                      A
 Frequencies --    820.5262               848.7891               893.3971
 Red. masses --      1.9502                 1.6517                 1.4602
 Frc consts  --      0.7736                 0.7011                 0.6867
 IR Inten    --      1.8319                 9.7711                10.8106

                     28                     29                     30
                      A                      A                      A
 Frequencies --    899.2113               908.9885               953.5181
 Red. masses --      1.4867                 1.3563                 2.0629
 Frc consts  --      0.7083                 0.6603                 1.1051
 IR Inten    --     16.9587                28.1194                14.0367

                     31                     32                     33
                      A                      A                      A
 Frequencies --    970.4111              1017.4699              1045.6338
 Red. masses --      1.7109                 1.7087                 2.5191
 Frc consts  --      0.9493                 1.0422                 1.6228
 IR Inten    --     30.0939                 5.6546                26.1584

                     34                     35                     36
                      A                      A                      A
 Frequencies --   1064.2260              1081.8252              1112.9061
 Red. masses --      5.0360                 2.1794                 2.4590
 Frc consts  --      3.3605                 1.5028                 1.7944
 IR Inten    --     43.8201               110.0428                 6.8548

                     37                     38                     39
                      A                      A                      A
 Frequencies --   1127.9351              1157.0963              1193.8895
 Red. masses --      2.0011                 2.4751                 1.2404
 Frc consts  --      1.5000                 1.9525                 1.0417
 IR Inten    --     23.1319                36.3513                 6.4134

                     40                     41                     42
                      A                      A                      A
 Frequencies --   1199.8416              1219.4621              1271.2846
 Red. masses --      1.7310                 1.4748                 1.2891
 Frc consts  --      1.4682                 1.2922                 1.2275
 IR Inten    --     14.6482                 2.8234                 7.4460

                     43                     44                     45
                      A                      A                      A
 Frequencies --   1286.7490              1326.9093              1360.2826
 Red. masses --      3.0564                 1.4202                 1.2970
 Frc consts  --      2.9816                 1.4732                 1.4140
 IR Inten    --      4.6129                14.6481                 2.1143

                     46                     47                     48
                      A                      A                      A
 Frequencies --   1367.1671              1379.0623              1402.1611
 Red. masses --      1.3113                 1.4231                 1.2514
 Frc consts  --      1.4441                 1.5946                 1.4496
 IR Inten    --      5.1477                 4.3862                12.9955

                     49                     50                     51
                      A                      A                      A
 Frequencies --   1412.7035              1422.8615              1447.7322
 Red. masses --      1.2426                 1.2241                 1.1811
 Frc consts  --      1.4611                 1.4601                 1.4585
 IR Inten    --    101.1635                47.0717                 4.6446

                     52                     53                     54
                      A                      A                      A
 Frequencies --   1475.3439              1490.4417              1491.4791
 Red. masses --      1.0999                 1.0790                 1.0573
 Frc consts  --      1.4106                 1.4123                 1.3857
 IR Inten    --      2.5194                 0.3718                 4.0951

                     55                     56                     57
                      A                      A                      A
 Frequencies --   1494.9436              1622.0573              1728.5945
 Red. masses --      1.0549                 7.5621                 7.2748
 Frc consts  --      1.3890                11.7226                12.8073
 IR Inten    --     10.7871                 1.3487                11.1007

                     58                     59                     60
                      A                      A                      A
 Frequencies --   1785.7097              2983.5403              3019.2625
 Red. masses --      9.0656                 1.0673                 1.0596
 Frc consts  --     17.0322                 5.5974                 5.6912
 IR Inten    --      4.6598                60.4722                27.7654

                     61                     62                     63
                      A                      A                      A
 Frequencies --   3022.8556              3031.5522              3042.5085
 Red. masses --      1.0526                 1.0740                 1.0932
 Frc consts  --      5.6668                 5.8152                 5.9625
 IR Inten    --      2.9528                22.8320                17.7576

                     64                     65                     66
                      A                      A                      A
 Frequencies --   3071.0920              3097.6070              3123.8531
 Red. masses --      1.0980                 1.0938                 1.0877
 Frc consts  --      6.1013                 6.1836                 6.2539
 IR Inten    --     17.9399                28.0505                23.4469

                     67                     68                     69
                      A                      A                      A
 Frequencies --   3124.5977              3159.7675              3210.8199
 Red. masses --      1.1021                 1.0598                 1.0994
 Frc consts  --      6.3394                 6.2343                 6.6780
 IR Inten    --     26.1428                 3.2163                 6.2881

                     70                     71                     72
                      A                      A                      A
 Frequencies --   3244.9876              3797.3187              3812.6415
 Red. masses --      1.1149                 1.0658                 1.0663
 Frc consts  --      6.9172                 9.0550                 9.1327
 IR Inten    --      5.5953                11.4181                19.8041

 - Thermochemistry -
 -------------------
 Temperature   298.150 Kelvin.  Pressure   1.00000 Atm.
 Atom     1 has atomic number  6 and mass  12.00000

 Molecular mass:   166.09938 amu.
 Principal axes and moments of inertia in atomic units:
                           1         2         3
     Eigenvalues --   762.257834865.958075123.77934
           X            0.99999  -0.00390  -0.00370
           Y            0.00387   0.99996  -0.00769
           Z            0.00373   0.00767   0.99996
 This molecule is an asymmetric top.
 Rotational symmetry number  1.
 Warning -- assumption of classical behavior for rotation
           may cause significant error
 Rotational temperatures (Kelvin)      0.11363     0.01780     0.01690
 Rotational constants (GHZ):           2.36763     0.37089     0.35223
 Zero-point vibrational energy     573468.4 (Joules/Mol)
                                  137.06224 (Kcal/Mol)
 Warning -- explicit consideration of  19 degrees of freedom as
           vibrations may cause significant error
 Vibrational temperatures:     40.93    68.99    83.75    98.08   189.28
          (Kelvin)            222.54   301.78   344.97   363.72   395.62
                              433.16   452.32   458.35   505.14   588.09
                              608.75   649.74   718.34   828.67   952.02
                             1068.31  1110.55  1119.06  1135.94  1180.55
                             1221.22  1285.40  1293.76  1307.83  1371.90
                             1396.21  1463.91  1504.43  1531.18  1556.51
                             1601.22  1622.85  1664.80  1717.74  1726.30
                             1754.53  1829.09  1851.34  1909.13  1957.14
                             1967.05  1984.16  2017.40  2032.57  2047.18
                             2082.96  2122.69  2144.41  2145.91  2150.89
                             2333.78  2487.06  2569.24  4292.65  4344.05
                             4349.22  4361.73  4377.49  4418.62  4456.77
                             4494.53  4495.60  4546.20  4619.65  4668.81
                             5463.49  5485.54

 Zero-point correction=                           0.218423 (Hartree/Particle)
 Thermal correction to Energy=                    0.231926
 Thermal correction to Enthalpy=                  0.232870
 Thermal correction to Gibbs Free Energy=         0.177323
 Sum of electronic and zero-point Energies=           -539.656868
 Sum of electronic and thermal Energies=              -539.643365
 Sum of electronic and thermal Enthalpies=            -539.642420
 Sum of electronic and thermal Free Energies=         -539.697968

                     E (Thermal)             CV                S
                      KCal/Mol        Cal/Mol-Kelvin    Cal/Mol-Kelvin
 Total                  145.536             49.388            116.909
 Electronic               0.000              0.000              0.000
 Translational            0.889              2.981             41.231
 Rotational               0.889              2.981             31.319
 Vibrational            143.758             43.426             44.359
 Vibration     1          0.593              1.984              5.935
 Vibration     2          0.595              1.978              4.900
 Vibration     3          0.596              1.974              4.517
 Vibration     4          0.598              1.969              4.205
 Vibration     5          0.612              1.922              2.923
 Vibration     6          0.620              1.897              2.614
 Vibration     7          0.642              1.826              2.046
 Vibration     8          0.657              1.780              1.805
 Vibration     9          0.664              1.758              1.711
 Vibration    10          0.677              1.720              1.565
 Vibration    11          0.693              1.672              1.411
 Vibration    12          0.702              1.646              1.339
 Vibration    13          0.705              1.638              1.317
 Vibration    14          0.728              1.573              1.161
 Vibration    15          0.773              1.451              0.931
 Vibration    16          0.785              1.420              0.881
 Vibration    17          0.810              1.357              0.791
 Vibration    18          0.855              1.252              0.660
 Vibration    19          0.932              1.083              0.493

 Optimization completed.
    -- Stationary point found.
 Normal termination of Gaussian 16 at Sun May 28 07:01:12 2023.
