 Gaussian 16, Revision A.03,
 Gaussian 16:  ES64L-G16RevA.03 25-Dec-2016

 -----------------------------
 # opt freq b3lyp/6-31g(2df,p)
 -----------------------------

 -------------------
 Title Card Required
 -------------------
 Symbolic Z-matrix:
 Charge =  0 Multiplicity = 1

 SCF Done:  E(RB3LYP) =  -614.085635260     A.U. after   29 cycles
 SCF Done:  E(RB3LYP) =  -614.192895531     A.U. after   22 cycles
 SCF Done:  E(RB3LYP) =  -614.358608932     A.U. after   17 cycles
 SCF Done:  E(RB3LYP) =  -614.486851239     A.U. after   17 cycles
 SCF Done:  E(RB3LYP) =  -614.547908407     A.U. after   14 cycles
 SCF Done:  E(RB3LYP) =  -614.582631969     A.U. after   13 cycles
 SCF Done:  E(RB3LYP) =  -614.715475944     A.U. after   14 cycles
 SCF Done:  E(RB3LYP) =  -614.800031533     A.U. after   13 cycles
 SCF Done:  E(RB3LYP) =  -614.863234312     A.U. after   13 cycles
 SCF Done:  E(RB3LYP) =  -614.883643254     A.U. after   13 cycles
 SCF Done:  E(RB3LYP) =  -615.018429676     A.U. after    8 cycles
 SCF Done:  E(RB3LYP) =  -615.018438406     A.U. after    8 cycles
 SCF Done:  E(RB3LYP) =  -615.018448946     A.U. after    8 cycles
 SCF Done:  E(RB3LYP) =  -615.018460433     A.U. after    8 cycles
 SCF Done:  E(RB3LYP) =  -615.018466983     A.U. after    8 cycles
 SCF Done:  E(RB3LYP) =  -615.018478859     A.U. after   10 cycles
 SCF Done:  E(RB3LYP) =  -615.018484121     A.U. after    9 cycles
 SCF Done:  E(RB3LYP) =  -615.018488490     A.U. after    9 cycles
 SCF Done:  E(RB3LYP) =  -615.018488679     A.U. after    7 cycles
 Optimization completed.
    -- Stationary point found.
 Normal termination of Gaussian 16 at Sun May 28 06:58:29 2023.

 ----------------------------------------------------------------------
 #N Geom=AllCheck Guess=TCheck SCRF=Check GenChk RB3LYP/6-31G(2df,p) Fr
 eq
 ----------------------------------------------------------------------

 Structure from the checkpoint file:  "CdC1CCCdCdCqCrCqOOrCO1.chk"
 -------------------
 Title Card Required
 -------------------
 Charge =  0 Multiplicity = 1

                         Standard orientation:
 ---------------------------------------------------------------------
 Center     Atomic      Atomic             Coordinates (Angstroms)
 Number     Number       Type             X           Y           Z
 ---------------------------------------------------------------------
      1          6           0       -1.908956    1.936661    1.286161
      2          6           0       -1.750850    1.245875    0.154863
      3          6           0       -2.833320    0.417831   -0.491533
      4          6           0       -2.753123   -1.097790   -0.150219
      5          6           0       -1.536133   -1.813204   -0.719117
      6          6           0       -0.324765   -1.618269   -0.278104
      7          6           0        0.852559   -1.269422    0.169240
      8          6           0        1.578074   -2.007209    1.271711
      9          6           0        1.465596    0.013240   -0.397496
     10          8           0        2.814867    0.074072    0.055902
     11          8           0        3.486497    1.072539   -0.750709
     12          6           0        0.668660    1.248786    0.067587
     13          8           0       -0.596483    1.184216   -0.573104
     14          1           0       -2.864183    1.924033    1.794471
     15          1           0       -1.118394    2.525778    1.732640
     16          1           0       -2.776975    0.550846   -1.577497
     17          1           0       -3.807841    0.790285   -0.162281
     18          1           0       -3.658778   -1.580287   -0.532312
     19          1           0       -2.773534   -1.202174    0.939620
     20          1           0       -1.701014   -2.480062   -1.564379
     21          1           0        0.983319   -2.854588    1.617352
     22          1           0        1.776526   -1.347849    2.124597
     23          1           0        2.548900   -2.373845    0.923868
     24          1           0        1.457424   -0.010318   -1.492065
     25          1           0        3.797762    1.672942   -0.059082
     26          1           0        1.188797    2.163258   -0.236873
     27          1           0        0.562482    1.236376    1.156670
 ---------------------------------------------------------------------

 SCF Done:  E(RB3LYP) =  -615.018488679     A.U. after    1 cycles

 The electronic state is 1-A.
 Alpha  occ. eigenvalues --  -19.19921 -19.19730 -19.16119 -10.24219 -10.23577
 Alpha  occ. eigenvalues --  -10.23425 -10.19788 -10.19146 -10.18748 -10.18628
 Alpha  occ. eigenvalues --  -10.18198 -10.17923 -10.15893  -1.12137  -1.05678
 Alpha  occ. eigenvalues --   -0.92169  -0.81446  -0.80471  -0.75326  -0.72494
 Alpha  occ. eigenvalues --   -0.70373  -0.66889  -0.61472  -0.60340  -0.55656
 Alpha  occ. eigenvalues --   -0.53568  -0.49871  -0.49283  -0.48276  -0.47728
 Alpha  occ. eigenvalues --   -0.45547  -0.44678  -0.43312  -0.42327  -0.41181
 Alpha  occ. eigenvalues --   -0.39979  -0.39574  -0.38645  -0.38200  -0.36856
 Alpha  occ. eigenvalues --   -0.35741  -0.34390  -0.33342  -0.31437  -0.31026
 Alpha  occ. eigenvalues --   -0.26605  -0.25107  -0.23570  -0.21408
 Alpha virt. eigenvalues --    0.00846   0.02169   0.03351   0.04048   0.07540
 Alpha virt. eigenvalues --    0.10187   0.12063   0.12731   0.13664   0.14003
 Alpha virt. eigenvalues --    0.15216   0.15421   0.15936   0.16397   0.17282

 Mulliken charges:
               1
     1  C   -0.452426
     2  C    0.423188
     3  C   -0.270907
     4  C   -0.226880
     5  C   -0.300039
     6  C    0.394494
     7  C   -0.085700
     8  C   -0.467041
     9  C    0.096763
    10  O   -0.205969
    11  O   -0.324363
    12  C   -0.106218
    13  O   -0.258229
    14  H    0.105503
    15  H    0.100825
    16  H    0.114444
    17  H    0.105675
    18  H    0.100675
    19  H    0.115551
    20  H    0.109278
    21  H    0.124777
    22  H    0.128215
    23  H    0.141961
    24  H    0.108023
    25  H    0.313838
    26  H    0.104460
    27  H    0.110100
 Sum of Mulliken charges =  -0.00000

 Dipole moment (field-independent basis, Debye):
    X=             -0.3678    Y=              0.5929    Z=              1.1568  Tot=              1.3509
 Quadrupole moment (field-independent basis, Debye-Ang):
   XX=            -72.7629   YY=            -74.8835   ZZ=            -76.9020
   XY=              6.6411   XZ=              4.3718   YZ=              2.3978

  Exact polarizability: 155.455   9.228 109.079   7.421   9.766  97.743
 Approx polarizability: 218.518  19.140 153.057  15.395  17.577 164.059

                      1                      2                      3
                      A                      A                      A
 Frequencies --     34.4334                85.0450               100.3868
 Red. masses --      3.5272                 4.2399                 6.0653
 Frc consts  --      0.0025                 0.0181                 0.0360
 IR Inten    --      0.0637                 0.1728                 6.2075

                      4                      5                      6
                      A                      A                      A
 Frequencies --    121.5471               159.3282               180.8387
 Red. masses --      3.5368                 3.2323                 1.4004
 Frc consts  --      0.0308                 0.0483                 0.0270
 IR Inten    --      0.9579                 1.2184                 0.4853

                      7                      8                      9
                      A                      A                      A
 Frequencies --    198.2831               204.6803               213.2134
 Red. masses --      2.1646                 1.1659                 3.8540
 Frc consts  --      0.0501                 0.0288                 0.1032
 IR Inten    --      4.9232                97.4857                10.9996

                     10                     11                     12
                      A                      A                      A
 Frequencies --    234.8013               265.7912               305.6035
 Red. masses --      2.7034                 3.1064                 2.9829
 Frc consts  --      0.0878                 0.1293                 0.1641
 IR Inten    --      4.6025                 1.2807                 6.7617

                     13                     14                     15
                      A                      A                      A
 Frequencies --    313.1831               370.8794               427.0470
 Red. masses --      3.5901                 3.5420                 3.1020
 Frc consts  --      0.2075                 0.2871                 0.3333
 IR Inten    --      6.6818                 1.1069                 1.5493

                     16                     17                     18
                      A                      A                      A
 Frequencies --    437.0447               490.3008               508.7500
 Red. masses --      3.2873                 3.5765                 3.2822
 Frc consts  --      0.3699                 0.5066                 0.5005
 IR Inten    --      3.5643                 3.2542                 9.1465

                     19                     20                     21
                      A                      A                      A
 Frequencies --    549.5580               588.5040               630.7449
 Red. masses --      2.6781                 4.7608                 4.1129
 Frc consts  --      0.4765                 0.9715                 0.9641
 IR Inten    --      3.9405                 8.9611                 2.9456

                     22                     23                     24
                      A                      A                      A
 Frequencies --    646.5195               729.5787               736.6843
 Red. masses --      2.3146                 2.0596                 1.4073
 Frc consts  --      0.5700                 0.6459                 0.4500
 IR Inten    --      1.9244                 1.7523                 1.7986

                     25                     26                     27
                      A                      A                      A
 Frequencies --    795.4131               811.4989               833.7033
 Red. masses --      2.3681                 1.5268                 1.4012
 Frc consts  --      0.8827                 0.5924                 0.5738
 IR Inten    --      6.9406                10.5283                45.2756

                     28                     29                     30
                      A                      A                      A
 Frequencies --    881.0882               912.6623               930.5923
 Red. masses --      2.7572                 2.5736                 2.2610
 Frc consts  --      1.2611                 1.2630                 1.1537
 IR Inten    --      7.8812                 2.7476                 4.8897

                     31                     32                     33
                      A                      A                      A
 Frequencies --    955.8083               972.2712              1016.6816
 Red. masses --      6.7652                 1.8040                 2.5016
 Frc consts  --      3.6414                 1.0047                 1.5235
 IR Inten    --     18.3868                 6.1974                 0.3724

                     34                     35                     36
                      A                      A                      A
 Frequencies --   1035.9486              1045.5545              1051.6410
 Red. masses --      1.8413                 1.9140                 2.3050
 Frc consts  --      1.1643                 1.2328                 1.5020
 IR Inten    --     15.3831                 5.3207                11.2693

                     37                     38                     39
                      A                      A                      A
 Frequencies --   1075.7428              1094.6984              1113.7600
 Red. masses --      3.1963                 3.6699                 2.7012
 Frc consts  --      2.1793                 2.5912                 1.9742
 IR Inten    --      6.0985                65.1280                12.1875

                     40                     41                     42
                      A                      A                      A
 Frequencies --   1185.7597              1205.7838              1228.4377
 Red. masses --      1.3147                 3.1572                 1.2684
 Frc consts  --      1.0891                 2.7045                 1.1278
 IR Inten    --     22.3212                 1.6142                38.6465

                     43                     44                     45
                      A                      A                      A
 Frequencies --   1241.2341              1252.6910              1296.4950
 Red. masses --      1.4153                 1.2434                 1.9304
 Frc consts  --      1.2847                 1.1496                 1.9118
 IR Inten    --      4.3393                 3.5635                83.2000

                     46                     47                     48
                      A                      A                      A
 Frequencies --   1323.0276              1334.6084              1341.5502
 Red. masses --      1.2315                 1.2751                 1.3312
 Frc consts  --      1.2701                 1.3381                 1.4116
 IR Inten    --     14.2294                 7.9461                 6.2771

                     49                     50                     51
                      A                      A                      A
 Frequencies --   1370.0777              1389.8725              1394.0775
 Red. masses --      1.4621                 1.3465                 1.2566
 Frc consts  --      1.6170                 1.5325                 1.4389
 IR Inten    --     32.7692                42.7283                11.8751

                     52                     53                     54
                      A                      A                      A
 Frequencies --   1406.5993              1437.9521              1446.6322
 Red. masses --      1.2149                 1.5330                 1.5104
 Frc consts  --      1.4162                 1.8676                 1.8624
 IR Inten    --      2.6596                 4.3530                 2.3841

                     55                     56                     57
                      A                      A                      A
 Frequencies --   1476.5116              1478.2188              1484.6338
 Red. masses --      1.1038                 1.0585                 1.0898
 Frc consts  --      1.4178                 1.3628                 1.4152
 IR Inten    --      5.0333                 7.1859                 3.8940

                     58                     59                     60
                      A                      A                      A
 Frequencies --   1499.7517              1500.5833              1705.8844
 Red. masses --      1.0976                 1.2244                 5.6065
 Frc consts  --      1.4546                 1.6244                 9.6127
 IR Inten    --      6.3621                 4.0778               122.0658

                     61                     62                     63
                      A                      A                      A
 Frequencies --   2065.6457              3033.0444              3038.2588
 Red. masses --     11.0560                 1.0378                 1.0549
 Frc consts  --     27.7946                 5.6252                 5.7374
 IR Inten    --     10.8241                24.2019                37.1434

                     64                     65                     66
                      A                      A                      A
 Frequencies --   3039.7872              3044.5912              3055.3460
 Red. masses --      1.0590                 1.0609                 1.0846
 Frc consts  --      5.7653                 5.7939                 5.9657
 IR Inten    --     27.4098                19.1740                 9.8767

                     67                     68                     69
                      A                      A                      A
 Frequencies --   3082.5734              3089.4650              3096.2866
 Red. masses --      1.1014                 1.0977                 1.1042
 Frc consts  --      6.1663                 6.1730                 6.2370
 IR Inten    --     24.0308                13.6896                13.7695

                     70                     71                     72
                      A                      A                      A
 Frequencies --   3096.8524              3125.5532              3133.0772
 Red. masses --      1.1073                 1.0882                 1.1015
 Frc consts  --      6.2570                 6.2637                 6.3704
 IR Inten    --     31.6456                18.3989                15.3395

                     73                     74                     75
                      A                      A                      A
 Frequencies --   3174.4429              3256.5965              3766.1590
 Red. masses --      1.0610                 1.1151                 1.0685
 Frc consts  --      6.2993                 6.9679                 8.9298
 IR Inten    --      0.5996                 7.2912                45.7748

 - Thermochemistry -
 -------------------
 Temperature   298.150 Kelvin.  Pressure   1.00000 Atm.
 Atom     1 has atomic number  6 and mass  12.00000

 Molecular mass:   182.09429 amu.
 Principal axes and moments of inertia in atomic units:
                           1         2         3
     Eigenvalues --  1481.611033104.853393940.55471
           X            0.99997  -0.00256   0.00783
           Y            0.00251   0.99998   0.00654
           Z           -0.00785  -0.00652   0.99995
 This molecule is an asymmetric top.
 Rotational symmetry number  1.
 Warning -- assumption of classical behavior for rotation
           may cause significant error
 Rotational temperatures (Kelvin)      0.05846     0.02790     0.02198
 Rotational constants (GHZ):           1.21809     0.58126     0.45799
 Zero-point vibrational energy     587114.5 (Joules/Mol)
                                  140.32372 (Kcal/Mol)
 Warning -- explicit consideration of  20 degrees of freedom as
           vibrations may cause significant error
 Vibrational temperatures:     49.54   122.36   144.43   174.88   229.24
          (Kelvin)            260.19   285.29   294.49   306.77   337.83
                              382.41   439.70   450.60   533.61   614.43
                              628.81   705.43   731.98   790.69   846.73
                              907.50   930.20  1049.70  1059.92  1144.42
                             1167.57  1199.51  1267.69  1313.12  1338.91
                             1375.19  1398.88  1462.78  1490.50  1504.32
                             1513.08  1547.75  1575.03  1602.45  1706.04
                             1734.85  1767.45  1785.86  1802.34  1865.37
                             1903.54  1920.20  1930.19  1971.24  1999.72
                             2005.77  2023.78  2068.89  2081.38  2124.37
                             2126.83  2136.06  2157.81  2159.00  2454.39
                             2972.00  4363.87  4371.38  4373.58  4380.49
                             4395.96  4435.14  4445.05  4454.87  4455.68
                             4496.97  4507.80  4567.32  4685.52  5418.66

 Zero-point correction=                           0.223620 (Hartree/Particle)
 Thermal correction to Energy=                    0.237221
 Thermal correction to Enthalpy=                  0.238165
 Thermal correction to Gibbs Free Energy=         0.183727
 Sum of electronic and zero-point Energies=           -614.794869
 Sum of electronic and thermal Energies=              -614.781268
 Sum of electronic and thermal Enthalpies=            -614.780323
 Sum of electronic and thermal Free Energies=         -614.834761

                     E (Thermal)             CV                S
                      KCal/Mol        Cal/Mol-Kelvin    Cal/Mol-Kelvin
 Total                  148.859             51.303            114.574
 Electronic               0.000              0.000              0.000
 Translational            0.889              2.981             41.505
 Rotational               0.889              2.981             31.272
 Vibrational            147.081             45.341             41.797
 Vibration     1          0.594              1.983              5.556
 Vibration     2          0.601              1.960              3.771
 Vibration     3          0.604              1.949              3.447
 Vibration     4          0.609              1.931              3.076
 Vibration     5          0.621              1.892              2.558
 Vibration     6          0.630              1.866              2.320
 Vibration     7          0.637              1.842              2.149
 Vibration     8          0.640              1.833              2.091
 Vibration     9          0.644              1.821              2.016
 Vibration    10          0.655              1.788              1.842
 Vibration    11          0.672              1.736              1.623
 Vibration    12          0.696              1.663              1.386
 Vibration    13          0.701              1.649              1.345
 Vibration    14          0.743              1.532              1.076
 Vibration    15          0.789              1.411              0.868
 Vibration    16          0.797              1.389              0.836
 Vibration    17          0.846              1.272              0.683
 Vibration    18          0.864              1.231              0.637
 Vibration    19          0.905              1.141              0.545
 Vibration    20          0.946              1.056              0.470

 Optimization completed.
    -- Stationary point found.
 Normal termination of Gaussian 16 at Sun May 28 08:19:51 2023.
