 Gaussian 16, Revision A.03,
 Gaussian 16:  ES64L-G16RevA.03 25-Dec-2016

 -----------------------------
 # opt freq b3lyp/6-31g(2df,p)
 -----------------------------

 -------------------
 Title Card Required
 -------------------
 Symbolic Z-matrix:
 Charge =  0 Multiplicity = 1

 SCF Done:  E(RB3LYP) =  -560.536513037     A.U. after   13 cycles
 SCF Done:  E(RB3LYP) =  -560.558098336     A.U. after   12 cycles
 SCF Done:  E(RB3LYP) =  -560.565015093     A.U. after   11 cycles
 SCF Done:  E(RB3LYP) =  -560.571399040     A.U. after   11 cycles
 SCF Done:  E(RB3LYP) =  -560.576144830     A.U. after   11 cycles
 SCF Done:  E(RB3LYP) =  -560.583495914     A.U. after   12 cycles
 SCF Done:  E(RB3LYP) =  -560.585171809     A.U. after   11 cycles
 SCF Done:  E(RB3LYP) =  -560.585879299     A.U. after   10 cycles
 SCF Done:  E(RB3LYP) =  -560.585959508     A.U. after    9 cycles
 SCF Done:  E(RB3LYP) =  -560.586000813     A.U. after    9 cycles
 SCF Done:  E(RB3LYP) =  -560.586053249     A.U. after    9 cycles
 SCF Done:  E(RB3LYP) =  -560.586064926     A.U. after    9 cycles
 SCF Done:  E(RB3LYP) =  -560.586080308     A.U. after    9 cycles
 SCF Done:  E(RB3LYP) =  -560.586094952     A.U. after    9 cycles
 SCF Done:  E(RB3LYP) =  -560.586107040     A.U. after    9 cycles
 SCF Done:  E(RB3LYP) =  -560.586108584     A.U. after    9 cycles
 SCF Done:  E(RB3LYP) =  -560.586108754     A.U. after    7 cycles
 SCF Done:  E(RB3LYP) =  -560.586108828     A.U. after    6 cycles
 SCF Done:  E(RB3LYP) =  -560.586108862     A.U. after    6 cycles
 Optimization completed.
    -- Stationary point found.
 Normal termination of Gaussian 16 at Wed May 24 19:00:07 2023.

 ----------------------------------------------------------------------
 #N Geom=AllCheck Guess=TCheck SCRF=Check GenChk RB3LYP/6-31G(2df,p) Fr
 eq
 ----------------------------------------------------------------------

 Structure from the checkpoint file:  "CdC1CCqCCrdCCqNCOrC1C.chk"
 -------------------
 Title Card Required
 -------------------
 Charge =  0 Multiplicity = 1

                         Standard orientation:
 ---------------------------------------------------------------------
 Center     Atomic      Atomic             Coordinates (Angstroms)
 Number     Number       Type             X           Y           Z
 ---------------------------------------------------------------------
      1          6           0        0.718936    3.079363    0.890749
      2          6           0        0.683771    1.932050    0.217199
      3          6           0        1.934845    1.159002   -0.129296
      4          6           0        1.778485   -0.338274    0.049131
      5          6           0        3.057729   -1.129298   -0.093683
      6          6           0        2.945655   -2.650037    0.019388
      7          6           0        0.587079   -0.880992    0.307049
      8          6           0       -0.699059   -0.105310    0.472671
      9          7           0       -1.831713   -0.900848   -0.022447
     10          6           0       -3.110984   -0.598695    0.594543
     11          8           0       -4.138761   -1.322123   -0.035825
     12          6           0       -0.607841    1.282330   -0.226727
     13          6           0       -0.707805    1.179430   -1.758867
     14          1           0        1.654312    3.521323    1.220975
     15          1           0       -0.187845    3.625313    1.132769
     16          1           0        2.777962    1.519876    0.473231
     17          1           0        2.222906    1.353254   -1.175244
     18          1           0        3.774636   -0.761082    0.655354
     19          1           0        3.512285   -0.869222   -1.061502
     20          1           0        2.562552   -2.953083    0.998986
     21          1           0        3.927241   -3.114858   -0.110899
     22          1           0        2.277625   -3.060459   -0.744414
     23          1           0        0.505342   -1.957369    0.441358
     24          1           0       -0.825476    0.097570    1.554218
     25          1           0       -1.642230   -1.890489    0.101734
     26          1           0       -3.269208    0.489358    0.530718
     27          1           0       -3.167932   -0.879717    1.659649
     28          1           0       -4.030210   -1.171170   -0.982330
     29          1           0       -1.439100    1.902022    0.128230
     30          1           0        0.084602    0.549578   -2.173191
     31          1           0       -0.629822    2.172832   -2.210831
     32          1           0       -1.660425    0.731833   -2.048023
 ---------------------------------------------------------------------

 SCF Done:  E(RB3LYP) =  -560.586108862     A.U. after    1 cycles

 The electronic state is 1-A.
 Alpha  occ. eigenvalues --  -19.13209 -14.31375 -10.24662 -10.21420 -10.18905
 Alpha  occ. eigenvalues --  -10.18854 -10.18677 -10.18638 -10.18525 -10.17746
 Alpha  occ. eigenvalues --  -10.17521 -10.16644 -10.16605  -1.02279  -0.89985
 Alpha  occ. eigenvalues --   -0.83860  -0.79330  -0.74652  -0.73527  -0.69755
 Alpha  occ. eigenvalues --   -0.65438  -0.64337  -0.62903  -0.58455  -0.54504
 Alpha  occ. eigenvalues --   -0.51434  -0.49619  -0.47543  -0.46829  -0.46143
 Alpha  occ. eigenvalues --   -0.44764  -0.43803  -0.43448  -0.42069  -0.40883
 Alpha  occ. eigenvalues --   -0.40037  -0.39151  -0.38181  -0.37955  -0.35682
 Alpha  occ. eigenvalues --   -0.35087  -0.34522  -0.34273  -0.33606  -0.31562
 Alpha  occ. eigenvalues --   -0.30759  -0.27314  -0.24807  -0.24259  -0.22248
 Alpha virt. eigenvalues --    0.01997   0.02600   0.07832   0.09013   0.09895
 Alpha virt. eigenvalues --    0.10249   0.11743   0.12989   0.13886   0.14876
 Alpha virt. eigenvalues --    0.15412   0.15873   0.16096   0.16712   0.17231

 Mulliken charges:
               1
     1  C   -0.447555
     2  C    0.391004
     3  C   -0.397384
     4  C    0.283592
     5  C   -0.248873
     6  C   -0.394165
     7  C   -0.168074
     8  C   -0.005428
     9  N   -0.331837
    10  C   -0.011962
    11  O   -0.417857
    12  C   -0.097907
    13  C   -0.386435
    14  H    0.098100
    15  H    0.099277
    16  H    0.107688
    17  H    0.118510
    18  H    0.107376
    19  H    0.106364
    20  H    0.122039
    21  H    0.112028
    22  H    0.122136
    23  H    0.074565
    24  H    0.072928
    25  H    0.215785
    26  H    0.092538
    27  H    0.093563
    28  H    0.277659
    29  H    0.069305
    30  H    0.118224
    31  H    0.109118
    32  H    0.115677
 Sum of Mulliken charges =  -0.00000

 Dipole moment (field-independent basis, Debye):
    X=              1.8203    Y=              0.0250    Z=             -0.2710  Tot=              1.8405
 Quadrupole moment (field-independent basis, Debye-Ang):
   XX=            -84.7058   YY=            -81.0025   ZZ=            -80.1827
   XY=             -4.4046   XZ=              1.8429   YZ=              0.4900

  Exact polarizability: 149.131   3.120 137.561  -1.172   8.007 102.012
 Approx polarizability: 201.574  12.524 193.219  -5.476  14.037 160.830

                      1                      2                      3
                      A                      A                      A
 Frequencies --     41.7188                58.1348                65.3892
 Red. masses --      2.1866                 2.4391                 4.4101
 Frc consts  --      0.0022                 0.0049                 0.0111
 IR Inten    --      0.2695                 0.4317                 2.8174

                      4                      5                      6
                      A                      A                      A
 Frequencies --     82.7544               111.7509               117.1262
 Red. masses --      3.2916                 2.1231                 2.8206
 Frc consts  --      0.0133                 0.0156                 0.0228
 IR Inten    --      0.2191                 0.1105                 0.0452

                      7                      8                      9
                      A                      A                      A
 Frequencies --    180.0194               198.0951               221.5271
 Red. masses --      1.9978                 1.4092                 2.0930
 Frc consts  --      0.0381                 0.0326                 0.0605
 IR Inten    --      0.9240                 0.0900                 4.8224

                     10                     11                     12
                      A                      A                      A
 Frequencies --    242.0326               273.3611               283.8740
 Red. masses --      2.3641                 2.1934                 1.5673
 Frc consts  --      0.0816                 0.0966                 0.0744
 IR Inten    --      0.9664                 5.1643                 0.3872

                     13                     14                     15
                      A                      A                      A
 Frequencies --    315.6460               340.8945               380.3178
 Red. masses --      3.3039                 2.7952                 2.9592
 Frc consts  --      0.1939                 0.1914                 0.2522
 IR Inten    --      1.7222                 7.1800                 3.9135

                     16                     17                     18
                      A                      A                      A
 Frequencies --    398.4998               429.6233               466.1812
 Red. masses --      1.4108                 2.3581                 2.4436
 Frc consts  --      0.1320                 0.2564                 0.3129
 IR Inten    --     93.7400                 6.4771                 1.1535

                     19                     20                     21
                      A                      A                      A
 Frequencies --    502.1721               527.3501               577.6545
 Red. masses --      3.5573                 3.0911                 3.7087
 Frc consts  --      0.5285                 0.5065                 0.7291
 IR Inten    --      0.7115                 4.5559                 6.9260

                     22                     23                     24
                      A                      A                      A
 Frequencies --    621.3639               709.3634               736.9292
 Red. masses --      3.2020                 2.0696                 1.1725
 Frc consts  --      0.7284                 0.6136                 0.3752
 IR Inten    --     13.0841                 1.3279                 0.6594

                     25                     26                     27
                      A                      A                      A
 Frequencies --    771.4199               779.3514               808.5739
 Red. masses --      1.4115                 1.3773                 2.2059
 Frc consts  --      0.4949                 0.4929                 0.8497
 IR Inten    --     34.0417                21.7392                11.0466

                     28                     29                     30
                      A                      A                      A
 Frequencies --    846.6701               886.3193               901.3938
 Red. masses --      1.9134                 1.9035                 2.6343
 Frc consts  --      0.8081                 0.8810                 1.2611
 IR Inten    --      2.4842                 4.0502                 9.8252

                     31                     32                     33
                      A                      A                      A
 Frequencies --    928.0859               949.7872               966.0845
 Red. masses --      1.3688                 2.1171                 1.6796
 Frc consts  --      0.6947                 1.1252                 0.9236
 IR Inten    --     28.9567                 1.7049                 1.6262

                     34                     35                     36
                      A                      A                      A
 Frequencies --    991.2050              1010.7495              1023.2963
 Red. masses --      1.7453                 1.8152                 2.0417
 Frc consts  --      1.0103                 1.0926                 1.2597
 IR Inten    --      5.7608                36.5191                10.7305

                     37                     38                     39
                      A                      A                      A
 Frequencies --   1058.0582              1079.7286              1087.9521
 Red. masses --      1.6590                 1.5605                 3.4423
 Frc consts  --      1.0942                 1.0719                 2.4006
 IR Inten    --      8.3026                 5.6980                47.8468

                     40                     41                     42
                      A                      A                      A
 Frequencies --   1095.5121              1107.6532              1110.4169
 Red. masses --      2.3974                 1.7149                 2.0213
 Frc consts  --      1.6952                 1.2396                 1.4684
 IR Inten    --     15.3275                20.6607                 0.5587

                     43                     44                     45
                      A                      A                      A
 Frequencies --   1124.0538              1152.3832              1184.5591
 Red. masses --      3.3675                 2.7908                 1.9707
 Frc consts  --      2.5069                 2.1836                 1.6293
 IR Inten    --    124.3711                26.6178                 3.3159

                     46                     47                     48
                      A                      A                      A
 Frequencies --   1212.9159              1232.4473              1270.4531
 Red. masses --      1.2070                 1.1440                 1.5487
 Frc consts  --      1.0462                 1.0238                 1.4728
 IR Inten    --      3.2961                 1.1412                 3.5806

                     49                     50                     51
                      A                      A                      A
 Frequencies --   1297.3593              1302.9728              1316.1097
 Red. masses --      1.2441                 1.6911                 1.3820
 Frc consts  --      1.2337                 1.6916                 1.4104
 IR Inten    --      1.4038                 2.8461                 6.8459

                     52                     53                     54
                      A                      A                      A
 Frequencies --   1325.3714              1347.7045              1360.9223
 Red. masses --      1.5444                 1.5203                 1.4764
 Frc consts  --      1.5984                 1.6270                 1.6111
 IR Inten    --      2.9749                 1.5980                31.8245

                     55                     56                     57
                      A                      A                      A
 Frequencies --   1369.4238              1385.5098              1398.6878
 Red. masses --      1.3130                 1.2984                 1.5446
 Frc consts  --      1.4507                 1.4685                 1.7803
 IR Inten    --     21.9053                39.5112                 3.4612

                     58                     59                     60
                      A                      A                      A
 Frequencies --   1402.5514              1414.0135              1433.7074
 Red. masses --      1.2684                 1.3567                 1.2348
 Frc consts  --      1.4701                 1.5982                 1.4955
 IR Inten    --      9.2033                 4.9811                30.2678

                     61                     62                     63
                      A                      A                      A
 Frequencies --   1454.5366              1467.7584              1476.2107
 Red. masses --      1.1177                 1.1401                 1.0903
 Frc consts  --      1.3932                 1.4471                 1.3999
 IR Inten    --      2.4302                 4.5118                 9.5123

                     64                     65                     66
                      A                      A                      A
 Frequencies --   1487.1660              1492.7859              1498.5718
 Red. masses --      1.0549                 1.2528                 1.0405
 Frc consts  --      1.3746                 1.6448                 1.3767
 IR Inten    --      3.8276                69.9324                 6.5009

                     67                     68                     69
                      A                      A                      A
 Frequencies --   1505.1853              1508.9831              1537.2718
 Red. masses --      1.0562                 1.0537                 1.0933
 Frc consts  --      1.4098                 1.4136                 1.5222
 IR Inten    --      0.3850                 4.2550                 2.4879

                     70                     71                     72
                      A                      A                      A
 Frequencies --   1722.9477              1739.7722              2891.5315
 Red. masses --      5.8929                 7.3014                 1.0802
 Frc consts  --     10.3069                13.0209                 5.3213
 IR Inten    --     15.6865                 6.7503                42.5049

                     73                     74                     75
                      A                      A                      A
 Frequencies --   2960.1064              2975.8180              2990.2364
 Red. masses --      1.0569                 1.0697                 1.1045
 Frc consts  --      5.4562                 5.5814                 5.8186
 IR Inten    --     71.4961                17.6053                61.3141

                     76                     77                     78
                      A                      A                      A
 Frequencies --   2994.5004              3012.7940              3035.0026
 Red. masses --      1.0605                 1.0988                 1.0843
 Frc consts  --      5.6028                 5.8765                 5.8847
 IR Inten    --     39.8797                15.8608                38.0691

                     79                     80                     81
                      A                      A                      A
 Frequencies --   3037.7494              3038.2234              3046.5276
 Red. masses --      1.0437                 1.0789                 1.0358
 Frc consts  --      5.6748                 5.8677                 5.6644
 IR Inten    --     13.2295                28.8123                22.5709

                     82                     83                     84
                      A                      A                      A
 Frequencies --   3105.8786              3108.5306              3114.2713
 Red. masses --      1.1017                 1.1013                 1.1013
 Frc consts  --      6.2616                 6.2700                 6.2934
 IR Inten    --     27.6049                33.2757                25.9455

                     85                     86                     87
                      A                      A                      A
 Frequencies --   3131.8829              3135.9997              3145.4413
 Red. masses --      1.0997                 1.0611                 1.0878
 Frc consts  --      6.3554                 6.1484                 6.3412
 IR Inten    --     20.3542                10.0680                19.3808

                     88                     89                     90
                      A                      A                      A
 Frequencies --   3214.9850              3514.1302              3790.8758
 Red. masses --      1.1144                 1.0738                 1.0650
 Frc consts  --      6.7868                 7.8132                 9.0170
 IR Inten    --     14.6659                 0.2598                13.0128

 - Thermochemistry -
 -------------------
 Temperature   298.150 Kelvin.  Pressure   1.00000 Atm.
 Atom     1 has atomic number  6 and mass  12.00000

 Molecular mass:   181.14666 amu.
 Principal axes and moments of inertia in atomic units:
                           1         2         3
     Eigenvalues --  1882.808023461.613284741.65933
           X            0.99921  -0.03965  -0.00022
           Y            0.03965   0.99921  -0.00156
           Z            0.00029   0.00155   1.00000
 This molecule is an asymmetric top.
 Rotational symmetry number  1.
 Warning -- assumption of classical behavior for rotation
           may cause significant error
 Rotational temperatures (Kelvin)      0.04600     0.02502     0.01827
 Rotational constants (GHZ):           0.95854     0.52136     0.38061
 Zero-point vibrational energy     747372.1 (Joules/Mol)
                                  178.62622 (Kcal/Mol)
 Warning -- explicit consideration of  21 degrees of freedom as
           vibrations may cause significant error
 Vibrational temperatures:     60.02    83.64    94.08   119.07   160.78
          (Kelvin)            168.52   259.01   285.01   318.73   348.23
                              393.31   408.43   454.14   490.47   547.19
                              573.35   618.13   670.73   722.51   758.74
                              831.12   894.00  1020.62  1060.28  1109.90
                             1121.31  1163.36  1218.17  1275.22  1296.90
                             1335.31  1366.53  1389.98  1426.12  1454.24
                             1472.30  1522.31  1553.49  1565.32  1576.20
                             1593.67  1597.64  1617.26  1658.02  1704.32
                             1745.12  1773.22  1827.90  1866.61  1874.69
                             1893.59  1906.91  1939.05  1958.06  1970.30
                             1993.44  2012.40  2017.96  2034.45  2062.79
                             2092.75  2111.78  2123.94  2139.70  2147.79
                             2156.11  2165.63  2171.09  2211.79  2478.94
                             2503.14  4160.27  4258.93  4281.54  4302.28
                             4308.42  4334.74  4366.69  4370.64  4371.33
                             4383.27  4468.67  4472.48  4480.74  4506.08
                             4512.00  4525.59  4625.65  5056.05  5454.22

 Zero-point correction=                           0.284659 (Hartree/Particle)
 Thermal correction to Energy=                    0.299207
 Thermal correction to Enthalpy=                  0.300151
 Thermal correction to Gibbs Free Energy=         0.242943
 Sum of electronic and zero-point Energies=           -560.301450
 Sum of electronic and thermal Energies=              -560.286902
 Sum of electronic and thermal Enthalpies=            -560.285958
 Sum of electronic and thermal Free Energies=         -560.343166

                     E (Thermal)             CV                S
                      KCal/Mol        Cal/Mol-Kelvin    Cal/Mol-Kelvin
 Total                  187.755             54.714            120.405
 Electronic               0.000              0.000              0.000
 Translational            0.889              2.981             41.489
 Rotational               0.889              2.981             31.803
 Vibrational            185.978             48.752             47.114
 Vibration     1          0.594              1.981              5.176
 Vibration     2          0.596              1.974              4.520
 Vibration     3          0.597              1.971              4.288
 Vibration     4          0.600              1.961              3.824
 Vibration     5          0.607              1.940              3.238
 Vibration     6          0.608              1.935              3.147
 Vibration     7          0.629              1.867              2.328
 Vibration     8          0.637              1.843              2.151
 Vibration     9          0.648              1.808              1.947
 Vibration    10          0.658              1.776              1.788
 Vibration    11          0.676              1.722              1.575
 Vibration    12          0.682              1.704              1.510
 Vibration    13          0.703              1.644              1.333
 Vibration    14          0.720              1.594              1.208
 Vibration    15          0.750              1.512              1.038
 Vibration    16          0.765              1.473              0.968
 Vibration    17          0.791              1.406              0.860
 Vibration    18          0.824              1.325              0.748
 Vibration    19          0.858              1.245              0.653
 Vibration    20          0.882              1.189              0.593
 Vibration    21          0.934              1.080              0.490

                           ! Non-Optimized Parameters !
 Normal termination of Gaussian 16 at Wed May 24 21:05:46 2023.
