 Gaussian 16, Revision A.03,
 Gaussian 16:  ES64L-G16RevA.03 25-Dec-2016

 -----------------------------
 # opt freq b3lyp/6-31g(2df,p)
 -----------------------------

 -------------------
 Title Card Required
 -------------------
 Symbolic Z-matrix:
 Charge =  0 Multiplicity = 1

 SCF Done:  E(RB3LYP) =  -578.205627164     A.U. after   13 cycles
 SCF Done:  E(RB3LYP) =  -578.215220057     A.U. after   11 cycles
 SCF Done:  E(RB3LYP) =  -578.216184614     A.U. after   11 cycles
 SCF Done:  E(RB3LYP) =  -578.216687683     A.U. after   10 cycles
 SCF Done:  E(RB3LYP) =  -578.216865675     A.U. after   10 cycles
 SCF Done:  E(RB3LYP) =  -578.216991217     A.U. after   10 cycles
 SCF Done:  E(RB3LYP) =  -578.217026253     A.U. after    9 cycles
 SCF Done:  E(RB3LYP) =  -578.217029889     A.U. after    8 cycles
 SCF Done:  E(RB3LYP) =  -578.217032719     A.U. after    8 cycles
 SCF Done:  E(RB3LYP) =  -578.217033167     A.U. after    7 cycles
 SCF Done:  E(RB3LYP) =  -578.217033383     A.U. after    7 cycles
 SCF Done:  E(RB3LYP) =  -578.217033473     A.U. after    6 cycles
 Optimization completed.
    -- Stationary point found.
 Normal termination of Gaussian 16 at Mon May 22 07:13:09 2023.

 ----------------------------------------------------------------------
 #N Geom=AllCheck Guess=TCheck SCRF=Check GenChk RB3LYP/6-31G(2df,p) Fr
 eq
 ----------------------------------------------------------------------

 Structure from the checkpoint file:  "CdC1CC1CqOrCqOrCCCO.chk"
 -------------------
 Title Card Required
 -------------------
 Charge =  0 Multiplicity = 1

                         Standard orientation:
 ---------------------------------------------------------------------
 Center     Atomic      Atomic             Coordinates (Angstroms)
 Number     Number       Type             X           Y           Z
 ---------------------------------------------------------------------
      1          6           0       -3.366500   -1.974073   -0.315845
      2          6           0       -3.228082   -0.687271   -0.073207
      3          6           0       -3.736725    0.682393   -0.189906
      4          6           0       -2.398900    0.373623    0.505358
      5          6           0       -1.102701    0.802702   -0.154814
      6          8           0       -0.893064    2.209266   -0.053986
      7          6           0        0.117184    0.028434    0.393392
      8          8           0       -0.105656   -1.377513    0.365483
      9          6           0        1.412119    0.417129   -0.327432
     10          6           0        2.659959   -0.231296    0.278461
     11          6           0        3.938481    0.115255   -0.484126
     12          8           0        5.089614   -0.530873    0.036804
     13          1           0       -4.231291   -2.367300   -0.841536
     14          1           0       -2.616881   -2.684425    0.018385
     15          1           0       -4.575916    0.989890    0.428677
     16          1           0       -3.692118    1.184311   -1.153772
     17          1           0       -2.389527    0.451775    1.593850
     18          1           0       -1.178603    0.607521   -1.233891
     19          1           0       -1.022138    2.459676    0.867490
     20          1           0        0.215720    0.269605    1.462170
     21          1           0       -0.259507   -1.632513   -0.551552
     22          1           0        1.495912    1.509020   -0.319638
     23          1           0        1.319440    0.124177   -1.384924
     24          1           0        2.540116   -1.319087    0.303118
     25          1           0        2.767840    0.094981    1.323989
     26          1           0        4.073719    1.209417   -0.514899
     27          1           0        3.858143   -0.223359   -1.523545
     28          1           0        5.198931   -0.242105    0.948389
 ---------------------------------------------------------------------

 SCF Done:  E(RB3LYP) =  -578.217033473     A.U. after    1 cycles

 The electronic state is 1-A.
 Alpha  occ. eigenvalues --  -19.14299 -19.14048 -19.12820 -10.23811 -10.23291
 Alpha  occ. eigenvalues --  -10.22106 -10.19829 -10.19724 -10.19389 -10.18019
 Alpha  occ. eigenvalues --  -10.17971 -10.17638  -1.02981  -1.01707  -1.00911
 Alpha  occ. eigenvalues --   -0.87017  -0.79031  -0.73920  -0.71660  -0.67744
 Alpha  occ. eigenvalues --   -0.61893  -0.60303  -0.58794  -0.54067  -0.50184
 Alpha  occ. eigenvalues --   -0.49962  -0.49741  -0.47223  -0.47039  -0.44601
 Alpha  occ. eigenvalues --   -0.43801  -0.43450  -0.41627  -0.40039  -0.39132
 Alpha  occ. eigenvalues --   -0.37934  -0.36696  -0.34651  -0.34040  -0.32137
 Alpha  occ. eigenvalues --   -0.31798  -0.30299  -0.29783  -0.28753  -0.26726
 Alpha  occ. eigenvalues --   -0.26092  -0.24754
 Alpha virt. eigenvalues --    0.00739   0.06389   0.07899   0.08086   0.10014
 Alpha virt. eigenvalues --    0.11248   0.12206   0.12691   0.13487   0.14404
 Alpha virt. eigenvalues --    0.15147   0.15833   0.17200   0.17510   0.18484

 Mulliken charges:
               1
     1  C   -0.462397
     2  C    0.370080
     3  C   -0.387062
     4  C   -0.100251
     5  C    0.065696
     6  O   -0.424748
     7  C    0.095095
     8  O   -0.424476
     9  C   -0.204259
    10  C   -0.202730
    11  C   -0.057428
    12  O   -0.419051
    13  H    0.111245
    14  H    0.118894
    15  H    0.122595
    16  H    0.129231
    17  H    0.089529
    18  H    0.077521
    19  H    0.280863
    20  H    0.074254
    21  H    0.281355
    22  H    0.114882
    23  H    0.083795
    24  H    0.117739
    25  H    0.079822
    26  H    0.082959
    27  H    0.108113
    28  H    0.278735
 Sum of Mulliken charges =  -0.00000

 Dipole moment (field-independent basis, Debye):
    X=             -1.4341    Y=              1.1977    Z=              0.9589  Tot=              2.1001
 Quadrupole moment (field-independent basis, Debye-Ang):
   XX=            -80.4346   YY=            -75.8632   ZZ=            -68.2419
   XY=              3.8249   XZ=              4.5215   YZ=              6.4842

  Exact polarizability: 127.805   4.057 112.421   5.713   5.276  87.612
 Approx polarizability: 145.837   3.636 174.856   8.601  10.087 140.480

                      1                      2                      3
                      A                      A                      A
 Frequencies --     39.4423                49.2272                70.3745
 Red. masses --      4.9553                 2.9610                 2.6267
 Frc consts  --      0.0045                 0.0042                 0.0077
 IR Inten    --      0.0952                 0.7896                 2.3816

                      4                      5                      6
                      A                      A                      A
 Frequencies --     74.0182                99.3261               131.6536
 Red. masses --      3.4829                 3.1392                 3.8749
 Frc consts  --      0.0112                 0.0182                 0.0396
 IR Inten    --      1.0697                 1.7396                 2.0324

                      7                      8                      9
                      A                      A                      A
 Frequencies --    153.3794               200.0455               228.3153
 Red. masses --      2.4361                 3.8412                 1.3839
 Frc consts  --      0.0338                 0.0906                 0.0425
 IR Inten    --      2.6451                 2.3021                 5.5315

                     10                     11                     12
                      A                      A                      A
 Frequencies --    238.8176               253.5670               284.7797
 Red. masses --      1.3422                 3.9958                 1.8555
 Frc consts  --      0.0451                 0.1514                 0.0887
 IR Inten    --     76.2658                18.9306               141.4872

                     13                     14                     15
                      A                      A                      A
 Frequencies --    301.9428               312.3896               329.3404
 Red. masses --      1.2276                 2.6354                 2.5243
 Frc consts  --      0.0659                 0.1515                 0.1613
 IR Inten    --     48.4569               102.8253                 5.5608

                     16                     17                     18
                      A                      A                      A
 Frequencies --    379.3401               413.8916               441.6357
 Red. masses --      2.9410                 3.3939                 3.5871
 Frc consts  --      0.2493                 0.3426                 0.4122
 IR Inten    --     11.1483                18.0852                 5.1293

                     19                     20                     21
                      A                      A                      A
 Frequencies --    508.2204               549.9765               563.9942
 Red. masses --      3.0394                 3.0580                 2.9786
 Frc consts  --      0.4625                 0.5450                 0.5582
 IR Inten    --      2.3487                 2.4274                26.0519

                     22                     23                     24
                      A                      A                      A
 Frequencies --    686.9654               757.2602               769.4145
 Red. masses --      1.1961                 1.1341                 2.6648
 Frc consts  --      0.3326                 0.3832                 0.9295
 IR Inten    --      0.7910                 1.9149                 4.1268

                     25                     26                     27
                      A                      A                      A
 Frequencies --    840.7331               869.9525               922.8315
 Red. masses --      1.4989                 1.6946                 1.9842
 Frc consts  --      0.6242                 0.7556                 0.9956
 IR Inten    --      1.4756                14.1965                10.7922

                     28                     29                     30
                      A                      A                      A
 Frequencies --    936.6017               942.2334               990.7518
 Red. masses --      1.3445                 2.2749                 1.7253
 Frc consts  --      0.6949                 1.1900                 0.9978
 IR Inten    --     28.7677                 6.7793                11.9939

                     31                     32                     33
                      A                      A                      A
 Frequencies --   1022.8508              1035.9201              1046.4245
 Red. masses --      2.9997                 2.1713                 2.5326
 Frc consts  --      1.8491                 1.3728                 1.6339
 IR Inten    --     41.3332                 7.0471                25.9628

                     34                     35                     36
                      A                      A                      A
 Frequencies --   1057.9038              1062.3984              1080.2133
 Red. masses --      1.7524                 1.9290                 2.9926
 Frc consts  --      1.1555                 1.2828                 2.0574
 IR Inten    --     28.6328                27.5138                85.9213

                     37                     38                     39
                      A                      A                      A
 Frequencies --   1084.4708              1108.4436              1115.3598
 Red. masses --      2.9956                 1.8998                 1.6927
 Frc consts  --      2.0758                 1.3753                 1.2407
 IR Inten    --     64.3193                16.2154                 7.1195

                     40                     41                     42
                      A                      A                      A
 Frequencies --   1130.0560              1138.2136              1150.1377
 Red. masses --      2.3009                 1.5903                 2.1709
 Frc consts  --      1.7312                 1.2139                 1.6919
 IR Inten    --     11.8220                 0.8935                16.2467

                     43                     44                     45
                      A                      A                      A
 Frequencies --   1164.4690              1208.5612              1250.9464
 Red. masses --      1.7951                 1.2081                 1.3595
 Frc consts  --      1.4341                 1.0397                 1.2535
 IR Inten    --      6.1828                34.0031                 5.9746

                     46                     47                     48
                      A                      A                      A
 Frequencies --   1263.8656              1278.5984              1318.0381
 Red. masses --      1.3273                 1.3701                 1.0984
 Frc consts  --      1.2492                 1.3197                 1.1243
 IR Inten    --      3.2059                19.6003                 1.3089

                     49                     50                     51
                      A                      A                      A
 Frequencies --   1340.3061              1361.0842              1382.6420
 Red. masses --      1.3151                 1.4007                 1.3649
 Frc consts  --      1.3919                 1.5288                 1.5373
 IR Inten    --      2.3269                 1.5229                 1.9792

                     52                     53                     54
                      A                      A                      A
 Frequencies --   1390.1330              1400.7287              1410.8938
 Red. masses --      1.4574                 1.3983                 1.2680
 Frc consts  --      1.6593                 1.6164                 1.4871
 IR Inten    --      2.1698                 7.8997                 5.2937

                     55                     56                     57
                      A                      A                      A
 Frequencies --   1419.5210              1424.5170              1445.0102
 Red. masses --      1.2176                 1.2881                 1.0950
 Frc consts  --      1.4456                 1.5401                 1.3471
 IR Inten    --     81.4140                58.5357                 0.9352

                     58                     59                     60
                      A                      A                      A
 Frequencies --   1475.2885              1483.5267              1496.6172
 Red. masses --      1.2158                 1.0823                 1.0884
 Frc consts  --      1.5591                 1.4034                 1.4364
 IR Inten    --      1.2248                 0.9821                 1.3770

                     61                     62                     63
                      A                      A                      A
 Frequencies --   1517.5806              1847.4764              2964.1529
 Red. masses --      1.0957                 8.9999                 1.0710
 Frc consts  --      1.4868                18.0987                 5.5444
 IR Inten    --      0.6611                 5.3447                59.5272

                     64                     65                     66
                      A                      A                      A
 Frequencies --   2988.9045              2997.0780              3004.5917
 Red. masses --      1.0703                 1.0743                 1.0769
 Frc consts  --      5.6335                 5.6855                 5.7278
 IR Inten    --      1.9184                 7.6347                24.0358

                     67                     68                     69
                      A                      A                      A
 Frequencies --   3020.3592              3058.9131              3072.1979
 Red. masses --      1.0846                 1.0875                 1.0899
 Frc consts  --      5.8295                 5.9951                 6.0611
 IR Inten    --     62.6022                32.5719                 1.0266

                     70                     71                     72
                      A                      A                      A
 Frequencies --   3090.8506              3091.8285              3105.5212
 Red. masses --      1.0864                 1.0949                 1.0537
 Frc consts  --      6.1151                 6.1665                 5.9873
 IR Inten    --     11.6931                53.1021                11.3502

                     73                     74                     75
                      A                      A                      A
 Frequencies --   3136.3743              3183.8408              3219.6580
 Red. masses --      1.0589                 1.1146                 1.1153
 Frc consts  --      6.1373                 6.6570                 6.8116
 IR Inten    --     10.2782                 7.3988                 8.7976

                     76                     77                     78
                      A                      A                      A
 Frequencies --   3794.7279              3802.7809              3814.8083
 Red. masses --      1.0658                 1.0660                 1.0661
 Frc consts  --      9.0424                 9.0828                 9.1407
 IR Inten    --     15.4697                16.2454                14.8501

 - Thermochemistry -
 -------------------
 Temperature   298.150 Kelvin.  Pressure   1.00000 Atm.
 Atom     1 has atomic number  6 and mass  12.00000

 Molecular mass:   172.10994 amu.
 Principal axes and moments of inertia in atomic units:
                           1         2         3
     Eigenvalues --   873.897845038.926745691.06948
           X            0.99998   0.00544   0.00163
           Y           -0.00547   0.99986   0.01611
           Z           -0.00154  -0.01612   0.99987
 This molecule is an asymmetric top.
 Rotational symmetry number  1.
 Warning -- assumption of classical behavior for rotation
           may cause significant error
 Rotational temperatures (Kelvin)      0.09911     0.01719     0.01522
 Rotational constants (GHZ):           2.06516     0.35816     0.31712
 Zero-point vibrational energy     631623.5 (Joules/Mol)
                                  150.96164 (Kcal/Mol)
 Warning -- explicit consideration of  21 degrees of freedom as
           vibrations may cause significant error
 Vibrational temperatures:     56.75    70.83   101.25   106.50   142.91
          (Kelvin)            189.42   220.68   287.82   328.49   343.61
                              364.83   409.73   434.43   449.46   473.85
                              545.79   595.50   635.42   731.22   791.29
                              811.46   988.39  1089.53  1107.02  1209.63
                             1251.67  1327.75  1347.56  1355.66  1425.47
                             1471.65  1490.46  1505.57  1522.09  1528.55
                             1554.19  1560.31  1594.80  1604.75  1625.90
                             1637.64  1654.79  1675.41  1738.85  1799.83
                             1818.42  1839.62  1896.36  1928.40  1958.30
                             1989.31  2000.09  2015.34  2029.96  2042.37
                             2049.56  2079.05  2122.61  2134.46  2153.30
                             2183.46  2658.11  4264.75  4300.37  4312.13
                             4322.94  4345.62  4401.09  4420.21  4447.04
                             4448.45  4468.15  4512.54  4580.84  4632.37
                             5459.77  5471.35  5488.66

 Zero-point correction=                           0.240573 (Hartree/Particle)
 Thermal correction to Energy=                    0.255022
 Thermal correction to Enthalpy=                  0.255966
 Thermal correction to Gibbs Free Energy=         0.198648
 Sum of electronic and zero-point Energies=           -577.976461
 Sum of electronic and thermal Energies=              -577.962012
 Sum of electronic and thermal Enthalpies=            -577.961068
 Sum of electronic and thermal Free Energies=         -578.018386

                     E (Thermal)             CV                S
                      KCal/Mol        Cal/Mol-Kelvin    Cal/Mol-Kelvin
 Total                  160.029             52.309            120.636
 Electronic               0.000              0.000              0.000
 Translational            0.889              2.981             41.336
 Rotational               0.889              2.981             31.594
 Vibrational            158.251             46.347             47.706
 Vibration     1          0.594              1.981              5.287
 Vibration     2          0.595              1.978              4.848
 Vibration     3          0.598              1.968              4.143
 Vibration     4          0.599              1.966              4.044
 Vibration     5          0.604              1.950              3.467
 Vibration     6          0.612              1.922              2.922
 Vibration     7          0.619              1.899              2.630
 Vibration     8          0.638              1.840              2.133
 Vibration     9          0.651              1.798              1.892
 Vibration    10          0.657              1.781              1.812
 Vibration    11          0.665              1.757              1.706
 Vibration    12          0.683              1.702              1.505
 Vibration    13          0.694              1.670              1.406
 Vibration    14          0.701              1.650              1.350
 Vibration    15          0.712              1.617              1.263
 Vibration    16          0.749              1.514              1.042
 Vibration    17          0.777              1.440              0.913
 Vibration    18          0.801              1.379              0.821
 Vibration    19          0.863              1.232              0.638
 Vibration    20          0.905              1.140              0.544
 Vibration    21          0.920              1.109              0.516

                           ! Non-Optimized Parameters !
 Normal termination of Gaussian 16 at Mon May 22 08:20:46 2023.
