 Gaussian 16, Revision A.03,
 Gaussian 16:  ES64L-G16RevA.03 25-Dec-2016

 -----------------------------
 # opt freq b3lyp/6-31g(2df,p)
 -----------------------------

 -------------------
 Title Card Required
 -------------------
 Symbolic Z-matrix:
 Charge =  0 Multiplicity = 1

 SCF Done:  E(RB3LYP) =  -509.844963715     A.U. after   13 cycles
 SCF Done:  E(RB3LYP) =  -509.852373659     A.U. after   10 cycles
 SCF Done:  E(RB3LYP) =  -509.854031843     A.U. after   10 cycles
 SCF Done:  E(RB3LYP) =  -509.855115142     A.U. after   11 cycles
 SCF Done:  E(RB3LYP) =  -509.855505537     A.U. after   10 cycles
 SCF Done:  E(RB3LYP) =  -509.855534516     A.U. after   10 cycles
 SCF Done:  E(RB3LYP) =  -509.855693656     A.U. after   10 cycles
 SCF Done:  E(RB3LYP) =  -509.855713046     A.U. after    8 cycles
 SCF Done:  E(RB3LYP) =  -509.855746534     A.U. after    9 cycles
 SCF Done:  E(RB3LYP) =  -509.855763452     A.U. after    9 cycles
 SCF Done:  E(RB3LYP) =  -509.859018339     A.U. after    9 cycles
 SCF Done:  E(RB3LYP) =  -509.859573803     A.U. after   10 cycles
 SCF Done:  E(RB3LYP) =  -509.859720857     A.U. after    9 cycles
 SCF Done:  E(RB3LYP) =  -509.859993588     A.U. after    9 cycles
 SCF Done:  E(RB3LYP) =  -509.860051389     A.U. after    9 cycles
 SCF Done:  E(RB3LYP) =  -509.860060075     A.U. after    8 cycles
 SCF Done:  E(RB3LYP) =  -509.860060846     A.U. after    7 cycles
 SCF Done:  E(RB3LYP) =  -509.860065442     A.U. after    8 cycles
 SCF Done:  E(RB3LYP) =  -509.860065487     A.U. after    6 cycles
 Optimization completed.
    -- Stationary point found.
 Normal termination of Gaussian 16 at Wed May 24 20:27:42 2023.

 ----------------------------------------------------------------------
 #N Geom=AllCheck Guess=TCheck SCRF=Check GenChk RB3LYP/6-31G(2df,p) Fr
 eq
 ----------------------------------------------------------------------

 Structure from the checkpoint file:  "CdC1CCCCCCqCrCCqCrC1.chk"
 -------------------
 Title Card Required
 -------------------
 Charge =  0 Multiplicity = 1

                         Standard orientation:
 ---------------------------------------------------------------------
 Center     Atomic      Atomic             Coordinates (Angstroms)
 Number     Number       Type             X           Y           Z
 ---------------------------------------------------------------------
      1          6           0       -2.198950    1.705349   -1.018181
      2          6           0       -1.857821    0.941995    0.021550
      3          6           0       -2.812442   -0.117008    0.544289
      4          6           0       -2.633174   -1.539300   -0.048932
      5          6           0       -1.292603   -2.232322    0.252882
      6          6           0       -0.111590   -1.732460   -0.610283
      7          6           0        1.252564   -1.717067    0.111197
      8          6           0        2.229042   -0.612772   -0.356696
      9          6           0        3.678517   -1.044173   -0.079572
     10          6           0        1.991290    0.779095    0.281791
     11          6           0        0.693517    1.547388   -0.063680
     12          6           0        0.916670    3.058425    0.120568
     13          6           0       -0.534340    1.071885    0.760259
     14          1           0       -3.167023    1.599837   -1.498723
     15          1           0       -1.540070    2.458139   -1.436069
     16          1           0       -3.840812    0.198381    0.336406
     17          1           0       -2.721624   -0.183995    1.637229
     18          1           0       -2.785823   -1.490331   -1.134882
     19          1           0       -3.448506   -2.156116    0.348804
     20          1           0       -1.411851   -3.314347    0.121405
     21          1           0       -1.060519   -2.094032    1.317446
     22          1           0       -0.341599   -0.733696   -0.982705
     23          1           0       -0.034941   -2.352297   -1.511874
     24          1           0        1.735322   -2.693940   -0.015652
     25          1           0        1.103326   -1.610619    1.194281
     26          1           0        2.117972   -0.502126   -1.445890
     27          1           0        3.843975   -1.194587    0.994365
     28          1           0        4.395768   -0.290734   -0.421745
     29          1           0        3.913528   -1.986962   -0.584409
     30          1           0        2.835250    1.411257   -0.023765
     31          1           0        2.076121    0.687156    1.375235
     32          1           0        0.479643    1.373575   -1.125170
     33          1           0        1.230443    3.280713    1.147888
     34          1           0        0.001511    3.626814   -0.072569
     35          1           0        1.695492    3.432531   -0.552380
     36          1           0       -0.685866    1.764800    1.601770
     37          1           0       -0.313789    0.116375    1.239846
 ---------------------------------------------------------------------

 SCF Done:  E(RB3LYP) =  -509.860065487     A.U. after    1 cycles

 The electronic state is 1-A.
 Alpha  occ. eigenvalues --  -10.18481 -10.18165 -10.18084 -10.17813 -10.17722
 Alpha  occ. eigenvalues --  -10.17585 -10.17374 -10.17148 -10.17089 -10.16865
 Alpha  occ. eigenvalues --  -10.16811 -10.16704 -10.16040  -0.82759  -0.80016
 Alpha  occ. eigenvalues --   -0.78913  -0.74870  -0.72408  -0.67533  -0.66821
 Alpha  occ. eigenvalues --   -0.66480  -0.61033  -0.58203  -0.56293  -0.54791
 Alpha  occ. eigenvalues --   -0.51335  -0.47555  -0.46525  -0.45289  -0.43661
 Alpha  occ. eigenvalues --   -0.43374  -0.42618  -0.40595  -0.39938  -0.39467
 Alpha  occ. eigenvalues --   -0.38836  -0.37772  -0.36997  -0.36755  -0.36289
 Alpha  occ. eigenvalues --   -0.34875  -0.34544  -0.33594  -0.32238  -0.31610
 Alpha  occ. eigenvalues --   -0.31322  -0.31104  -0.30950  -0.29568  -0.28478
 Alpha  occ. eigenvalues --   -0.23430
 Alpha virt. eigenvalues --    0.02421   0.08368   0.09267   0.10074   0.10757
 Alpha virt. eigenvalues --    0.12388   0.12811   0.13574   0.13613   0.14660
 Alpha virt. eigenvalues --    0.14991   0.15370   0.16148   0.16510   0.17176

 Mulliken charges:
               1
     1  C   -0.414645
     2  C    0.371210
     3  C   -0.292250
     4  C   -0.187163
     5  C   -0.189783
     6  C   -0.197420
     7  C   -0.184921
     8  C    0.016592
     9  C   -0.397991
    10  C   -0.185811
    11  C    0.036900
    12  C   -0.410456
    13  C   -0.298716
    14  H    0.095326
    15  H    0.105621
    16  H    0.099146
    17  H    0.093650
    18  H    0.098614
    19  H    0.089615
    20  H    0.091439
    21  H    0.090404
    22  H    0.120621
    23  H    0.088215
    24  H    0.086555
    25  H    0.089757
    26  H    0.068550
    27  H    0.111135
    28  H    0.106955
    29  H    0.107560
    30  H    0.084610
    31  H    0.086324
    32  H    0.077878
    33  H    0.111330
    34  H    0.115928
    35  H    0.108076
    36  H    0.104380
    37  H    0.102765
 Sum of Mulliken charges =  -0.00000

 Dipole moment (field-independent basis, Debye):
    X=              0.0837    Y=             -0.3297    Z=              0.2153  Tot=              0.4025
 Quadrupole moment (field-independent basis, Debye-Ang):
   XX=            -85.1851   YY=            -85.3718   ZZ=            -84.0877
   XY=              1.4873   XZ=             -0.5255   YZ=             -0.0611

  Exact polarizability: 153.717   0.397 144.794   3.348  -5.916 116.039
 Approx polarizability: 192.941  -0.866 197.450   6.958 -14.723 199.915

                      1                      2                      3
                      A                      A                      A
 Frequencies --     60.8149               103.7730               110.9313
 Red. masses --      3.0421                 2.8534                 2.5129
 Frc consts  --      0.0066                 0.0181                 0.0182
 IR Inten    --      0.0946                 0.1297                 0.0723

                      4                      5                      6
                      A                      A                      A
 Frequencies --    141.0901               173.6869               204.8100
 Red. masses --      2.4568                 2.9324                 2.1585
 Frc consts  --      0.0288                 0.0521                 0.0533
 IR Inten    --      0.1164                 0.1930                 0.4676

                      7                      8                      9
                      A                      A                      A
 Frequencies --    210.0801               224.7860               238.0191
 Red. masses --      2.0468                 2.7439                 1.4238
 Frc consts  --      0.0532                 0.0817                 0.0475
 IR Inten    --      0.0611                 0.1114                 0.0684

                     10                     11                     12
                      A                      A                      A
 Frequencies --    257.7894               282.6142               292.9506
 Red. masses --      1.2517                 1.5966                 2.5331
 Frc consts  --      0.0490                 0.0751                 0.1281
 IR Inten    --      0.0286                 0.1680                 0.0856

                     13                     14                     15
                      A                      A                      A
 Frequencies --    298.7569               357.8831               379.7965
 Red. masses --      2.1843                 2.8826                 2.7911
 Frc consts  --      0.1149                 0.2175                 0.2372
 IR Inten    --      0.1339                 0.2487                 0.0266

                     16                     17                     18
                      A                      A                      A
 Frequencies --    392.1044               428.2744               441.4845
 Red. masses --      1.9065                 2.1841                 1.8214
 Frc consts  --      0.1727                 0.2360                 0.2092
 IR Inten    --      0.2379                 0.0504                 0.5488

                     19                     20                     21
                      A                      A                      A
 Frequencies --    471.7403               492.2923               528.2169
 Red. masses --      2.0825                 2.5146                 2.2081
 Frc consts  --      0.2730                 0.3591                 0.3630
 IR Inten    --      0.1699                 1.1375                 0.2242

                     22                     23                     24
                      A                      A                      A
 Frequencies --    555.2209               713.9574               743.8892
 Red. masses --      2.5332                 1.1873                 1.2364
 Frc consts  --      0.4601                 0.3566                 0.4031
 IR Inten    --      2.2413                 1.1433                 4.3917

                     25                     26                     27
                      A                      A                      A
 Frequencies --    780.2694               821.6402               839.0719
 Red. masses --      2.2506                 2.1512                 1.4922
 Frc consts  --      0.8073                 0.8557                 0.6190
 IR Inten    --      0.6305                 0.8103                 0.2908

                     28                     29                     30
                      A                      A                      A
 Frequencies --    848.9160               875.6050               895.3548
 Red. masses --      1.8446                 1.9978                 1.8418
 Frc consts  --      0.7832                 0.9024                 0.8699
 IR Inten    --      0.3859                 1.8882                 0.5340

                     31                     32                     33
                      A                      A                      A
 Frequencies --    905.9466               911.9235               926.9005
 Red. masses --      1.7418                 1.9400                 1.6318
 Frc consts  --      0.8423                 0.9505                 0.8260
 IR Inten    --     10.8074                 1.7362                18.2318

                     34                     35                     36
                      A                      A                      A
 Frequencies --    933.4178               964.1486               976.6746
 Red. masses --      1.6398                 1.9551                 1.8235
 Frc consts  --      0.8418                 1.0708                 1.0249
 IR Inten    --      1.4089                 0.8970                 0.6623

                     37                     38                     39
                      A                      A                      A
 Frequencies --    988.2655              1018.4078              1035.0236
 Red. masses --      1.6724                 2.3520                 1.6843
 Frc consts  --      0.9624                 1.4373                 1.0631
 IR Inten    --      1.4286                 0.2167                 0.5848

                     40                     41                     42
                      A                      A                      A
 Frequencies --   1047.0560              1061.8771              1070.3499
 Red. masses --      2.1522                 1.8444                 2.4781
 Frc consts  --      1.3902                 1.2254                 1.6727
 IR Inten    --      0.4672                 2.5384                 0.6563

                     43                     44                     45
                      A                      A                      A
 Frequencies --   1088.9231              1115.6839              1126.5092
 Red. masses --      2.4192                 2.0162                 1.4879
 Frc consts  --      1.6901                 1.4787                 1.1125
 IR Inten    --      0.3715                 0.3996                 0.1032

                     46                     47                     48
                      A                      A                      A
 Frequencies --   1141.1423              1154.9907              1176.4118
 Red. masses --      1.7971                 1.6215                 2.1324
 Frc consts  --      1.3788                 1.2745                 1.7388
 IR Inten    --      0.6371                 0.5237                 3.9965

                     49                     50                     51
                      A                      A                      A
 Frequencies --   1214.1406              1225.4391              1238.4528
 Red. masses --      1.3692                 1.3440                 1.5326
 Frc consts  --      1.1892                 1.1892                 1.3849
 IR Inten    --      3.7540                 3.1735                 7.7628

                     52                     53                     54
                      A                      A                      A
 Frequencies --   1252.4734              1284.1332              1296.4699
 Red. masses --      1.2185                 1.3517                 1.2690
 Frc consts  --      1.1262                 1.3133                 1.2567
 IR Inten    --      1.9868                 2.1246                 2.1652

                     55                     56                     57
                      A                      A                      A
 Frequencies --   1304.0463              1314.0628              1326.7255
 Red. masses --      1.1895                 1.1519                 1.1218
 Frc consts  --      1.1918                 1.1719                 1.1634
 IR Inten    --      0.2915                 1.9580                 0.9432

                     58                     59                     60
                      A                      A                      A
 Frequencies --   1342.2303              1348.4749              1359.2318
 Red. masses --      1.3107                 1.3413                 1.2932
 Frc consts  --      1.3913                 1.4370                 1.4077
 IR Inten    --      0.8371                 1.0871                 0.4940

                     61                     62                     63
                      A                      A                      A
 Frequencies --   1369.2783              1377.4483              1380.2502
 Red. masses --      1.3303                 1.4194                 1.3844
 Frc consts  --      1.4695                 1.5867                 1.5539
 IR Inten    --      0.6822                 2.3906                 5.6956

                     64                     65                     66
                      A                      A                      A
 Frequencies --   1387.1626              1392.3816              1398.4847
 Red. masses --      1.5343                 1.4157                 1.3946
 Frc consts  --      1.7394                 1.6171                 1.6070
 IR Inten    --      1.4608                 0.6924                 0.2168

                     67                     68                     69
                      A                      A                      A
 Frequencies --   1410.2897              1415.9869              1455.2408
 Red. masses --      1.2399                 1.2682                 1.1592
 Frc consts  --      1.4530                 1.4982                 1.4464
 IR Inten    --      2.3393                 0.7938                 3.3521

                     70                     71                     72
                      A                      A                      A
 Frequencies --   1476.8077              1483.2899              1485.9888
 Red. masses --      1.0814                 1.0912                 1.0842
 Frc consts  --      1.3896                 1.4145                 1.4106
 IR Inten    --      1.1710                 3.7557                 3.4547

                     73                     74                     75
                      A                      A                      A
 Frequencies --   1490.9440              1493.7401              1498.4045
 Red. masses --      1.0992                 1.0721                 1.0626
 Frc consts  --      1.4396                 1.4094                 1.4056
 IR Inten    --      2.5550                 0.5144                 1.0366

                     76                     77                     78
                      A                      A                      A
 Frequencies --   1498.6859              1499.8263              1503.6702
 Red. masses --      1.0445                 1.0547                 1.0577
 Frc consts  --      1.3822                 1.3978                 1.4090
 IR Inten    --     11.0850                 3.7862                 0.9750

                     79                     80                     81
                      A                      A                      A
 Frequencies --   1506.6979              1519.7677              1709.7689
 Red. masses --      1.0659                 1.0837                 5.0470
 Frc consts  --      1.4257                 1.4747                 8.6928
 IR Inten    --      6.2305                 1.6588                16.2138

                     82                     83                     84
                      A                      A                      A
 Frequencies --   2986.7685              2995.0012              2996.7005
 Red. masses --      1.0772                 1.0671                 1.0729
 Frc consts  --      5.6616                 5.6396                 5.6765
 IR Inten    --      3.1157                12.5379                18.5306

                     85                     86                     87
                      A                      A                      A
 Frequencies --   3008.7291              3010.7556              3014.7456
 Red. masses --      1.0626                 1.0643                 1.0596
 Frc consts  --      5.6676                 5.6843                 5.6741
 IR Inten    --      2.4449                24.6528                29.3442

                     88                     89                     90
                      A                      A                      A
 Frequencies --   3015.7981              3021.8392              3022.9370
 Red. masses --      1.0630                 1.0491                 1.0409
 Frc consts  --      5.6964                 5.6445                 5.6042
 IR Inten    --     24.6650                 8.7459                40.7488

                     91                     92                     93
                      A                      A                      A
 Frequencies --   3026.3011              3027.4141              3037.8184
 Red. masses --      1.0818                 1.0693                 1.0970
 Frc consts  --      5.8372                 5.7741                 5.9646
 IR Inten    --     16.1677                50.3164                16.2976

                     94                     95                     96
                      A                      A                      A
 Frequencies --   3044.7538              3056.1477              3057.1244
 Red. masses --      1.0984                 1.0913                 1.0984
 Frc consts  --      5.9996                 6.0052                 6.0482
 IR Inten    --     24.5171                75.0904                62.2480

                     97                     98                     99
                      A                      A                      A
 Frequencies --   3065.7410              3087.1908              3088.4777
 Red. masses --      1.1002                 1.1000                 1.0997
 Frc consts  --      6.0924                 6.1767                 6.1801
 IR Inten    --     43.4838                20.4760                54.6254

                    100                    101                    102
                      A                      A                      A
 Frequencies --   3097.2046              3100.4571              3102.5047
 Red. masses --      1.1015                 1.0871                 1.0980
 Frc consts  --      6.2257                 6.1571                 6.2271
 IR Inten    --     32.9425                28.2735                34.9877

                    103                    104                    105
                      A                      A                      A
 Frequencies --   3121.4399              3145.0816              3222.9711
 Red. masses --      1.0872                 1.0616                 1.1129
 Frc consts  --      6.2413                 6.1868                 6.8111
 IR Inten    --     18.5856                 7.8107                16.3745

 - Thermochemistry -
 -------------------
 Temperature   298.150 Kelvin.  Pressure   1.00000 Atm.
 Atom     1 has atomic number  6 and mass  12.00000

 Molecular mass:   180.18780 amu.
 Principal axes and moments of inertia in atomic units:
                           1         2         3
     Eigenvalues --  1929.032612850.883574360.20904
           X            0.99992   0.01244   0.00166
           Y           -0.01243   0.99992  -0.00286
           Z           -0.00169   0.00284   0.99999
 This molecule is an asymmetric top.
 Rotational symmetry number  1.
 Warning -- assumption of classical behavior for rotation
           may cause significant error
 Rotational temperatures (Kelvin)      0.04490     0.03038     0.01986
 Rotational constants (GHZ):           0.93557     0.63305     0.41391
 Zero-point vibrational energy     905712.9 (Joules/Mol)
                                  216.47058 (Kcal/Mol)
 Warning -- explicit consideration of  22 degrees of freedom as
           vibrations may cause significant error
 Vibrational temperatures:     87.50   149.31   159.61   203.00   249.90
          (Kelvin)            294.68   302.26   323.42   342.46   370.90
                              406.62   421.49   429.84   514.91   546.44
                              564.15   616.19   635.20   678.73   708.30
                              759.99   798.84  1027.23  1070.29  1122.63
                             1182.16  1207.24  1221.40  1259.80  1288.22
                             1303.46  1312.05  1333.60  1342.98  1387.19
                             1405.22  1421.89  1465.26  1489.17  1506.48
                             1527.80  1539.99  1566.72  1605.22  1620.80
                             1641.85  1661.77  1692.59  1746.88  1763.13
                             1781.86  1802.03  1847.58  1865.33  1876.23
                             1890.64  1908.86  1931.17  1940.15  1955.63
                             1970.09  1981.84  1985.87  1995.82  2003.33
                             2012.11  2029.09  2037.29  2093.77  2124.80
                             2134.12  2138.01  2145.14  2149.16  2155.87
                             2156.27  2157.92  2163.45  2167.80  2186.61
                             2459.98  4297.29  4309.14  4311.58  4328.89
                             4331.81  4337.55  4339.06  4347.75  4349.33
                             4354.17  4355.77  4370.74  4380.72  4397.11
                             4398.52  4410.92  4441.78  4443.63  4456.19
                             4460.87  4463.81  4491.06  4525.07  4637.14

 Zero-point correction=                           0.344968 (Hartree/Particle)
 Thermal correction to Energy=                    0.359110
 Thermal correction to Enthalpy=                  0.360054
 Thermal correction to Gibbs Free Energy=         0.305700
 Sum of electronic and zero-point Energies=           -509.515098
 Sum of electronic and thermal Energies=              -509.500955
 Sum of electronic and thermal Enthalpies=            -509.500011
 Sum of electronic and thermal Free Energies=         -509.554365

                     E (Thermal)             CV                S
                      KCal/Mol        Cal/Mol-Kelvin    Cal/Mol-Kelvin
 Total                  225.345             56.919            114.398
 Electronic               0.000              0.000              0.000
 Translational            0.889              2.981             41.473
 Rotational               0.889              2.981             31.550
 Vibrational            223.568             50.957             41.375
 Vibration     1          0.597              1.973              4.431
 Vibration     2          0.605              1.946              3.382
 Vibration     3          0.607              1.940              3.253
 Vibration     4          0.615              1.912              2.789
 Vibration     5          0.627              1.875              2.395
 Vibration     6          0.640              1.833              2.089
 Vibration     7          0.642              1.825              2.043
 Vibration     8          0.649              1.803              1.920
 Vibration     9          0.656              1.782              1.818
 Vibration    10          0.667              1.750              1.677
 Vibration    11          0.682              1.706              1.518
 Vibration    12          0.688              1.687              1.457
 Vibration    13          0.692              1.676              1.424
 Vibration    14          0.733              1.559              1.131
 Vibration    15          0.750              1.513              1.040
 Vibration    16          0.760              1.487              0.992
 Vibration    17          0.790              1.409              0.864
 Vibration    18          0.801              1.380              0.822
 Vibration    19          0.829              1.313              0.733
 Vibration    20          0.848              1.267              0.678
 Vibration    21          0.883              1.188              0.591
 Vibration    22          0.911              1.128              0.533

 Optimization completed.
    -- Stationary point found.
 Normal termination of Gaussian 16 at Wed May 24 23:16:31 2023.
