 Gaussian 16, Revision A.03,
 Gaussian 16:  ES64L-G16RevA.03 25-Dec-2016

 -----------------------------
 # opt freq b3lyp/6-31g(2df,p)
 -----------------------------

 -------------------
 Title Card Required
 -------------------
 Symbolic Z-matrix:
 Charge =  0 Multiplicity = 1

 SCF Done:  E(RB3LYP) =  -522.463675418     A.U. after   13 cycles
 SCF Done:  E(RB3LYP) =  -522.471593272     A.U. after   11 cycles
 SCF Done:  E(RB3LYP) =  -522.475636900     A.U. after   11 cycles
 SCF Done:  E(RB3LYP) =  -522.479383595     A.U. after   12 cycles
 SCF Done:  E(RB3LYP) =  -522.481180781     A.U. after   11 cycles
 SCF Done:  E(RB3LYP) =  -522.483151249     A.U. after   12 cycles
 SCF Done:  E(RB3LYP) =  -522.483991158     A.U. after   11 cycles
 SCF Done:  E(RB3LYP) =  -522.484790134     A.U. after   11 cycles
 SCF Done:  E(RB3LYP) =  -522.485350613     A.U. after   10 cycles
 SCF Done:  E(RB3LYP) =  -522.485276926     A.U. after   10 cycles
 SCF Done:  E(RB3LYP) =  -522.486112949     A.U. after   10 cycles
 SCF Done:  E(RB3LYP) =  -522.486013512     A.U. after   10 cycles
 SCF Done:  E(RB3LYP) =  -522.486181222     A.U. after   10 cycles
 SCF Done:  E(RB3LYP) =  -522.486191455     A.U. after    9 cycles
 SCF Done:  E(RB3LYP) =  -522.486184605     A.U. after    9 cycles
 SCF Done:  E(RB3LYP) =  -522.486201267     A.U. after    9 cycles
 SCF Done:  E(RB3LYP) =  -522.486202127     A.U. after    7 cycles
 SCF Done:  E(RB3LYP) =  -522.486202251     A.U. after    7 cycles
 SCF Done:  E(RB3LYP) =  -522.486202457     A.U. after    7 cycles
 Optimization completed.
    -- Stationary point found.
 Normal termination of Gaussian 16 at Mon May 22 18:50:54 2023.

 ----------------------------------------------------------------------
 #N Geom=AllCheck Guess=TCheck SCRF=Check GenChk RB3LYP/6-31G(2df,p) Fr
 eq
 ----------------------------------------------------------------------

 Structure from the checkpoint file:  "CdC1NCCCCCCCC1O.chk"
 -------------------
 Title Card Required
 -------------------
 Charge =  0 Multiplicity = 1

                         Standard orientation:
 ---------------------------------------------------------------------
 Center     Atomic      Atomic             Coordinates (Angstroms)
 Number     Number       Type             X           Y           Z
 ---------------------------------------------------------------------
      1          6           0       -0.018728   -1.300646   -1.847464
      2          6           0       -0.108333   -1.285239   -0.505843
      3          7           0        0.942409   -1.421066    0.377094
      4          6           0        2.314207   -1.041869    0.087955
      5          6           0        2.690658    0.418030    0.425853
      6          6           0        1.816845    1.489796   -0.255392
      7          6           0        0.462336    1.720696    0.455717
      8          6           0       -0.742961    1.980884   -0.474647
      9          6           0       -2.071974    1.400416    0.052574
     10          6           0       -2.399950   -0.062967   -0.328543
     11          6           0       -1.488617   -1.197314    0.186074
     12          8           0       -1.368188   -1.161919    1.611583
     13          1           0        0.920386   -1.425574   -2.370166
     14          1           0       -0.905694   -1.232027   -2.461720
     15          1           0        0.651629   -1.364601    1.342019
     16          1           0        2.506101   -1.227766   -0.972265
     17          1           0        2.983448   -1.713927    0.640111
     18          1           0        3.740279    0.550871    0.133520
     19          1           0        2.661610    0.560259    1.515420
     20          1           0        1.639678    1.188842   -1.293694
     21          1           0        2.373851    2.432427   -0.302805
     22          1           0        0.558796    2.551150    1.166185
     23          1           0        0.248121    0.846491    1.072060
     24          1           0       -0.543277    1.552658   -1.461735
     25          1           0       -0.862383    3.060240   -0.624101
     26          1           0       -2.905584    1.998686   -0.333531
     27          1           0       -2.122892    1.538318    1.144345
     28          1           0       -2.451298   -0.135284   -1.418476
     29          1           0       -3.409459   -0.280763    0.042133
     30          1           0       -2.004792   -2.141440   -0.023552
     31          1           0       -1.450770   -0.246465    1.896237
 ---------------------------------------------------------------------

 SCF Done:  E(RB3LYP) =  -522.486202457     A.U. after    1 cycles

 The electronic state is 1-A.
 Alpha  occ. eigenvalues --  -19.14664 -14.32032 -10.23714 -10.20801 -10.20615
 Alpha  occ. eigenvalues --  -10.18762 -10.18603 -10.17810 -10.17435 -10.17385
 Alpha  occ. eigenvalues --  -10.17348 -10.13669  -1.02828  -0.91402  -0.80418
 Alpha  occ. eigenvalues --   -0.78976  -0.73840  -0.73424  -0.68028  -0.64464
 Alpha  occ. eigenvalues --   -0.62571  -0.57437  -0.56649  -0.54032  -0.50931
 Alpha  occ. eigenvalues --   -0.48365  -0.47698  -0.46479  -0.44586  -0.43378
 Alpha  occ. eigenvalues --   -0.42516  -0.41482  -0.39042  -0.38511  -0.38162
 Alpha  occ. eigenvalues --   -0.37578  -0.36453  -0.35457  -0.34898  -0.33385
 Alpha  occ. eigenvalues --   -0.32781  -0.32115  -0.31087  -0.30533  -0.28452
 Alpha  occ. eigenvalues --   -0.27468  -0.17877
 Alpha virt. eigenvalues --    0.04414   0.06082   0.09106   0.10137   0.10693
 Alpha virt. eigenvalues --    0.12403   0.13578   0.13973   0.14555   0.15105
 Alpha virt. eigenvalues --    0.15638   0.16310   0.16647   0.17549   0.18109

 Mulliken charges:
               1
     1  C   -0.469091
     2  C    0.340434
     3  N   -0.315689
     4  C   -0.163847
     5  C   -0.198319
     6  C   -0.183497
     7  C   -0.168299
     8  C   -0.179262
     9  C   -0.224299
    10  C   -0.218425
    11  C    0.050412
    12  O   -0.446460
    13  H    0.088445
    14  H    0.089654
    15  H    0.240126
    16  H    0.117999
    17  H    0.101037
    18  H    0.091643
    19  H    0.088787
    20  H    0.107289
    21  H    0.089748
    22  H    0.085527
    23  H    0.074439
    24  H    0.113255
    25  H    0.088613
    26  H    0.101626
    27  H    0.083955
    28  H    0.114286
    29  H    0.100929
    30  H    0.109982
    31  H    0.289000
 Sum of Mulliken charges =  -0.00000

 Dipole moment (field-independent basis, Debye):
    X=             -0.0422    Y=              1.6994    Z=              0.5888  Tot=              1.7990
 Quadrupole moment (field-independent basis, Debye-Ang):
   XX=            -71.0421   YY=            -79.4752   ZZ=            -76.1316
   XY=             -1.7155   XZ=              1.2803   YZ=              1.3807

  Exact polarizability: 128.762  -1.619 107.278   3.867   3.202 109.747
 Approx polarizability: 167.368  -1.622 150.520   5.585   0.620 190.295

                      1                      2                      3
                      A                      A                      A
 Frequencies --     71.1122                96.1773               113.5379
 Red. masses --      2.6392                 4.0077                 3.2201
 Frc consts  --      0.0079                 0.0218                 0.0245
 IR Inten    --      0.3074                 0.7920                 2.0295

                      4                      5                      6
                      A                      A                      A
 Frequencies --    182.5188               209.4597               232.4569
 Red. masses --      3.0132                 2.5979                 3.4017
 Frc consts  --      0.0591                 0.0672                 0.1083
 IR Inten    --      1.6115                 0.3309                 6.5923

                      7                      8                      9
                      A                      A                      A
 Frequencies --    255.1290               273.0568               287.0101
 Red. masses --      2.3784                 1.8632                 1.3784
 Frc consts  --      0.0912                 0.0819                 0.0669
 IR Inten    --      3.8856                36.9868                33.5302

                     10                     11                     12
                      A                      A                      A
 Frequencies --    295.8252               341.6920               373.2233
 Red. masses --      2.5079                 2.4968                 2.4033
 Frc consts  --      0.1293                 0.1718                 0.1972
 IR Inten    --     17.2915                 4.5971                 1.5533

                     13                     14                     15
                      A                      A                      A
 Frequencies --    380.8397               428.2955               463.8114
 Red. masses --      2.3571                 2.2801                 2.9845
 Frc consts  --      0.2014                 0.2464                 0.3783
 IR Inten    --      5.8197                 1.4097                 1.8847

                     16                     17                     18
                      A                      A                      A
 Frequencies --    486.2047               512.5418               547.1416
 Red. masses --      2.2282                 2.2245                 2.5847
 Frc consts  --      0.3103                 0.3443                 0.4559
 IR Inten    --      6.3910                 2.1130                 3.1903

                     19                     20                     21
                      A                      A                      A
 Frequencies --    620.6347               680.3857               705.8822
 Red. masses --      1.2524                 2.4279                 1.2952
 Frc consts  --      0.2842                 0.6622                 0.3802
 IR Inten    --     58.2042                 2.5596                 3.1672

                     22                     23                     24
                      A                      A                      A
 Frequencies --    711.9513               753.0333               764.0576
 Red. masses --      1.2305                 1.5287                 2.2023
 Frc consts  --      0.3675                 0.5107                 0.7575
 IR Inten    --     48.9095                44.6103                17.9217

                     25                     26                     27
                      A                      A                      A
 Frequencies --    796.9957               834.0695               847.1059
 Red. masses --      1.9542                 1.8353                 1.5851
 Frc consts  --      0.7314                 0.7522                 0.6702
 IR Inten    --      4.2673                 0.6332                 0.6439

                     28                     29                     30
                      A                      A                      A
 Frequencies --    887.8104               901.2184               925.1929
 Red. masses --      2.4557                 2.0003                 2.4800
 Frc consts  --      1.1404                 0.9572                 1.2507
 IR Inten    --      3.2402                 3.5751                 1.1244

                     31                     32                     33
                      A                      A                      A
 Frequencies --    958.9693               970.3189              1008.7771
 Red. masses --      2.3885                 1.8332                 2.5070
 Frc consts  --      1.2941                 1.0169                 1.5031
 IR Inten    --      3.9312                12.5959                13.6814

                     34                     35                     36
                      A                      A                      A
 Frequencies --   1039.5895              1063.0548              1071.5821
 Red. masses --      1.9939                 1.7553                 2.6633
 Frc consts  --      1.2696                 1.1687                 1.8018
 IR Inten    --      4.7544                 6.6378                17.1263

                     37                     38                     39
                      A                      A                      A
 Frequencies --   1082.6747              1104.2610              1134.9064
 Red. masses --      2.6348                 2.7717                 2.1182
 Frc consts  --      1.8197                 1.9913                 1.6074
 IR Inten    --     10.3612                 7.1551                28.2099

                     40                     41                     42
                      A                      A                      A
 Frequencies --   1147.6849              1181.6749              1203.6074
 Red. masses --      2.6066                 1.3281                 1.2098
 Frc consts  --      2.0229                 1.0926                 1.0326
 IR Inten    --     31.6377                15.3506                 4.0944

                     43                     44                     45
                      A                      A                      A
 Frequencies --   1225.5522              1250.7503              1268.8900
 Red. masses --      1.3297                 1.3833                 1.2016
 Frc consts  --      1.1767                 1.2750                 1.1398
 IR Inten    --      6.0104                20.0963                 8.3352

                     46                     47                     48
                      A                      A                      A
 Frequencies --   1286.8770              1295.0294              1319.5300
 Red. masses --      1.6815                 1.2514                 1.2325
 Frc consts  --      1.6406                 1.2366                 1.2644
 IR Inten    --     20.1079                 3.6044                 3.9351

                     49                     50                     51
                      A                      A                      A
 Frequencies --   1325.0843              1333.7754              1355.8168
 Red. masses --      1.2155                 1.1030                 1.3906
 Frc consts  --      1.2574                 1.1561                 1.5061
 IR Inten    --      5.4917                 1.6555                 7.1082

                     52                     53                     54
                      A                      A                      A
 Frequencies --   1374.6955              1378.3547              1384.8892
 Red. masses --      1.3356                 1.3500                 1.3367
 Frc consts  --      1.4870                 1.5112                 1.5105
 IR Inten    --      5.0035                 3.0047                 1.0465

                     55                     56                     57
                      A                      A                      A
 Frequencies --   1391.1898              1393.8056              1399.4576
 Red. masses --      1.3323                 1.3596                 1.3665
 Frc consts  --      1.5193                 1.5562                 1.5769
 IR Inten    --      2.4677                16.9648                 4.0287

                     58                     59                     60
                      A                      A                      A
 Frequencies --   1409.7581              1447.6644              1475.4209
 Red. masses --      1.2000                 1.1723                 1.0936
 Frc consts  --      1.4051                 1.4475                 1.4026
 IR Inten    --     38.2348                 2.3501                 0.8711

                     61                     62                     63
                      A                      A                      A
 Frequencies --   1481.2475              1487.0211              1493.9800
 Red. masses --      1.0897                 1.0802                 1.0805
 Frc consts  --      1.4087                 1.4072                 1.4210
 IR Inten    --     11.4084                 1.6691                 6.5216

                     64                     65                     66
                      A                      A                      A
 Frequencies --   1495.8329              1496.7444              1507.8553
 Red. masses --      1.0901                 1.0718                 1.0912
 Frc consts  --      1.4370                 1.4147                 1.4617
 IR Inten    --      2.5926                 6.4665                15.4069

                     67                     68                     69
                      A                      A                      A
 Frequencies --   1539.2604              1683.6393              2982.2816
 Red. masses --      1.6241                 5.1391                 1.0720
 Frc consts  --      2.2672                 8.5829                 5.6175
 IR Inten    --    113.2620               103.9602                31.1232

                     70                     71                     72
                      A                      A                      A
 Frequencies --   3004.9253              3022.4229              3024.6428
 Red. masses --      1.0627                 1.0760                 1.0735
 Frc consts  --      5.6538                 5.7911                 5.7862
 IR Inten    --     19.9508                16.0775                20.6870

                     73                     74                     75
                      A                      A                      A
 Frequencies --   3025.5723              3028.4376              3033.8319
 Red. masses --      1.0702                 1.0664                 1.0703
 Frc consts  --      5.7719                 5.7622                 5.8039
 IR Inten    --     54.6873                 8.2383                21.5561

                     76                     77                     78
                      A                      A                      A
 Frequencies --   3039.4995              3048.5827              3052.8539
 Red. masses --      1.0787                 1.0919                 1.0836
 Frc consts  --      5.8713                 5.9788                 5.9501
 IR Inten    --     55.9512                65.7905                49.7728

                     79                     80                     81
                      A                      A                      A
 Frequencies --   3071.4974              3082.3517              3093.1954
 Red. masses --      1.1009                 1.0951                 1.0942
 Frc consts  --      6.1192                 6.1300                 6.1684
 IR Inten    --     20.1083                33.0553                21.3306

                     82                     83                     84
                      A                      A                      A
 Frequencies --   3094.9078              3112.6347              3177.1078
 Red. masses --      1.0941                 1.0883                 1.0597
 Frc consts  --      6.1744                 6.2124                 6.3021
 IR Inten    --     28.5432                32.4093                 2.9031

                     85                     86                     87
                      A                      A                      A
 Frequencies --   3253.5494              3597.7245              3820.5317
 Red. masses --      1.1135                 1.0745                 1.0659
 Frc consts  --      6.9448                 8.1943                 9.1671
 IR Inten    --     13.2635                58.4601                25.2733

 - Thermochemistry -
 -------------------
 Temperature   298.150 Kelvin.  Pressure   1.00000 Atm.
 Atom     1 has atomic number  6 and mass  12.00000

 Molecular mass:   169.14666 amu.
 Principal axes and moments of inertia in atomic units:
                           1         2         3
     Eigenvalues --  1542.165012156.363812779.83792
           X            0.99980  -0.01720   0.00977
           Y            0.01698   0.99963   0.02137
           Z           -0.01013  -0.02120   0.99972
 This molecule is an asymmetric top.
 Rotational symmetry number  1.
 Warning -- assumption of classical behavior for rotation
           may cause significant error
 Rotational temperatures (Kelvin)      0.05616     0.04017     0.03116
 Rotational constants (GHZ):           1.17026     0.83694     0.64923
 Zero-point vibrational energy     741769.3 (Joules/Mol)
                                  177.28712 (Kcal/Mol)
 Warning -- explicit consideration of  19 degrees of freedom as
           vibrations may cause significant error
 Vibrational temperatures:    102.31   138.38   163.36   262.60   301.37
          (Kelvin)            334.45   367.07   392.87   412.94   425.63
                              491.62   536.99   547.94   616.22   667.32
                              699.54   737.43   787.21   892.95   978.92
                             1015.61  1024.34  1083.45  1099.31  1146.70
                             1200.04  1218.80  1277.36  1296.65  1331.15
                             1379.74  1396.07  1451.41  1495.74  1529.50
                             1541.77  1557.73  1588.79  1632.88  1651.26
                             1700.17  1731.72  1763.30  1799.55  1825.65
                             1851.53  1863.26  1898.51  1906.50  1919.01
                             1950.72  1977.88  1983.15  1992.55  2001.61
                             2005.38  2013.51  2028.33  2082.87  2122.80
                             2131.18  2139.49  2149.50  2152.17  2153.48
                             2169.47  2214.65  2422.38  4290.84  4323.42
                             4348.59  4351.79  4353.12  4357.25  4365.01
                             4373.16  4386.23  4392.38  4419.20  4434.82
                             4450.42  4452.88  4478.39  4571.15  4681.13
                             5176.32  5496.89

 Zero-point correction=                           0.282525 (Hartree/Particle)
 Thermal correction to Energy=                    0.294841
 Thermal correction to Enthalpy=                  0.295785
 Thermal correction to Gibbs Free Energy=         0.245370
 Sum of electronic and zero-point Energies=           -522.203677
 Sum of electronic and thermal Energies=              -522.191361
 Sum of electronic and thermal Enthalpies=            -522.190417
 Sum of electronic and thermal Free Energies=         -522.240832

                     E (Thermal)             CV                S
                      KCal/Mol        Cal/Mol-Kelvin    Cal/Mol-Kelvin
 Total                  185.016             49.916            106.107
 Electronic               0.000              0.000              0.000
 Translational            0.889              2.981             41.285
 Rotational               0.889              2.981             30.603
 Vibrational            183.238             43.954             34.219
 Vibration     1          0.598              1.968              4.122
 Vibration     2          0.603              1.952              3.530
 Vibration     3          0.607              1.938              3.208
 Vibration     4          0.630              1.864              2.302
 Vibration     5          0.642              1.826              2.048
 Vibration     6          0.653              1.791              1.860
 Vibration     7          0.665              1.754              1.695
 Vibration     8          0.676              1.723              1.577
 Vibration     9          0.684              1.698              1.492
 Vibration    10          0.690              1.682              1.440
 Vibration    11          0.721              1.592              1.204
 Vibration    12          0.745              1.527              1.067
 Vibration    13          0.751              1.511              1.036
 Vibration    14          0.790              1.409              0.864
 Vibration    15          0.821              1.330              0.755
 Vibration    16          0.842              1.281              0.694
 Vibration    17          0.868              1.222              0.627
 Vibration    18          0.902              1.146              0.550
 Vibration    19          0.981              0.988              0.415

 Optimization completed.
    -- Stationary point found.
 Normal termination of Gaussian 16 at Mon May 22 20:32:50 2023.
