 Gaussian 16, Revision A.03,
 Gaussian 16:  ES64L-G16RevA.03 25-Dec-2016

 -----------------------------
 # opt freq b3lyp/6-31g(2df,p)
 -----------------------------

 -------------------
 Title Card Required
 -------------------
 Symbolic Z-matrix:
 Charge =  0 Multiplicity = 1

 SCF Done:  E(RB3LYP) =  -588.432929450     A.U. after   12 cycles
 SCF Done:  E(RB3LYP) =  -588.444749006     A.U. after   10 cycles
 SCF Done:  E(RB3LYP) =  -588.446328767     A.U. after   10 cycles
 SCF Done:  E(RB3LYP) =  -588.448375053     A.U. after   10 cycles
 SCF Done:  E(RB3LYP) =  -588.443343219     A.U. after   10 cycles
 SCF Done:  E(RB3LYP) =  -588.451955912     A.U. after   10 cycles
 SCF Done:  E(RB3LYP) =  -588.456465959     A.U. after   11 cycles
 SCF Done:  E(RB3LYP) =  -588.459738353     A.U. after   10 cycles
 SCF Done:  E(RB3LYP) =  -588.463800793     A.U. after   11 cycles
 SCF Done:  E(RB3LYP) =  -588.467442551     A.U. after   10 cycles
 SCF Done:  E(RB3LYP) =  -588.484087376     A.U. after    9 cycles
 SCF Done:  E(RB3LYP) =  -588.484182086     A.U. after    9 cycles
 SCF Done:  E(RB3LYP) =  -588.484217044     A.U. after    9 cycles
 SCF Done:  E(RB3LYP) =  -588.484235331     A.U. after    8 cycles
 SCF Done:  E(RB3LYP) =  -588.484240794     A.U. after    8 cycles
 SCF Done:  E(RB3LYP) =  -588.484244921     A.U. after    8 cycles
 SCF Done:  E(RB3LYP) =  -588.484246860     A.U. after    8 cycles
 SCF Done:  E(RB3LYP) =  -588.484247210     A.U. after    7 cycles
 SCF Done:  E(RB3LYP) =  -588.484247324     A.U. after    6 cycles
 Optimization completed.
    -- Stationary point found.
 Normal termination of Gaussian 16 at Sun May 28 00:01:05 2023.

 ----------------------------------------------------------------------
 #N Geom=AllCheck Guess=TCheck SCRF=Check GenChk RB3LYP/6-31G(2df,p) Fr
 eq
 ----------------------------------------------------------------------

 Structure from the checkpoint file:  "CdC1CCCCCCqCrCCCCC1C.chk"
 -------------------
 Title Card Required
 -------------------
 Charge =  0 Multiplicity = 1

                         Standard orientation:
 ---------------------------------------------------------------------
 Center     Atomic      Atomic             Coordinates (Angstroms)
 Number     Number       Type             X           Y           Z
 ---------------------------------------------------------------------
      1          6           0        3.360022   -0.359462    1.391120
      2          6           0        2.573275    0.056029    0.397715
      3          6           0        2.503276    1.524316    0.022964
      4          6           0        1.145013    2.212492    0.372164
      5          6           0        0.245230    2.621400   -0.822802
      6          6           0       -1.254373    2.371947   -0.558363
      7          6           0       -1.553899    0.869190   -0.666475
      8          6           0       -2.851756    0.305937   -0.065831
      9          6           0       -3.004689    0.627173    1.428982
     10          6           0       -2.972910   -1.216050   -0.337388
     11          6           0       -1.943678   -2.186143    0.297602
     12          6           0       -0.533087   -2.241768   -0.354572
     13          6           0        0.602149   -1.576963    0.462351
     14          6           0        1.703719   -0.914762   -0.403951
     15          6           0        2.554164   -1.965082   -1.140931
     16          1           0        3.976589    0.332476    1.956474
     17          1           0        3.423474   -1.403476    1.682267
     18          1           0        2.693021    1.633955   -1.053766
     19          1           0        3.318825    2.048811    0.530350
     20          1           0        1.352808    3.105339    0.971125
     21          1           0        0.584423    1.551445    1.040403
     22          1           0        0.536165    2.060281   -1.720454
     23          1           0        0.416590    3.676461   -1.064482
     24          1           0       -1.867560    2.936324   -1.271442
     25          1           0       -1.508376    2.755215    0.437274
     26          1           0       -0.726658    0.346959   -0.190330
     27          1           0       -1.509598    0.591303   -1.728451
     28          1           0       -3.702307    0.771244   -0.585883
     29          1           0       -2.143944    0.278556    2.010681
     30          1           0       -3.898255    0.146014    1.841354
     31          1           0       -3.102771    1.702322    1.603815
     32          1           0       -2.968874   -1.377754   -1.424204
     33          1           0       -3.968376   -1.527243    0.005444
     34          1           0       -2.390909   -3.184766    0.236681
     35          1           0       -1.846773   -1.981786    1.370913
     36          1           0       -0.584111   -1.780062   -1.347805
     37          1           0       -0.268286   -3.288553   -0.537873
     38          1           0        1.064352   -2.315101    1.129501
     39          1           0        0.179913   -0.819819    1.130212
     40          1           0        1.188468   -0.326530   -1.172941
     41          1           0        3.088169   -2.605362   -0.431252
     42          1           0        3.300706   -1.488383   -1.783648
     43          1           0        1.928557   -2.607404   -1.769466
 ---------------------------------------------------------------------

 SCF Done:  E(RB3LYP) =  -588.484247324     A.U. after    1 cycles

 The electronic state is 1-A.
 Alpha  occ. eigenvalues --  -10.18354 -10.18093 -10.18000 -10.17776 -10.17636
 Alpha  occ. eigenvalues --  -10.17504 -10.17458 -10.17367 -10.17339 -10.17302
 Alpha  occ. eigenvalues --  -10.17299 -10.16906 -10.16721 -10.16687 -10.16032
 Alpha  occ. eigenvalues --   -0.82577  -0.80897  -0.79228  -0.75643  -0.74701
 Alpha  occ. eigenvalues --   -0.70634  -0.69334  -0.66793  -0.64599  -0.62378
 Alpha  occ. eigenvalues --   -0.59258  -0.58028  -0.56122  -0.53843  -0.50859
 Alpha  occ. eigenvalues --   -0.47774  -0.46190  -0.45709  -0.44870  -0.44261
 Alpha  occ. eigenvalues --   -0.42672  -0.42083  -0.41005  -0.40567  -0.40025
 Alpha  occ. eigenvalues --   -0.38963  -0.38384  -0.37699  -0.37177  -0.36421
 Alpha  occ. eigenvalues --   -0.35602  -0.35152  -0.34425  -0.33418  -0.33017
 Alpha  occ. eigenvalues --   -0.32698  -0.31534  -0.31362  -0.30964  -0.30651
 Alpha  occ. eigenvalues --   -0.30162  -0.29463  -0.28298  -0.23599
 Alpha virt. eigenvalues --    0.02685   0.07464   0.08237   0.09229   0.09554
 Alpha virt. eigenvalues --    0.10815   0.11863   0.12336   0.12782   0.13171
 Alpha virt. eigenvalues --    0.14201   0.14512   0.14851   0.15361   0.16330

 Mulliken charges:
               1
     1  C   -0.416187
     2  C    0.363492
     3  C   -0.314453
     4  C   -0.179536
     5  C   -0.188591
     6  C   -0.222438
     7  C   -0.144903
     8  C    0.017150
     9  C   -0.394247
    10  C   -0.203767
    11  C   -0.204277
    12  C   -0.188067
    13  C   -0.184633
    14  C   -0.057388
    15  C   -0.393852
    16  H    0.097546
    17  H    0.098013
    18  H    0.099093
    19  H    0.096550
    20  H    0.096453
    21  H    0.106016
    22  H    0.093791
    23  H    0.088825
    24  H    0.086647
    25  H    0.096028
    26  H    0.109034
    27  H    0.082781
    28  H    0.064404
    29  H    0.115962
    30  H    0.107667
    31  H    0.113649
    32  H    0.086941
    33  H    0.086406
    34  H    0.094154
    35  H    0.097237
    36  H    0.096870
    37  H    0.093704
    38  H    0.084590
    39  H    0.105272
    40  H    0.074865
    41  H    0.114977
    42  H    0.112302
    43  H    0.111919
 Sum of Mulliken charges =  -0.00000

 Dipole moment (field-independent basis, Debye):
    X=             -0.4398    Y=              0.1387    Z=             -0.2793  Tot=              0.5392
 Quadrupole moment (field-independent basis, Debye-Ang):
   XX=           -100.0821   YY=            -96.1950   ZZ=            -98.2252
   XY=              0.9208   XZ=              0.1814   YZ=             -0.1353

  Exact polarizability: 176.219  -0.683 164.939   8.500  -1.728 138.058
 Approx polarizability: 226.822  -3.845 226.263  16.230  -6.416 227.330

                      1                      2                      3
                      A                      A                      A
 Frequencies --     29.7469                48.6690                64.5683
 Red. masses --      2.5484                 3.1184                 2.7974
 Frc consts  --      0.0013                 0.0044                 0.0069
 IR Inten    --      0.0264                 0.0798                 0.0188

                      4                      5                      6
                      A                      A                      A
 Frequencies --     87.3908               122.3950               147.9460
 Red. masses --      3.0078                 2.6257                 2.3659
 Frc consts  --      0.0135                 0.0232                 0.0305
 IR Inten    --      0.0283                 0.0544                 0.0180

                      7                      8                      9
                      A                      A                      A
 Frequencies --    170.6679               196.7643               209.0469
 Red. masses --      2.5157                 2.4934                 1.7147
 Frc consts  --      0.0432                 0.0569                 0.0441
 IR Inten    --      0.2079                 0.0053                 0.0697

                     10                     11                     12
                      A                      A                      A
 Frequencies --    226.6132               238.0126               247.2621
 Red. masses --      2.3234                 1.3813                 1.1723
 Frc consts  --      0.0703                 0.0461                 0.0422
 IR Inten    --      0.0713                 0.0370                 0.0694

                     13                     14                     15
                      A                      A                      A
 Frequencies --    257.1794               282.6086               296.7539
 Red. masses --      2.1852                 2.3223                 2.4246
 Frc consts  --      0.0852                 0.1093                 0.1258
 IR Inten    --      0.0593                 0.2650                 0.0719

                     16                     17                     18
                      A                      A                      A
 Frequencies --    316.2230               331.9970               343.9849
 Red. masses --      2.7010                 2.2596                 2.2402
 Frc consts  --      0.1591                 0.1467                 0.1562
 IR Inten    --      0.0338                 0.2912                 0.1416

                     19                     20                     21
                      A                      A                      A
 Frequencies --    351.8727               384.9832               408.9325
 Red. masses --      2.4075                 2.4426                 1.7723
 Frc consts  --      0.1756                 0.2133                 0.1746
 IR Inten    --      0.0845                 0.0347                 0.0683

                     22                     23                     24
                      A                      A                      A
 Frequencies --    458.5089               485.4868               513.2098
 Red. masses --      2.1913                 2.3529                 2.1098
 Frc consts  --      0.2714                 0.3267                 0.3274
 IR Inten    --      0.4428                 0.1388                 1.1227

                     25                     26                     27
                      A                      A                      A
 Frequencies --    547.0841               660.6723               716.5667
 Red. masses --      2.2019                 3.3541                 1.8078
 Frc consts  --      0.3883                 0.8626                 0.5469
 IR Inten    --      0.1200                 5.9287                 2.9796

                     28                     29                     30
                      A                      A                      A
 Frequencies --    730.2181               737.3341               757.5402
 Red. masses --      1.6502                 1.1403                 1.3065
 Frc consts  --      0.5184                 0.3653                 0.4417
 IR Inten    --      0.4499                 1.1930                 0.7824

                     31                     32                     33
                      A                      A                      A
 Frequencies --    784.4276               805.6429               847.1690
 Red. masses --      1.8073                 1.9133                 1.9664
 Frc consts  --      0.6552                 0.7317                 0.8315
 IR Inten    --      2.2140                 1.6162                 0.1911

                     34                     35                     36
                      A                      A                      A
 Frequencies --    857.1946               876.0612               884.2073
 Red. masses --      1.7984                 2.1913                 2.0697
 Frc consts  --      0.7786                 0.9909                 0.9534
 IR Inten    --      2.2227                 0.2522                 0.7289

                     37                     38                     39
                      A                      A                      A
 Frequencies --    926.8826               929.6180               940.3890
 Red. masses --      1.3773                 1.6923                 1.7090
 Frc consts  --      0.6971                 0.8617                 0.8904
 IR Inten    --     28.6481                 3.0737                 1.2027

                     40                     41                     42
                      A                      A                      A
 Frequencies --    946.9879               958.1382               977.7631
 Red. masses --      1.5828                 1.9382                 1.8015
 Frc consts  --      0.8363                 1.0483                 1.0148
 IR Inten    --      1.7160                 0.5521                 0.6329

                     43                     44                     45
                      A                      A                      A
 Frequencies --    995.2158              1003.7362              1009.5813
 Red. masses --      1.6569                 2.7533                 2.1357
 Frc consts  --      0.9669                 1.6344                 1.2825
 IR Inten    --      0.3037                 1.0455                 0.1436

                     46                     47                     48
                      A                      A                      A
 Frequencies --   1036.6391              1046.3320              1063.4152
 Red. masses --      1.9771                 2.1811                 2.4065
 Frc consts  --      1.2518                 1.4069                 1.6034
 IR Inten    --      0.5075                 0.0725                 1.5704

                     49                     50                     51
                      A                      A                      A
 Frequencies --   1065.6943              1075.1039              1106.5118
 Red. masses --      2.0871                 2.5066                 2.1373
 Frc consts  --      1.3965                 1.7070                 1.5418
 IR Inten    --      0.2475                 1.3160                 0.4414

                     52                     53                     54
                      A                      A                      A
 Frequencies --   1119.2114              1127.3652              1134.1852
 Red. masses --      2.1877                 1.7702                 1.4858
 Frc consts  --      1.6146                 1.3256                 1.1261
 IR Inten    --      1.5129                 5.0469                 1.1794

                     55                     56                     57
                      A                      A                      A
 Frequencies --   1146.5019              1181.6657              1212.0690
 Red. masses --      1.9663                 1.4190                 1.3101
 Frc consts  --      1.5228                 1.1674                 1.1340
 IR Inten    --      0.2099                 6.0129                 0.6642

                     58                     59                     60
                      A                      A                      A
 Frequencies --   1215.0300              1224.4563              1242.7133
 Red. masses --      1.4144                 1.2996                 1.3745
 Frc consts  --      1.2302                 1.1480                 1.2506
 IR Inten    --      0.1299                 1.1372                 0.5720

                     61                     62                     63
                      A                      A                      A
 Frequencies --   1257.7525              1281.1140              1295.8388
 Red. masses --      1.3336                 1.3213                 1.2290
 Frc consts  --      1.2430                 1.2777                 1.2159
 IR Inten    --      0.8663                 0.2643                 0.1321

                     64                     65                     66
                      A                      A                      A
 Frequencies --   1304.0314              1315.2162              1323.5508
 Red. masses --      1.1782                 1.2232                 1.2018
 Frc consts  --      1.1805                 1.2467                 1.2404
 IR Inten    --      0.8446                 3.8651                 0.3912

                     67                     68                     69
                      A                      A                      A
 Frequencies --   1332.9815              1340.2090              1347.9190
 Red. masses --      1.2385                 1.2414                 1.3602
 Frc consts  --      1.2966                 1.3137                 1.4560
 IR Inten    --      7.7022                 0.6335                 2.2611

                     70                     71                     72
                      A                      A                      A
 Frequencies --   1351.4668              1357.9948              1369.2320
 Red. masses --      1.2667                 1.2631                 1.3754
 Frc consts  --      1.3631                 1.3724                 1.5192
 IR Inten    --      1.2023                 0.8775                 4.6421

                     73                     74                     75
                      A                      A                      A
 Frequencies --   1373.9375              1379.6753              1386.8517
 Red. masses --      1.3827                 1.3707                 1.4082
 Frc consts  --      1.5378                 1.5373                 1.5957
 IR Inten    --      1.0534                 1.0454                 0.9458

                     76                     77                     78
                      A                      A                      A
 Frequencies --   1387.2286              1391.3849              1405.8669
 Red. masses --      1.4125                 1.3063                 1.3552
 Frc consts  --      1.6016                 1.4901                 1.5782
 IR Inten    --      2.8898                 0.9257                 1.7861

                     79                     80                     81
                      A                      A                      A
 Frequencies --   1407.2586              1417.1357              1453.6982
 Red. masses --      1.2247                 1.3049                 1.1508
 Frc consts  --      1.4290                 1.5440                 1.4328
 IR Inten    --      2.7999                 9.0259                 3.3688

                     82                     83                     84
                      A                      A                      A
 Frequencies --   1476.5706              1479.7061              1487.0451
 Red. masses --      1.0777                 1.0786                 1.0795
 Frc consts  --      1.3844                 1.3914                 1.4065
 IR Inten    --      0.7338                 1.5264                 3.0762

                     85                     86                     87
                      A                      A                      A
 Frequencies --   1488.3823              1489.8870              1494.3918
 Red. masses --      1.0828                 1.0744                 1.0695
 Frc consts  --      1.4133                 1.4052                 1.4072
 IR Inten    --      4.1636                 3.0554                 0.1721

                     88                     89                     90
                      A                      A                      A
 Frequencies --   1497.2854              1498.0356              1499.1464
 Red. masses --      1.0785                 1.0490                 1.0628
 Frc consts  --      1.4245                 1.3870                 1.4074
 IR Inten    --      2.6107                 5.3486                 3.7643

                     91                     92                     93
                      A                      A                      A
 Frequencies --   1500.7265              1502.4013              1508.0763
 Red. masses --      1.0686                 1.0784                 1.0630
 Frc consts  --      1.4180                 1.4341                 1.4244
 IR Inten    --      4.3069                 0.3070                 3.9877

                     94                     95                     96
                      A                      A                      A
 Frequencies --   1517.1031              1710.4622              2986.0939
 Red. masses --      1.0841                 5.0972                 1.0792
 Frc consts  --      1.4701                 8.7863                 5.6697
 IR Inten    --     11.4021                15.6810                18.7636

                     97                     98                     99
                      A                      A                      A
 Frequencies --   3006.6677              3008.9682              3014.6328
 Red. masses --      1.0659                 1.0667                 1.0718
 Frc consts  --      5.6771                 5.6901                 5.7390
 IR Inten    --     36.1495                 8.7784                20.7317

                    100                    101                    102
                      A                      A                      A
 Frequencies --   3017.7081              3022.3281              3023.0132
 Red. masses --      1.0664                 1.0725                 1.0638
 Frc consts  --      5.7215                 5.7718                 5.7277
 IR Inten    --     39.4217                 2.3206                 5.6361

                    103                    104                    105
                      A                      A                      A
 Frequencies --   3024.3177              3028.8984              3031.4268
 Red. masses --      1.0618                 1.0539                 1.0410
 Frc consts  --      5.7222                 5.6967                 5.6363
 IR Inten    --     30.6075                 3.5167                23.5872

                    106                    107                    108
                      A                      A                      A
 Frequencies --   3032.5705              3033.8330              3038.5314
 Red. masses --      1.0466                 1.0741                 1.0700
 Frc consts  --      5.6707                 5.8249                 5.8205
 IR Inten    --     18.2180                25.9210                 9.4865

                    109                    110                    111
                      A                      A                      A
 Frequencies --   3043.0599              3055.0713              3059.7489
 Red. masses --      1.0946                 1.0917                 1.0949
 Frc consts  --      5.9723                 6.0033                 6.0393
 IR Inten    --     46.1298                27.1303                24.9356

                    112                    113                    114
                      A                      A                      A
 Frequencies --   3060.6507              3064.4248              3068.6414
 Red. masses --      1.0978                 1.1001                 1.0942
 Frc consts  --      6.0588                 6.0864                 6.0710
 IR Inten    --     21.7758                52.9842                46.9807

                    115                    116                    117
                      A                      A                      A
 Frequencies --   3077.4896              3082.6571              3092.5143
 Red. masses --      1.0999                 1.1001                 1.1006
 Frc consts  --      6.1375                 6.1591                 6.2017
 IR Inten    --    114.0755                53.3956                38.8693

                    118                    119                    120
                      A                      A                      A
 Frequencies --   3101.0267              3104.5244              3105.1910
 Red. masses --      1.1013                 1.1015                 1.0993
 Frc consts  --      6.2399                 6.2549                 6.2450
 IR Inten    --     35.0438                23.9157                33.9848

                    121                    122                    123
                      A                      A                      A
 Frequencies --   3139.2284              3164.3092              3214.9324
 Red. masses --      1.0608                 1.0825                 1.1140
 Frc consts  --      6.1590                 6.3863                 6.7841
 IR Inten    --      9.7685                14.4538                17.4749

 - Thermochemistry -
 -------------------
 Temperature   298.150 Kelvin.  Pressure   1.00000 Atm.
 Atom     1 has atomic number  6 and mass  12.00000

 Molecular mass:   208.21910 amu.
 Principal axes and moments of inertia in atomic units:
                           1         2         3
     Eigenvalues --  2598.457054048.291475655.54950
           X            0.99997  -0.00544  -0.00626
           Y            0.00547   0.99997   0.00488
           Z            0.00624  -0.00492   0.99997
 This molecule is an asymmetric top.
 Rotational symmetry number  1.
 Warning -- assumption of classical behavior for rotation
           may cause significant error
 Rotational temperatures (Kelvin)      0.03333     0.02140     0.01531
 Rotational constants (GHZ):           0.69454     0.44580     0.31911
 Zero-point vibrational energy    1055358.6 (Joules/Mol)
                                  252.23675 (Kcal/Mol)
 Warning -- explicit consideration of  25 degrees of freedom as
           vibrations may cause significant error
 Vibrational temperatures:     42.80    70.02    92.90   125.74   176.10
          (Kelvin)            212.86   245.55   283.10   300.77   326.05
                              342.45   355.75   370.02   406.61   426.96
                              454.97   477.67   494.92   506.27   553.90
                              588.36   659.69   698.51   738.39   787.13
                              950.56  1030.98  1050.62  1060.86  1089.93
                             1128.62  1159.14  1218.89  1233.31  1260.46
                             1272.18  1333.58  1337.51  1353.01  1362.50
                             1378.55  1406.78  1431.89  1444.15  1452.56
                             1491.49  1505.44  1530.02  1533.30  1546.83
                             1592.02  1610.30  1622.03  1631.84  1649.56
                             1700.15  1743.90  1748.16  1761.72  1787.99
                             1809.63  1843.24  1864.42  1876.21  1892.30
                             1904.29  1917.86  1928.26  1939.35  1944.46
                             1953.85  1970.02  1976.79  1985.04  1995.37
                             1995.91  2001.89  2022.73  2024.73  2038.94
                             2091.55  2124.46  2128.97  2139.53  2141.45
                             2143.62  2150.10  2154.26  2155.34  2156.94
                             2159.21  2161.62  2169.79  2182.77  2460.97
                             4296.32  4325.92  4329.23  4337.38  4341.81
                             4348.46  4349.44  4351.32  4357.91  4361.55
                             4363.19  4365.01  4371.77  4378.28  4395.57
                             4402.30  4403.59  4409.02  4415.09  4427.82
                             4435.26  4449.44  4461.69  4466.72  4467.68
                             4516.65  4552.74  4625.57

 Zero-point correction=                           0.401965 (Hartree/Particle)
 Thermal correction to Energy=                    0.418936
 Thermal correction to Enthalpy=                  0.419881
 Thermal correction to Gibbs Free Energy=         0.358080
 Sum of electronic and zero-point Energies=           -588.082282
 Sum of electronic and thermal Energies=              -588.065311
 Sum of electronic and thermal Enthalpies=            -588.064367
 Sum of electronic and thermal Free Energies=         -588.126168

                     E (Thermal)             CV                S
                      KCal/Mol        Cal/Mol-Kelvin    Cal/Mol-Kelvin
 Total                  262.887             66.813            130.071
 Electronic               0.000              0.000              0.000
 Translational            0.889              2.981             41.904
 Rotational               0.889              2.981             32.453
 Vibrational            261.109             60.852             55.714
 Vibration     1          0.594              1.984              5.846
 Vibration     2          0.595              1.978              4.871
 Vibration     3          0.597              1.971              4.312
 Vibration     4          0.601              1.958              3.718
 Vibration     5          0.610              1.930              3.062
 Vibration     6          0.617              1.905              2.698
 Vibration     7          0.626              1.879              2.428
 Vibration     8          0.636              1.844              2.163
 Vibration     9          0.642              1.827              2.052
 Vibration    10          0.650              1.800              1.906
 Vibration    11          0.656              1.782              1.818
 Vibration    12          0.661              1.767              1.750
 Vibration    13          0.667              1.751              1.681
 Vibration    14          0.682              1.706              1.518
 Vibration    15          0.690              1.680              1.435
 Vibration    16          0.703              1.643              1.330
 Vibration    17          0.714              1.612              1.250
 Vibration    18          0.723              1.587              1.194
 Vibration    19          0.728              1.571              1.158
 Vibration    20          0.754              1.502              1.020
 Vibration    21          0.773              1.451              0.930
 Vibration    22          0.817              1.342              0.770
 Vibration    23          0.842              1.282              0.695
 Vibration    24          0.868              1.221              0.626
 Vibration    25          0.902              1.146              0.550

                           ! Non-Optimized Parameters !
 Normal termination of Gaussian 16 at Sun May 28 04:47:03 2023.
