 Gaussian 16, Revision A.03,
 Gaussian 16:  ES64L-G16RevA.03 25-Dec-2016

 -----------------------------
 # opt freq b3lyp/6-31g(2df,p)
 -----------------------------

 -------------------
 Title Card Required
 -------------------
 Symbolic Z-matrix:
 Charge =  0 Multiplicity = 1

 SCF Done:  E(RB3LYP) =  -1185.62022808     A.U. after   18 cycles
 SCF Done:  E(RB3LYP) =  -1185.65851891     A.U. after   13 cycles
 SCF Done:  E(RB3LYP) =  -1185.71215057     A.U. after   13 cycles
 SCF Done:  E(RB3LYP) =  -1185.73722671     A.U. after   14 cycles
 SCF Done:  E(RB3LYP) =  -1185.74058206     A.U. after   12 cycles
 SCF Done:  E(RB3LYP) =  -1185.74166768     A.U. after   12 cycles
 SCF Done:  E(RB3LYP) =  -1185.74264161     A.U. after   12 cycles
 SCF Done:  E(RB3LYP) =  -1185.72707738     A.U. after   12 cycles
 SCF Done:  E(RB3LYP) =  -1185.74538030     A.U. after   12 cycles
 SCF Done:  E(RB3LYP) =  -1185.74747851     A.U. after   14 cycles
 SCF Done:  E(RB3LYP) =  -1185.75222650     A.U. after    8 cycles
 SCF Done:  E(RB3LYP) =  -1185.75222660     A.U. after    8 cycles
 SCF Done:  E(RB3LYP) =  -1185.75222670     A.U. after    8 cycles
 SCF Done:  E(RB3LYP) =  -1185.75222680     A.U. after    8 cycles
 SCF Done:  E(RB3LYP) =  -1185.75222693     A.U. after    8 cycles
 SCF Done:  E(RB3LYP) =  -1185.75222708     A.U. after    9 cycles
 SCF Done:  E(RB3LYP) =  -1185.75222723     A.U. after    9 cycles
 SCF Done:  E(RB3LYP) =  -1185.75222735     A.U. after    9 cycles
 SCF Done:  E(RB3LYP) =  -1185.75222740     A.U. after    7 cycles
 Optimization completed.
    -- Stationary point found.
 Normal termination of Gaussian 16 at Sun May 28 08:03:56 2023.

 ----------------------------------------------------------------------
 #N Geom=AllCheck Guess=TCheck SCRF=Check GenChk RB3LYP/6-31G(2df,p) Fr
 eq
 ----------------------------------------------------------------------

 Structure from the checkpoint file:  "CdCCdCqCrPOC[PH]qdOrCCdC.chk"
 -------------------
 Title Card Required
 -------------------
 Charge =  0 Multiplicity = 1

                         Standard orientation:
 ---------------------------------------------------------------------
 Center     Atomic      Atomic             Coordinates (Angstroms)
 Number     Number       Type             X           Y           Z
 ---------------------------------------------------------------------
      1          6           0        5.145625    1.571374   -1.045823
      2          6           0        4.286598    1.115289   -0.127023
      3          6           0        3.278654    0.108445   -0.412590
      4          6           0        2.373840   -0.413879    0.442709
      5          6           0        2.201339   -0.022606    1.887223
      6         15           0        1.312036   -1.728018   -0.245007
      7          8           0       -0.174071   -1.159679    0.292024
      8          6           0       -1.345943   -1.688137   -0.310032
      9         15           0       -2.744512   -0.543337    0.046958
     10          8           0       -4.070597   -1.043975   -0.385249
     11          6           0       -2.207497    1.061897   -0.655637
     12          6           0       -3.121588    2.181448   -0.251861
     13          6           0       -2.773088    3.196889    0.533011
     14          1           0        5.890745    2.322339   -0.809302
     15          1           0        5.130448    1.204908   -2.068171
     16          1           0        4.340915    1.506649    0.884993
     17          1           0        3.277291   -0.259501   -1.438217
     18          1           0        2.746546    0.886717    2.151101
     19          1           0        2.543029   -0.828371    2.548900
     20          1           0        1.142209    0.137604    2.110715
     21          1           0        1.547649   -2.682909    0.801382
     22          1           0       -1.606161   -2.674926    0.097142
     23          1           0       -1.241893   -1.793112   -1.399148
     24          1           0       -2.586625   -0.327729    1.441766
     25          1           0       -2.203010    0.926224   -1.745028
     26          1           0       -1.177799    1.235676   -0.327083
     27          1           0       -4.140390    2.111596   -0.626031
     28          1           0       -1.765342    3.298539    0.926274
     29          1           0       -3.480776    3.971515    0.807392
 ---------------------------------------------------------------------

 SCF Done:  E(RB3LYP) =  -1185.75222740     A.U. after    1 cycles

 The electronic state is 1-A.
 Alpha  occ. eigenvalues --  -77.14160 -77.11418 -19.16484 -19.08172 -10.24760
 Alpha  occ. eigenvalues --  -10.20664 -10.20585 -10.20276 -10.20020 -10.19816
 Alpha  occ. eigenvalues --  -10.19699 -10.19230 -10.18351  -6.60318  -6.58037
 Alpha  occ. eigenvalues --   -4.76598  -4.76570  -4.76421  -4.74467  -4.74172
 Alpha  occ. eigenvalues --   -4.73790  -1.03891  -0.95371  -0.82891  -0.80167
 Alpha  occ. eigenvalues --   -0.77454  -0.73176  -0.69888  -0.69743  -0.63463
 Alpha  occ. eigenvalues --   -0.58106  -0.58043  -0.55348  -0.53857  -0.49191
 Alpha  occ. eigenvalues --   -0.48115  -0.47280  -0.46934  -0.45958  -0.44468
 Alpha  occ. eigenvalues --   -0.42717  -0.42019  -0.41552  -0.40165  -0.39681
 Alpha  occ. eigenvalues --   -0.38765  -0.37692  -0.36216  -0.35725  -0.35348
 Alpha  occ. eigenvalues --   -0.34090  -0.33028  -0.29898  -0.28038  -0.26661
 Alpha  occ. eigenvalues --   -0.25188  -0.24901  -0.24043
 Alpha virt. eigenvalues --   -0.05252   0.00080   0.01327   0.03989   0.06298
 Alpha virt. eigenvalues --    0.06611   0.08570   0.09188   0.09607   0.10254
 Alpha virt. eigenvalues --    0.11070   0.11482   0.12509   0.13025   0.13466

 Mulliken charges:
               1
     1  C   -0.312882
     2  C   -0.018066
     3  C   -0.119049
     4  C    0.214117
     5  C   -0.496231
     6  P    0.000701
     7  O   -0.267043
     8  C   -0.153455
     9  P    0.294382
    10  O   -0.319246
    11  C   -0.296804
    12  C    0.013593
    13  C   -0.316415
    14  H    0.122669
    15  H    0.115829
    16  H    0.095271
    17  H    0.103493
    18  H    0.124623
    19  H    0.136353
    20  H    0.149587
    21  H    0.019477
    22  H    0.137195
    23  H    0.136198
    24  H    0.017709
    25  H    0.133987
    26  H    0.137787
    27  H    0.120130
    28  H    0.106516
    29  H    0.119575
 Sum of Mulliken charges =  -0.00000

 Dipole moment (field-independent basis, Debye):
    X=              4.3602    Y=              1.7265    Z=              0.7426  Tot=              4.7480
 Quadrupole moment (field-independent basis, Debye-Ang):
   XX=           -106.3454   YY=            -91.2607   ZZ=            -90.4449
   XY=             -3.6906   XZ=             -1.2660   YZ=             -0.8831

  Exact polarizability: 190.516  30.285 156.982 -15.882   1.732 128.268
 Approx polarizability: 253.689  53.195 230.739 -26.750  -2.367 212.216

                      1                      2                      3
                      A                      A                      A
 Frequencies --      5.8251                15.0945                36.4811
 Red. masses --      5.7506                 4.0118                 3.3588
 Frc consts  --      0.0001                 0.0005                 0.0026
 IR Inten    --      0.1836                 0.4380                 0.4200

                      4                      5                      6
                      A                      A                      A
 Frequencies --     56.2444                65.9765                83.5586
 Red. masses --      4.0131                 4.0407                 3.0456
 Frc consts  --      0.0075                 0.0104                 0.0125
 IR Inten    --      1.1877                 1.6940                 0.9808

                      7                      8                      9
                      A                      A                      A
 Frequencies --    105.4475               127.6716               134.6925
 Red. masses --      3.5738                 1.2648                 2.7608
 Frc consts  --      0.0234                 0.0121                 0.0295
 IR Inten    --      4.3139                 0.4577                 2.5982

                     10                     11                     12
                      A                      A                      A
 Frequencies --    144.2579               169.0095               183.3911
 Red. masses --      2.1963                 2.5877                 3.3061
 Frc consts  --      0.0269                 0.0435                 0.0655
 IR Inten    --      2.2975                 4.3046                 3.1607

                     13                     14                     15
                      A                      A                      A
 Frequencies --    230.7957               241.0352               286.6570
 Red. masses --      3.3474                 3.8589                 3.2133
 Frc consts  --      0.1051                 0.1321                 0.1556
 IR Inten    --      0.4880                 0.5860                 2.6051

                     16                     17                     18
                      A                      A                      A
 Frequencies --    310.9435               358.3567               361.7926
 Red. masses --      3.5592                 3.7566                 4.0559
 Frc consts  --      0.2028                 0.2842                 0.3128
 IR Inten    --      3.9683                15.1695                 4.9755

                     19                     20                     21
                      A                      A                      A
 Frequencies --    394.6464               408.1048               427.2000
 Red. masses --      3.2215                 1.8623                 2.9228
 Frc consts  --      0.2956                 0.1827                 0.3143
 IR Inten    --      4.0759                 7.3523                 3.7144

                     22                     23                     24
                      A                      A                      A
 Frequencies --    504.3526               596.7378               686.5484
 Red. masses --      4.3031                 1.9774                 1.3734
 Frc consts  --      0.6449                 0.4149                 0.3814
 IR Inten    --     13.5125                22.9744                 9.0965

                     25                     26                     27
                      A                      A                      A
 Frequencies --    712.5249               726.2740               737.8259
 Red. masses --      1.6005                 6.6106                 3.3640
 Frc consts  --      0.4788                 2.0544                 1.0790
 IR Inten    --      1.1619               158.0366                43.7656

                     28                     29                     30
                      A                      A                      A
 Frequencies --    766.5970               784.0537               866.3938
 Red. masses --      1.5094                 4.7757                 1.2098
 Frc consts  --      0.5226                 1.7297                 0.5350
 IR Inten    --     15.1493                 7.4321                23.4599

                     31                     32                     33
                      A                      A                      A
 Frequencies --    873.2972               925.1059               933.6933
 Red. masses --      1.6780                 2.0735                 1.2929
 Frc consts  --      0.7540                 1.0455                 0.6641
 IR Inten    --     34.2584                28.8944               101.5950

                     34                     35                     36
                      A                      A                      A
 Frequencies --    944.1851               950.2124               950.8964
 Red. masses --      1.6540                 1.3057                 1.3655
 Frc consts  --      0.8687                 0.6946                 0.7275
 IR Inten    --      7.3167                51.5423                31.5801

                     37                     38                     39
                      A                      A                      A
 Frequencies --    964.7324               984.7172               990.4833
 Red. masses --      1.5467                 1.2168                 1.3176
 Frc consts  --      0.8481                 0.6951                 0.7616
 IR Inten    --      9.4324                52.6855               104.9778

                     40                     41                     42
                      A                      A                      A
 Frequencies --   1014.0952              1034.2054              1042.3327
 Red. masses --      1.7243                 1.1496                 1.1161
 Frc consts  --      1.0447                 0.7245                 0.7144
 IR Inten    --     62.3525                 9.6842                14.4956

                     43                     44                     45
                      A                      A                      A
 Frequencies --   1064.2219              1083.5841              1091.8986
 Red. masses --      1.3544                 1.4091                 4.4355
 Frc consts  --      0.9037                 0.9748                 3.1157
 IR Inten    --     12.3175                16.3757               157.1272

                     46                     47                     48
                      A                      A                      A
 Frequencies --   1112.9144              1209.8356              1211.7321
 Red. masses --      1.9080                 1.5203                 2.4262
 Frc consts  --      1.3924                 1.3111                 2.0989
 IR Inten    --      2.7789                 5.5475                 2.4644

                     49                     50                     51
                      A                      A                      A
 Frequencies --   1225.4860              1229.4395              1253.7557
 Red. masses --      1.2762                 1.2514                 4.1919
 Frc consts  --      1.1293                 1.1145                 3.8823
 IR Inten    --     24.0033                13.8662               148.6405

                     52                     53                     54
                      A                      A                      A
 Frequencies --   1323.8774              1327.0159              1333.9226
 Red. masses --      1.3116                 1.2391                 1.4478
 Frc consts  --      1.3544                 1.2856                 1.5178
 IR Inten    --      1.5038                 3.4569                13.9968

                     55                     56                     57
                      A                      A                      A
 Frequencies --   1360.6025              1409.5866              1434.4729
 Red. masses --      1.3076                 1.2424                 1.1037
 Frc consts  --      1.4262                 1.4544                 1.3381
 IR Inten    --      1.9892                 3.5829                 2.9534

                     58                     59                     60
                      A                      A                      A
 Frequencies --   1454.8228              1461.6825              1473.5264
 Red. masses --      1.2662                 1.1681                 1.0511
 Frc consts  --      1.5789                 1.4705                 1.3446
 IR Inten    --      6.6984                 9.1574                 1.9159

                     61                     62                     63
                      A                      A                      A
 Frequencies --   1481.6376              1493.3934              1645.9747
 Red. masses --      1.0709                 1.0633                 5.1579
 Frc consts  --      1.3851                 1.3972                 8.2332
 IR Inten    --     16.5814                 3.6043                 7.0230

                     64                     65                     66
                      A                      A                      A
 Frequencies --   1694.1715              1710.7874              2271.5586
 Red. masses --      4.8890                 4.6966                 1.0391
 Frc consts  --      8.2677                 8.0990                 3.1591
 IR Inten    --      2.6648                11.8639               130.2975

                     67                     68                     69
                      A                      A                      A
 Frequencies --   2369.1869              2998.9993              3026.9788
 Red. masses --      1.0398                 1.0539                 1.0611
 Frc consts  --      3.4387                 5.5847                 5.7285
 IR Inten    --     76.6842                34.9587                 6.5782

                     70                     71                     72
                      A                      A                      A
 Frequencies --   3028.8563              3047.3585              3089.1614
 Red. masses --      1.0407                 1.1065                 1.0929
 Frc consts  --      5.6252                 6.0540                 6.1447
 IR Inten    --     17.1229                12.1306                10.4307

                     73                     74                     75
                      A                      A                      A
 Frequencies --   3094.9399              3119.3458              3130.4589
 Red. masses --      1.0987                 1.1011                 1.0869
 Frc consts  --      6.2004                 6.3125                 6.2757
 IR Inten    --      3.5403                12.9604                 2.0933

                     76                     77                     78
                      A                      A                      A
 Frequencies --   3142.8086              3147.9794              3162.5927
 Red. masses --      1.0599                 1.0600                 1.0915
 Frc consts  --      6.1683                 6.1892                 6.4324
 IR Inten    --      6.1991                 6.1632                 5.5587

                     79                     80                     81
                      A                      A                      A
 Frequencies --   3170.4287              3228.5782              3236.4864
 Red. masses --      1.0898                 1.1141                 1.1146
 Frc consts  --      6.4538                 6.8421                 6.8788
 IR Inten    --     11.3483                14.0813                 9.6911

 - Thermochemistry -
 -------------------
 Temperature   298.150 Kelvin.  Pressure   1.00000 Atm.
 Atom     1 has atomic number  6 and mass  12.00000

 Molecular mass:   218.06256 amu.
 Principal axes and moments of inertia in atomic units:
                           1         2         3
     Eigenvalues --  2094.343626795.801878105.17497
           X            1.00000  -0.00101   0.00037
           Y            0.00101   1.00000  -0.00065
           Z           -0.00037   0.00065   1.00000
 This molecule is an asymmetric top.
 Rotational symmetry number  1.
 Warning -- assumption of classical behavior for rotation
           may cause significant error
 Rotational temperatures (Kelvin)      0.04136     0.01275     0.01069
 Rotational constants (GHZ):           0.86172     0.26557     0.22267
 Zero-point vibrational energy     607048.0 (Joules/Mol)
                                  145.08796 (Kcal/Mol)
 Warning -- explicit consideration of  23 degrees of freedom as
           vibrations may cause significant error
 Vibrational temperatures:      8.38    21.72    52.49    80.92    94.93
          (Kelvin)            120.22   151.72   183.69   193.79   207.55
                              243.17   263.86   332.06   346.80   412.44
                              447.38   515.60   520.54   567.81   587.17
                              614.65   725.65   858.57   987.79  1025.16
                             1044.95  1061.57  1102.96  1128.08  1246.55
                             1256.48  1331.02  1343.38  1358.47  1367.14
                             1368.13  1388.03  1416.79  1425.08  1459.06
                             1487.99  1499.68  1531.18  1559.04  1571.00
                             1601.24  1740.68  1743.41  1763.20  1768.89
                             1803.87  1904.76  1909.28  1919.22  1957.60
                             2028.08  2063.89  2093.17  2103.04  2120.08
                             2131.75  2148.66  2368.19  2437.53  2461.44
                             3268.27  3408.73  4314.89  4355.15  4357.85
                             4384.47  4444.61  4452.93  4488.04  4504.03
                             4521.80  4529.24  4550.27  4561.54  4645.20
                             4656.58

 Zero-point correction=                           0.231212 (Hartree/Particle)
 Thermal correction to Energy=                    0.248345
 Thermal correction to Enthalpy=                  0.249290
 Thermal correction to Gibbs Free Energy=         0.181531
 Sum of electronic and zero-point Energies=          -1185.521015
 Sum of electronic and thermal Energies=             -1185.503882
 Sum of electronic and thermal Enthalpies=           -1185.502938
 Sum of electronic and thermal Free Energies=        -1185.570696

                     E (Thermal)             CV                S
                      KCal/Mol        Cal/Mol-Kelvin    Cal/Mol-Kelvin
 Total                  155.839             59.424            142.610
 Electronic               0.000              0.000              0.000
 Translational            0.889              2.981             42.042
 Rotational               0.889              2.981             33.111
 Vibrational            154.062             53.463             67.457
 Vibration     1          0.593              1.987              9.085
 Vibration     2          0.593              1.986              7.193
 Vibration     3          0.594              1.982              5.442
 Vibration     4          0.596              1.975              4.585
 Vibration     5          0.597              1.971              4.270
 Vibration     6          0.600              1.960              3.805
 Vibration     7          0.605              1.945              3.351
 Vibration     8          0.611              1.926              2.981
 Vibration     9          0.613              1.919              2.878
 Vibration    10          0.616              1.909              2.747
 Vibration    11          0.625              1.881              2.446
 Vibration    12          0.631              1.862              2.294
 Vibration    13          0.652              1.794              1.873
 Vibration    14          0.658              1.778              1.795
 Vibration    15          0.684              1.698              1.494
 Vibration    16          0.700              1.653              1.357
 Vibration    17          0.733              1.558              1.129
 Vibration    18          0.736              1.551              1.114
 Vibration    19          0.762              1.482              0.983
 Vibration    20          0.773              1.453              0.933
 Vibration    21          0.789              1.411              0.868
 Vibration    22          0.860              1.240              0.647
 Vibration    23          0.955              1.039              0.455

                           ! Non-Optimized Parameters !
 Normal termination of Gaussian 16 at Sun May 28 09:13:34 2023.
