 Gaussian 16, Revision A.03,
 Gaussian 16:  ES64L-G16RevA.03 25-Dec-2016

 -----------------------------
 # opt freq b3lyp/6-31g(2df,p)
 -----------------------------

 -------------------
 Title Card Required
 -------------------
 Symbolic Z-matrix:
 Charge =  0 Multiplicity = 1

 SCF Done:  E(RB3LYP) =  -661.209079369     A.U. after   14 cycles
 SCF Done:  E(RB3LYP) =  -661.228393217     A.U. after   12 cycles
 SCF Done:  E(RB3LYP) =  -661.231245998     A.U. after   11 cycles
 SCF Done:  E(RB3LYP) =  -661.231541682     A.U. after   10 cycles
 SCF Done:  E(RB3LYP) =  -661.231586167     A.U. after   10 cycles
 SCF Done:  E(RB3LYP) =  -661.231628330     A.U. after    9 cycles
 SCF Done:  E(RB3LYP) =  -661.231683127     A.U. after   10 cycles
 SCF Done:  E(RB3LYP) =  -661.226117998     A.U. after   12 cycles
 SCF Done:  E(RB3LYP) =  -661.232480628     A.U. after   12 cycles
 SCF Done:  E(RB3LYP) =  -661.234797939     A.U. after   13 cycles
 SCF Done:  E(RB3LYP) =  -661.236953854     A.U. after   12 cycles
 SCF Done:  E(RB3LYP) =  -661.237904718     A.U. after   12 cycles
 SCF Done:  E(RB3LYP) =  -661.238097866     A.U. after   11 cycles
 SCF Done:  E(RB3LYP) =  -661.238182170     A.U. after   10 cycles
 SCF Done:  E(RB3LYP) =  -661.238206311     A.U. after   10 cycles
 SCF Done:  E(RB3LYP) =  -661.238208477     A.U. after    8 cycles
 SCF Done:  E(RB3LYP) =  -661.238208805     A.U. after    7 cycles
 SCF Done:  E(RB3LYP) =  -661.238208827     A.U. after    6 cycles
 Optimization completed.
    -- Stationary point found.
 Normal termination of Gaussian 16 at Sun May 28 13:25:27 2023.

 ----------------------------------------------------------------------
 #N Geom=AllCheck Guess=TCheck SCRF=Check GenChk RB3LYP/6-31G(2df,p) Fr
 eq
 ----------------------------------------------------------------------

 Structure from the checkpoint file:  "CdCCCCC1OCdC1CdCCCCCC.chk"
 -------------------
 Title Card Required
 -------------------
 Charge =  0 Multiplicity = 1

                         Standard orientation:
 ---------------------------------------------------------------------
 Center     Atomic      Atomic             Coordinates (Angstroms)
 Number     Number       Type             X           Y           Z
 ---------------------------------------------------------------------
      1          6           0        5.912145    2.567777   -0.552698
      2          6           0        4.609730    2.348540   -0.402958
      3          6           0        3.982872    1.535882    0.693529
      4          6           0        3.185060    0.332648    0.160389
      5          6           0        2.500382   -0.455517    1.280759
      6          6           0        1.770560   -1.709612    0.833744
      7          8           0        2.677153   -2.677979    0.158798
      8          6           0        1.819525   -2.608152   -0.918949
      9          6           0        0.923885   -1.726515   -0.435410
     10          6           0       -0.278526   -1.087954   -0.880112
     11          6           0       -1.026406   -0.230878   -0.167230
     12          6           0       -2.287027    0.421827   -0.649822
     13          6           0       -3.524060    0.045603    0.188293
     14          6           0       -4.803620    0.750865   -0.272254
     15          6           0       -6.037686    0.380292    0.557446
     16          6           0       -7.312751    1.088208    0.091193
     17          1           0        6.303651    3.160686   -1.372648
     18          1           0        6.641993    2.163901    0.143890
     19          1           0        3.914218    2.771533   -1.128469
     20          1           0        3.304428    2.175940    1.277605
     21          1           0        4.759166    1.190540    1.387518
     22          1           0        3.857061   -0.332638   -0.391574
     23          1           0        2.431066    0.682053   -0.554647
     24          1           0        1.772818    0.183768    1.799480
     25          1           0        3.239829   -0.751655    2.036916
     26          1           0        1.310805   -2.221009    1.685712
     27          1           0        1.999263   -3.197359   -1.809255
     28          1           0       -0.591593   -1.331815   -1.895603
     29          1           0       -0.725884    0.008936    0.852997
     30          1           0       -2.460896    0.157395   -1.700439
     31          1           0       -2.171768    1.516113   -0.621234
     32          1           0       -3.332635    0.287876    1.242766
     33          1           0       -3.664925   -1.042243    0.148191
     34          1           0       -4.991679    0.510962   -1.328337
     35          1           0       -4.653539    1.839152   -0.233493
     36          1           0       -5.849437    0.620833    1.612288
     37          1           0       -6.186407   -0.706957    0.517970
     38          1           0       -7.206204    2.177100    0.152588
     39          1           0       -8.175308    0.803687    0.702012
     40          1           0       -7.545751    0.838945   -0.950129
 ---------------------------------------------------------------------

 SCF Done:  E(RB3LYP) =  -661.238208827     A.U. after    1 cycles

 The electronic state is 1-A.
 Alpha  occ. eigenvalues --  -19.15481 -10.24233 -10.23189 -10.18742 -10.18409
 Alpha  occ. eigenvalues --  -10.18200 -10.18183 -10.18138 -10.17861 -10.17785
 Alpha  occ. eigenvalues --  -10.17769 -10.17740 -10.17725 -10.17584 -10.17095
 Alpha  occ. eigenvalues --  -10.16988  -1.06357  -0.81377  -0.80688  -0.79107
 Alpha  occ. eigenvalues --   -0.76896  -0.75471  -0.71803  -0.70556  -0.66843
 Alpha  occ. eigenvalues --   -0.64130  -0.60659  -0.59188  -0.57414  -0.56102
 Alpha  occ. eigenvalues --   -0.54898  -0.51661  -0.49629  -0.48288  -0.47153
 Alpha  occ. eigenvalues --   -0.46682  -0.45739  -0.44083  -0.42934  -0.42615
 Alpha  occ. eigenvalues --   -0.41855  -0.40683  -0.40182  -0.38528  -0.38178
 Alpha  occ. eigenvalues --   -0.36887  -0.36472  -0.36076  -0.35127  -0.34520
 Alpha  occ. eigenvalues --   -0.33361  -0.33248  -0.32990  -0.32541  -0.32017
 Alpha  occ. eigenvalues --   -0.31898  -0.31322  -0.30916  -0.28793  -0.25055
 Alpha  occ. eigenvalues --   -0.19265
 Alpha virt. eigenvalues --   -0.01209   0.02549   0.07817   0.09064   0.09518
 Alpha virt. eigenvalues --    0.09811   0.11138   0.11307   0.11893   0.12161
 Alpha virt. eigenvalues --    0.12795   0.13807   0.13958   0.14392   0.14866

 Mulliken charges:
               1
     1  C   -0.318509
     2  C    0.032232
     3  C   -0.232091
     4  C   -0.173171
     5  C   -0.222175
     6  C    0.037474
     7  O   -0.278922
     8  C   -0.024191
     9  C    0.145613
    10  C   -0.165224
    11  C   -0.093754
    12  C   -0.249822
    13  C   -0.168175
    14  C   -0.155510
    15  C   -0.164838
    16  C   -0.378814
    17  H    0.108482
    18  H    0.100915
    19  H    0.084647
    20  H    0.099644
    21  H    0.097512
    22  H    0.118227
    23  H    0.106822
    24  H    0.104370
    25  H    0.109874
    26  H    0.104117
    27  H    0.132818
    28  H    0.080643
    29  H    0.073809
    30  H    0.094003
    31  H    0.099241
    32  H    0.091375
    33  H    0.097949
    34  H    0.091267
    35  H    0.090232
    36  H    0.093335
    37  H    0.094461
    38  H    0.112692
    39  H    0.110485
    40  H    0.112956
 Sum of Mulliken charges =  -0.00000

 Dipole moment (field-independent basis, Debye):
    X=             -1.2601    Y=              0.5482    Z=              0.0704  Tot=              1.3760
 Quadrupole moment (field-independent basis, Debye-Ang):
   XX=           -104.3835   YY=           -103.3021   ZZ=            -95.5030
   XY=              1.5083   XZ=              0.4602   YZ=              2.2387

  Exact polarizability: 232.411 -21.111 154.005  -5.066   3.787 140.105
 Approx polarizability: 296.921 -53.832 239.065 -13.734  17.570 220.217

                      1                      2                      3
                      A                      A                      A
 Frequencies --     16.5707                28.4551                44.0411
 Red. masses --      4.3646                 2.8548                 1.8989
 Frc consts  --      0.0007                 0.0014                 0.0022
 IR Inten    --      0.0028                 0.0602                 0.0337

                      4                      5                      6
                      A                      A                      A
 Frequencies --     48.1380                49.4180                70.8989
 Red. masses --      3.3140                 2.4591                 3.3698
 Frc consts  --      0.0045                 0.0035                 0.0100
 IR Inten    --      0.0323                 0.0149                 0.1989

                      7                      8                      9
                      A                      A                      A
 Frequencies --     96.4138               112.3477               116.9967
 Red. masses --      2.5677                 2.8347                 2.2817
 Frc consts  --      0.0141                 0.0211                 0.0184
 IR Inten    --      0.0296                 0.2369                 0.4148

                     10                     11                     12
                      A                      A                      A
 Frequencies --    130.9994               135.0347               158.5307
 Red. masses --      2.5381                 2.1835                 2.5991
 Frc consts  --      0.0257                 0.0235                 0.0385
 IR Inten    --      0.0817                 0.1614                 0.0418

                     13                     14                     15
                      A                      A                      A
 Frequencies --    167.2948               213.4473               246.6956
 Red. masses --      2.5736                 2.8637                 1.1260
 Frc consts  --      0.0424                 0.0769                 0.0404
 IR Inten    --      0.6410                 0.1621                 0.0060

                     16                     17                     18
                      A                      A                      A
 Frequencies --    266.0256               287.3092               296.7669
 Red. masses --      3.0100                 2.9806                 2.7134
 Frc consts  --      0.1255                 0.1450                 0.1408
 IR Inten    --      0.2727                 0.5055                 0.1287

                     19                     20                     21
                      A                      A                      A
 Frequencies --    334.8082               365.6753               400.5595
 Red. masses --      3.4829                 2.6314                 2.9124
 Frc consts  --      0.2300                 0.2073                 0.2753
 IR Inten    --      2.6688                 2.6852                 0.2065

                     22                     23                     24
                      A                      A                      A
 Frequencies --    428.9672               440.4427               476.1683
 Red. masses --      2.6146                 2.5870                 3.3843
 Frc consts  --      0.2835                 0.2957                 0.4521
 IR Inten    --      3.4608                 6.6944                 0.4657

                     25                     26                     27
                      A                      A                      A
 Frequencies --    532.9176               647.4954               694.9612
 Red. masses --      3.5361                 1.6756                 3.0657
 Frc consts  --      0.5917                 0.4139                 0.8724
 IR Inten    --      1.6447                12.6914                 2.4327

                     28                     29                     30
                      A                      A                      A
 Frequencies --    724.2147               733.2721               752.4664
 Red. masses --      1.5820                 1.0948                 1.2598
 Frc consts  --      0.4889                 0.3468                 0.4203
 IR Inten    --      4.2748                 2.8101                 0.8622

                     31                     32                     33
                      A                      A                      A
 Frequencies --    769.3332               819.8035               829.8023
 Red. masses --      1.4853                 2.3309                 1.5660
 Frc consts  --      0.5179                 0.9230                 0.6353
 IR Inten    --      1.5401                 8.9870                 5.6343

                     34                     35                     36
                      A                      A                      A
 Frequencies --    853.3897               860.9416               868.5242
 Red. masses --      1.3894                 3.2012                 1.8007
 Frc consts  --      0.5962                 1.3980                 0.8003
 IR Inten    --     10.1966                16.7260                 5.1913

                     37                     38                     39
                      A                      A                      A
 Frequencies --    878.0944               898.8915               939.3822
 Red. masses --      1.9996                 1.9154                 1.8923
 Frc consts  --      0.9084                 0.9119                 0.9838
 IR Inten    --     10.7144                 0.9024                 4.4878

                     40                     41                     42
                      A                      A                      A
 Frequencies --    946.9984               966.1922              1004.3587
 Red. masses --      1.3898                 1.3408                 1.3314
 Frc consts  --      0.7343                 0.7375                 0.7913
 IR Inten    --     28.7548                 5.2235                19.5614

                     43                     44                     45
                      A                      A                      A
 Frequencies --   1007.4819              1014.2415              1027.6958
 Red. masses --      2.3507                 1.5945                 2.1669
 Frc consts  --      1.4058                 0.9664                 1.3484
 IR Inten    --      7.9815                 6.6557                44.6242

                     46                     47                     48
                      A                      A                      A
 Frequencies --   1030.2579              1044.9485              1047.3040
 Red. masses --      2.5001                 1.3424                 2.4947
 Frc consts  --      1.5635                 0.8636                 1.6122
 IR Inten    --     18.5269                 4.9844                70.3688

                     49                     50                     51
                      A                      A                      A
 Frequencies --   1052.3034              1068.5601              1073.0623
 Red. masses --      1.9217                 2.2712                 2.5302
 Frc consts  --      1.2538                 1.5279                 1.7165
 IR Inten    --      3.3633                 0.6740                79.8527

                     52                     53                     54
                      A                      A                      A
 Frequencies --   1122.7636              1125.9913              1127.5978
 Red. masses --      1.4555                 1.8635                 1.9049
 Frc consts  --      1.0811                 1.3920                 1.4270
 IR Inten    --      3.2703                 0.4368                 6.1322

                     55                     56                     57
                      A                      A                      A
 Frequencies --   1140.9776              1206.1256              1217.7400
 Red. masses --      2.0546                 1.5205                 1.5692
 Frc consts  --      1.5759                 1.3032                 1.3710
 IR Inten    --      0.4846                 1.3092                 0.6710

                     58                     59                     60
                      A                      A                      A
 Frequencies --   1228.3991              1250.0535              1257.0475
 Red. masses --      1.4950                 1.3845                 1.3571
 Frc consts  --      1.3291                 1.2747                 1.2634
 IR Inten    --      0.9580                17.6094                 1.5745

                     61                     62                     63
                      A                      A                      A
 Frequencies --   1270.1642              1290.5948              1303.0141
 Red. masses --      1.6054                 1.3075                 1.6195
 Frc consts  --      1.5260                 1.2831                 1.6201
 IR Inten    --      4.2278                 2.7379                18.5096

                     64                     65                     66
                      A                      A                      A
 Frequencies --   1309.6527              1318.2587              1320.9256
 Red. masses --      1.4727                 1.2781                 1.1823
 Frc consts  --      1.4882                 1.3087                 1.2155
 IR Inten    --      1.9823                 6.5166                 1.0189

                     67                     68                     69
                      A                      A                      A
 Frequencies --   1327.1122              1330.6582              1333.3985
 Red. masses --      1.2982                 1.0901                 1.2109
 Frc consts  --      1.3471                 1.1372                 1.2684
 IR Inten    --      1.9803                 1.3825                 0.6811

                     70                     71                     72
                      A                      A                      A
 Frequencies --   1336.8131              1344.3230              1358.9537
 Red. masses --      1.2512                 1.6711                 1.4886
 Frc consts  --      1.3174                 1.7794                 1.6198
 IR Inten    --      1.1965                 9.1766                 5.3392

                     73                     74                     75
                      A                      A                      A
 Frequencies --   1366.6878              1382.0018              1398.1012
 Red. masses --      1.5160                 1.4873                 1.6040
 Frc consts  --      1.6684                 1.6736                 1.8473
 IR Inten    --      4.4761                 7.6908                 0.7793

                     76                     77                     78
                      A                      A                      A
 Frequencies --   1405.5057              1413.0308              1455.4538
 Red. masses --      1.5321                 1.2412                 1.1649
 Frc consts  --      1.7833                 1.4602                 1.4539
 IR Inten    --      5.5080                 0.5868                 0.8479

                     79                     80                     81
                      A                      A                      A
 Frequencies --   1467.5937              1475.6557              1480.6375
 Red. masses --      1.0834                 1.0868                 1.1020
 Frc consts  --      1.3748                 1.3943                 1.4234
 IR Inten    --      3.7619                 2.6267                 1.9599

                     82                     83                     84
                      A                      A                      A
 Frequencies --   1483.3342              1489.8813              1499.7698
 Red. masses --      1.0701                 1.0712                 1.0403
 Frc consts  --      1.3872                 1.4009                 1.3786
 IR Inten    --      0.4886                 1.2152                 4.9736

                     85                     86                     87
                      A                      A                      A
 Frequencies --   1502.8387              1503.3413              1513.5360
 Red. masses --      1.0791                 1.0974                 1.0913
 Frc consts  --      1.4360                 1.4613                 1.4729
 IR Inten    --      0.0623                 2.7061                 3.0967

                     88                     89                     90
                      A                      A                      A
 Frequencies --   1656.8930              1718.4385              1729.6991
 Red. masses --      5.9512                 4.8508                 6.9154
 Frc consts  --      9.6260                 8.4398                12.1902
 IR Inten    --     20.5115                11.2297                32.3452

                     91                     92                     93
                      A                      A                      A
 Frequencies --   2988.6028              2993.8786              3000.2043
 Red. masses --      1.0648                 1.0645                 1.0577
 Frc consts  --      5.6035                 5.6216                 5.6092
 IR Inten    --     23.7899                21.4335                 9.2022

                     94                     95                     96
                      A                      A                      A
 Frequencies --   3009.5253              3012.3817              3017.0675
 Red. masses --      1.0607                 1.0592                 1.0637
 Frc consts  --      5.6605                 5.6629                 5.7047
 IR Inten    --      1.3899                15.0334                64.1650

                     97                     98                     99
                      A                      A                      A
 Frequencies --   3024.0346              3028.1030              3037.6660
 Red. masses --      1.0949                 1.0359                 1.0710
 Frc consts  --      5.8993                 5.5961                 5.8224
 IR Inten    --      7.2094                43.3605                10.0143

                    100                    101                    102
                      A                      A                      A
 Frequencies --   3037.9071              3047.7474              3048.7210
 Red. masses --      1.0939                 1.0988                 1.1013
 Frc consts  --      5.9481                 6.0133                 6.0309
 IR Inten    --     10.2789                 5.8157                 3.1707

                    103                    104                    105
                      A                      A                      A
 Frequencies --   3048.9776              3064.9187              3065.4006
 Red. masses --      1.0845                 1.0849                 1.1041
 Frc consts  --      5.9400                 6.0043                 6.1125
 IR Inten    --     29.3721                33.1473                71.7052

                    106                    107                    108
                      A                      A                      A
 Frequencies --   3090.9152              3094.2891              3099.9415
 Red. masses --      1.1034                 1.1020                 1.1009
 Frc consts  --      6.2107                 6.2169                 6.2334
 IR Inten    --     25.8185                58.5884                39.6119

                    109                    110                    111
                      A                      A                      A
 Frequencies --   3119.5202              3124.2567              3126.9530
 Red. masses --      1.0891                 1.0807                 1.0851
 Frc consts  --      6.2447                 6.2150                 6.2514
 IR Inten    --      0.8058                22.8330                48.7854

                    112                    113                    114
                      A                      A                      A
 Frequencies --   3140.8740              3218.6698              3221.1180
 Red. masses --      1.0692                 1.1011                 1.1141
 Frc consts  --      6.2144                 6.7208                 6.8109
 IR Inten    --      5.2967                 9.9519                17.3591

 - Thermochemistry -
 -------------------
 Temperature   298.150 Kelvin.  Pressure   1.00000 Atm.
 Atom     1 has atomic number  6 and mass  12.00000

 Molecular mass:   220.18272 amu.
 Principal axes and moments of inertia in atomic units:
                           1         2         3
     Eigenvalues --  2333.80901********************
           X            1.00000   0.00247   0.00026
           Y           -0.00247   0.99999  -0.00204
           Z           -0.00027   0.00204   1.00000
 This molecule is an asymmetric top.
 Rotational symmetry number  1.
 Warning -- assumption of classical behavior for rotation
           may cause significant error
 Rotational temperatures (Kelvin)      0.03711     0.00701     0.00622
 Rotational constants (GHZ):           0.77330     0.14606     0.12970
 Zero-point vibrational energy     933945.8 (Joules/Mol)
                                  223.21839 (Kcal/Mol)
 Warning -- explicit consideration of  25 degrees of freedom as
           vibrations may cause significant error
 Vibrational temperatures:     23.84    40.94    63.37    69.26    71.10
          (Kelvin)            102.01   138.72   161.64   168.33   188.48
                              194.28   228.09   240.70   307.10   354.94
                              382.75   413.37   426.98   481.71   526.13
                              576.32   617.19   633.70   685.10   766.75
                              931.60   999.89  1041.98  1055.01  1082.63
                             1106.90  1179.51  1193.90  1227.84  1238.70
                             1249.61  1263.38  1293.30  1351.56  1362.52
                             1390.14  1445.05  1449.54  1459.27  1478.63
                             1482.31  1503.45  1506.84  1514.03  1537.42
                             1543.90  1615.41  1620.05  1622.36  1641.61
                             1735.35  1752.06  1767.39  1798.55  1808.61
                             1827.48  1856.88  1874.75  1884.30  1896.68
                             1900.52  1909.42  1914.52  1918.46  1923.38
                             1934.18  1955.23  1966.36  1988.39  2011.56
                             2022.21  2033.04  2094.07  2111.54  2123.14
                             2130.31  2134.19  2143.61  2157.83  2162.25
                             2162.97  2177.64  2383.90  2472.45  2488.65
                             4299.93  4307.52  4316.62  4330.04  4334.15
                             4340.89  4350.91  4356.76  4370.52  4370.87
                             4385.03  4386.43  4386.80  4409.73  4410.43
                             4447.14  4451.99  4460.12  4488.29  4495.11
                             4498.99  4519.02  4630.95  4634.47

 Zero-point correction=                           0.355721 (Hartree/Particle)
 Thermal correction to Energy=                    0.374701
 Thermal correction to Enthalpy=                  0.375645
 Thermal correction to Gibbs Free Energy=         0.305042
 Sum of electronic and zero-point Energies=           -660.882488
 Sum of electronic and thermal Energies=              -660.863508
 Sum of electronic and thermal Enthalpies=            -660.862564
 Sum of electronic and thermal Free Energies=         -660.933166

                     E (Thermal)             CV                S
                      KCal/Mol        Cal/Mol-Kelvin    Cal/Mol-Kelvin
 Total                  235.128             68.294            148.596
 Electronic               0.000              0.000              0.000
 Translational            0.889              2.981             42.071
 Rotational               0.889              2.981             34.350
 Vibrational            233.351             62.332             72.176
 Vibration     1          0.593              1.986              7.008
 Vibration     2          0.593              1.984              5.934
 Vibration     3          0.595              1.980              5.068
 Vibration     4          0.595              1.978              4.892
 Vibration     5          0.595              1.978              4.841
 Vibration     6          0.598              1.968              4.128
 Vibration     7          0.603              1.952              3.526
 Vibration     8          0.607              1.939              3.228
 Vibration     9          0.608              1.935              3.149
 Vibration    10          0.612              1.922              2.931
 Vibration    11          0.613              1.918              2.873
 Vibration    12          0.621              1.893              2.567
 Vibration    13          0.624              1.883              2.466
 Vibration    14          0.644              1.820              2.014
 Vibration    15          0.661              1.768              1.754
 Vibration    16          0.672              1.735              1.622
 Vibration    17          0.684              1.697              1.490
 Vibration    18          0.690              1.680              1.435
 Vibration    19          0.716              1.606              1.237
 Vibration    20          0.739              1.543              1.098
 Vibration    21          0.766              1.469              0.961
 Vibration    22          0.790              1.407              0.862
 Vibration    23          0.800              1.382              0.825
 Vibration    24          0.833              1.303              0.720
 Vibration    25          0.888              1.177              0.581

 Optimization completed.
    -- Stationary point found.
 Normal termination of Gaussian 16 at Sun May 28 16:08:34 2023.
