 Gaussian 16, Revision A.03,
 Gaussian 16:  ES64L-G16RevA.03 25-Dec-2016

 -----------------------------
 # opt freq b3lyp/6-31g(2df,p)
 -----------------------------

 -------------------
 Title Card Required
 -------------------
 Symbolic Z-matrix:
 Charge =  0 Multiplicity = 1

 SCF Done:  E(RB3LYP) =  -733.022884595     A.U. after   14 cycles
 SCF Done:  E(RB3LYP) =  -733.032900846     A.U. after   13 cycles
 SCF Done:  E(RB3LYP) =  -733.031971238     A.U. after   13 cycles
 SCF Done:  E(RB3LYP) =  -733.033179659     A.U. after   12 cycles
 SCF Done:  E(RB3LYP) =  -733.035219795     A.U. after   11 cycles
 SCF Done:  E(RB3LYP) =  -733.035529426     A.U. after   11 cycles
 SCF Done:  E(RB3LYP) =  -733.035960074     A.U. after   13 cycles
 SCF Done:  E(RB3LYP) =  -733.036164402     A.U. after   13 cycles
 SCF Done:  E(RB3LYP) =  -733.036345029     A.U. after   11 cycles
 SCF Done:  E(RB3LYP) =  -733.036456228     A.U. after   12 cycles
 SCF Done:  E(RB3LYP) =  -733.039641917     A.U. after    6 cycles
 SCF Done:  E(RB3LYP) =  -733.039635795     A.U. after   10 cycles
 SCF Done:  E(RB3LYP) =  -733.039640257     A.U. after   10 cycles
 SCF Done:  E(RB3LYP) =  -733.039641523     A.U. after   10 cycles
 SCF Done:  E(RB3LYP) =  -733.039641849     A.U. after    8 cycles
 SCF Done:  E(RB3LYP) =  -733.039639656     A.U. after    9 cycles
 SCF Done:  E(RB3LYP) =  -733.039641944     A.U. after    9 cycles
 SCF Done:  E(RB3LYP) =  -733.039641862     A.U. after    8 cycles
 SCF Done:  E(RB3LYP) =  -733.039641978     A.U. after    7 cycles
 Optimization completed.
    -- Stationary point found.
 Normal termination of Gaussian 16 at Sun May 28 10:14:26 2023.

 ----------------------------------------------------------------------
 #N Geom=AllCheck Guess=TCheck SCRF=Check GenChk RB3LYP/6-31G(2df,p) Fr
 eq
 ----------------------------------------------------------------------

 Structure from the checkpoint file:  "CdCCCOCCCqCdOrCOC1dCCC1.chk"
 -------------------
 Title Card Required
 -------------------
 Charge =  0 Multiplicity = 1

                         Standard orientation:
 ---------------------------------------------------------------------
 Center     Atomic      Atomic             Coordinates (Angstroms)
 Number     Number       Type             X           Y           Z
 ---------------------------------------------------------------------
      1          6           0        7.456978   -0.794952    0.514219
      2          6           0        6.504594   -0.190610   -0.188867
      3          6           0        5.128497   -0.739097   -0.434458
      4          6           0        4.035170    0.157468    0.147054
      5          8           0        2.779603   -0.382683   -0.208842
      6          6           0        1.690131    0.367058    0.280674
      7          6           0        0.408207   -0.319728   -0.178669
      8          6           0       -0.869714    0.430073    0.256953
      9          6           0       -1.013429    1.700040   -0.567981
     10          8           0       -0.640984    2.789993   -0.222727
     11          6           0       -2.100814   -0.449199    0.074264
     12          8           0       -3.232715    0.313659    0.483556
     13          6           0       -4.445515   -0.229443    0.253882
     14          6           0       -5.672572    0.105009    0.672756
     15          6           0       -6.330874   -1.009333   -0.124205
     16          6           0       -4.886902   -1.394631   -0.611247
     17          1           0        8.434553   -0.347119    0.658049
     18          1           0        7.298606   -1.768884    0.969388
     19          1           0        6.709373    0.786145   -0.627608
     20          1           0        5.033701   -1.742806   -0.007007
     21          1           0        4.943288   -0.829364   -1.513134
     22          1           0        4.134578    1.185513   -0.241768
     23          1           0        4.135293    0.216603    1.243468
     24          1           0        1.731860    1.404187   -0.087963
     25          1           0        1.717544    0.418570    1.382689
     26          1           0        0.390225   -1.337341    0.228002
     27          1           0        0.434734   -0.422374   -1.271002
     28          1           0       -0.788996    0.727217    1.308150
     29          1           0       -1.463264    1.537245   -1.576741
     30          1           0       -2.013851   -1.361262    0.678792
     31          1           0       -2.205940   -0.750801   -0.977790
     32          1           0       -6.062445    0.879673    1.317732
     33          1           0       -7.001136   -0.694885   -0.931687
     34          1           0       -6.830084   -1.790855    0.458794
     35          1           0       -4.723097   -1.284725   -1.688774
     36          1           0       -4.544706   -2.388408   -0.303720
 ---------------------------------------------------------------------

 SCF Done:  E(RB3LYP) =  -733.039641978     A.U. after    1 cycles

 The electronic state is 1-A.
 Alpha  occ. eigenvalues --  -19.17654 -19.14349 -19.14260 -10.27452 -10.25299
 Alpha  occ. eigenvalues --  -10.23370 -10.23317 -10.23032 -10.20820 -10.20255
 Alpha  occ. eigenvalues --  -10.19390 -10.18890 -10.18831 -10.18639 -10.17720
 Alpha  occ. eigenvalues --  -10.16701  -1.07112  -1.05061  -1.03740  -0.85530
 Alpha  occ. eigenvalues --   -0.82722  -0.80062  -0.75304  -0.71457  -0.67584
 Alpha  occ. eigenvalues --   -0.65031  -0.63251  -0.62355  -0.60982  -0.57836
 Alpha  occ. eigenvalues --   -0.55626  -0.54512  -0.50635  -0.50236  -0.49425
 Alpha  occ. eigenvalues --   -0.48794  -0.47954  -0.47092  -0.45840  -0.44463
 Alpha  occ. eigenvalues --   -0.43780  -0.42986  -0.41800  -0.41321  -0.40088
 Alpha  occ. eigenvalues --   -0.38305  -0.37498  -0.36906  -0.36498  -0.36004
 Alpha  occ. eigenvalues --   -0.35421  -0.34349  -0.34260  -0.33790  -0.33327
 Alpha  occ. eigenvalues --   -0.32120  -0.31426  -0.25982  -0.25774  -0.25332
 Alpha  occ. eigenvalues --   -0.21550
 Alpha virt. eigenvalues --   -0.02573   0.01745   0.04270   0.07817   0.08987
 Alpha virt. eigenvalues --    0.09786   0.10787   0.11071   0.11533   0.12212
 Alpha virt. eigenvalues --    0.13093   0.13374   0.13738   0.14515   0.15036

 Mulliken charges:
               1
     1  C   -0.315446
     2  C    0.027052
     3  C   -0.245558
     4  C   -0.045838
     5  O   -0.250275
     6  C   -0.066376
     7  C   -0.236154
     8  C   -0.095863
     9  C    0.180503
    10  O   -0.251167
    11  C   -0.114976
    12  O   -0.262217
    13  C    0.424291
    14  C   -0.242882
    15  C   -0.234379
    16  C   -0.342278
    17  H    0.112571
    18  H    0.105005
    19  H    0.088798
    20  H    0.107249
    21  H    0.114757
    22  H    0.088780
    23  H    0.093341
    24  H    0.110216
    25  H    0.090900
    26  H    0.114574
    27  H    0.114199
    28  H    0.109563
    29  H    0.075291
    30  H    0.113518
    31  H    0.110993
    32  H    0.096677
    33  H    0.103326
    34  H    0.102440
    35  H    0.110288
    36  H    0.109077
 Sum of Mulliken charges =  -0.00000

 Dipole moment (field-independent basis, Debye):
    X=              0.3414    Y=             -2.5764    Z=             -0.4611  Tot=              2.6395
 Quadrupole moment (field-independent basis, Debye-Ang):
   XX=            -95.0233   YY=           -104.6720   ZZ=            -95.4086
   XY=              6.5657   XZ=              3.7748   YZ=             -1.3917

  Exact polarizability: 212.533  -1.031 131.787   6.458   0.436 116.467
 Approx polarizability: 241.213  -5.163 205.929   8.328   2.789 186.239

                      1                      2                      3
                      A                      A                      A
 Frequencies --     18.0014                21.9911                31.8601
 Red. masses --      3.8465                 3.1242                 3.2621
 Frc consts  --      0.0007                 0.0009                 0.0020
 IR Inten    --      0.1251                 0.1384                 1.1488

                      4                      5                      6
                      A                      A                      A
 Frequencies --     34.8762                43.2118                60.1077
 Red. masses --      2.7699                 4.1882                 6.0562
 Frc consts  --      0.0020                 0.0046                 0.0129
 IR Inten    --      1.3015                 0.2892                 5.0574

                      7                      8                      9
                      A                      A                      A
 Frequencies --     78.9050                85.3427               108.5138
 Red. masses --      3.3496                 3.3379                 2.6360
 Frc consts  --      0.0123                 0.0143                 0.0183
 IR Inten    --      2.0920                 0.2828                 0.1895

                     10                     11                     12
                      A                      A                      A
 Frequencies --    125.5406               135.4707               154.0301
 Red. masses --      2.5603                 2.5289                 3.1762
 Frc consts  --      0.0238                 0.0273                 0.0444
 IR Inten    --      6.1936                 2.7070                 2.4033

                     13                     14                     15
                      A                      A                      A
 Frequencies --    174.1465               205.1633               229.6705
 Red. masses --      4.3756                 3.5780                 2.3820
 Frc consts  --      0.0782                 0.0887                 0.0740
 IR Inten    --      0.5197                 0.2481                 0.7871

                     16                     17                     18
                      A                      A                      A
 Frequencies --    254.6685               284.6482               336.3918
 Red. masses --      2.3876                 2.7799                 2.4773
 Frc consts  --      0.0912                 0.1327                 0.1652
 IR Inten    --      1.5284                 1.7346                 5.1115

                     19                     20                     21
                      A                      A                      A
 Frequencies --    380.2981               404.6628               460.0172
 Red. masses --      3.4884                 2.7127                 2.3411
 Frc consts  --      0.2973                 0.2617                 0.2919
 IR Inten    --      0.5021                 2.5058                 1.4009

                     22                     23                     24
                      A                      A                      A
 Frequencies --    473.4303               491.9184               521.4516
 Red. masses --      2.4651                 3.6755                 3.6552
 Frc consts  --      0.3255                 0.5240                 0.5856
 IR Inten    --      0.2367                 7.1395                12.3760

                     25                     26                     27
                      A                      A                      A
 Frequencies --    588.3728               658.0812               714.2505
 Red. masses --      3.4923                 1.5737                 5.3025
 Frc consts  --      0.7123                 0.4015                 1.5938
 IR Inten    --      4.3507                 9.3725                16.4658

                     28                     29                     30
                      A                      A                      A
 Frequencies --    782.6745               789.3089               809.3048
 Red. masses --      1.3975                 1.1999                 1.1663
 Frc consts  --      0.5044                 0.4404                 0.4501
 IR Inten    --     21.4352                 7.0376                 1.9368

                     31                     32                     33
                      A                      A                      A
 Frequencies --    873.2474               874.4758               889.1134
 Red. masses --      1.1890                 1.7191                 2.9462
 Frc consts  --      0.5342                 0.7745                 1.3722
 IR Inten    --     15.8573                 6.3549                 2.8500

                     34                     35                     36
                      A                      A                      A
 Frequencies --    930.6720               941.6734               952.9155
 Red. masses --      2.2965                 1.8662                 1.3690
 Frc consts  --      1.1719                 0.9750                 0.7324
 IR Inten    --     10.3394                 3.2440                28.5009

                     37                     38                     39
                      A                      A                      A
 Frequencies --    956.6119               977.0942               992.4826
 Red. masses --      1.7898                 3.0549                 1.7048
 Frc consts  --      0.9650                 1.7184                 0.9894
 IR Inten    --      3.6017                 6.7877                 4.9921

                     40                     41                     42
                      A                      A                      A
 Frequencies --   1007.4243              1028.7881              1039.7652
 Red. masses --      1.5513                 2.7041                 2.3495
 Frc consts  --      0.9276                 1.6862                 1.4966
 IR Inten    --      8.4514                21.5513                11.9998

                     43                     44                     45
                      A                      A                      A
 Frequencies --   1044.3708              1048.0507              1071.7346
 Red. masses --      1.6961                 1.4501                 3.6466
 Frc consts  --      1.0899                 0.9385                 2.4678
 IR Inten    --      0.5829                24.0341                60.6414

                     46                     47                     48
                      A                      A                      A
 Frequencies --   1076.0403              1093.8825              1111.9064
 Red. masses --      3.7294                 1.1845                 3.3029
 Frc consts  --      2.5442                 0.8351                 2.4059
 IR Inten    --     29.6627                 1.1646                35.3207

                     49                     50                     51
                      A                      A                      A
 Frequencies --   1139.5331              1157.7891              1160.0388
 Red. masses --      3.0558                 1.9678                 6.7291
 Frc consts  --      2.3379                 1.5542                 5.3352
 IR Inten    --     31.1748                 7.8691               306.6972

                     52                     53                     54
                      A                      A                      A
 Frequencies --   1168.6685              1183.5448              1193.9824
 Red. masses --      1.1761                 1.9434                 1.5165
 Frc consts  --      0.9464                 1.6039                 1.2738
 IR Inten    --      0.4338                 5.8734                 4.6219

                     55                     56                     57
                      A                      A                      A
 Frequencies --   1219.3930              1223.3700              1246.1073
 Red. masses --      1.3890                 1.3801                 1.3059
 Frc consts  --      1.2168                 1.2170                 1.1947
 IR Inten    --      8.5503                 4.4000                 5.4922

                     58                     59                     60
                      A                      A                      A
 Frequencies --   1247.3391              1262.5100              1275.0535
 Red. masses --      1.1988                 2.1747                 1.2142
 Frc consts  --      1.0990                 2.0423                 1.1630
 IR Inten    --      2.1296                87.5844                 1.3355

                     61                     62                     63
                      A                      A                      A
 Frequencies --   1296.5844              1306.1120              1309.5277
 Red. masses --      1.2832                 1.1257                 1.1409
 Frc consts  --      1.2710                 1.1315                 1.1527
 IR Inten    --      6.3257                 7.5978                 1.2812

                     64                     65                     66
                      A                      A                      A
 Frequencies --   1323.8535              1332.7138              1341.9360
 Red. masses --      3.8946                 1.2529                 1.3797
 Frc consts  --      4.0216                 1.3111                 1.4639
 IR Inten    --    328.9665                 0.4043                 4.7464

                     67                     68                     69
                      A                      A                      A
 Frequencies --   1354.5166              1401.0549              1410.1113
 Red. masses --      1.3396                 1.3374                 1.3850
 Frc consts  --      1.4481                 1.5468                 1.6225
 IR Inten    --      3.4221                41.4548                36.6680

                     70                     71                     72
                      A                      A                      A
 Frequencies --   1427.9000              1454.0724              1457.0204
 Red. masses --      1.2156                 1.3746                 1.2423
 Frc consts  --      1.4603                 1.7124                 1.5539
 IR Inten    --      7.6889                 3.3646                 1.1335

                     73                     74                     75
                      A                      A                      A
 Frequencies --   1473.7136              1486.4434              1492.2817
 Red. masses --      1.0926                 1.1052                 1.0852
 Frc consts  --      1.3981                 1.4387                 1.4239
 IR Inten    --      0.3156                 2.6910                 2.7822

                     76                     77                     78
                      A                      A                      A
 Frequencies --   1497.3630              1513.8797              1517.2119
 Red. masses --      1.1430                 1.0827                 1.0870
 Frc consts  --      1.5099                 1.4620                 1.4743
 IR Inten    --      4.6209                 4.3870                12.3817

                     79                     80                     81
                      A                      A                      A
 Frequencies --   1537.1145              1719.6005              1719.7851
 Red. masses --      1.0927                 5.2386                 6.3548
 Frc consts  --      1.5211                 9.1268                11.0740
 IR Inten    --      1.1282                89.3707               142.8491

                     82                     83                     84
                      A                      A                      A
 Frequencies --   1837.1532              2846.5957              2950.8899
 Red. masses --     10.5126                 1.0818                 1.0567
 Frc consts  --     20.9051                 5.1646                 5.4216
 IR Inten    --    150.5607                97.2721                23.5798

                     85                     86                     87
                      A                      A                      A
 Frequencies --   2962.0549              2984.7182              2998.6749
 Red. masses --      1.0611                 1.1030                 1.0969
 Frc consts  --      5.4852                 5.7895                 5.8114
 IR Inten    --     55.6494                46.8891                23.2187

                     88                     89                     90
                      A                      A                      A
 Frequencies --   2999.2631              3023.3308              3028.9107
 Red. masses --      1.0564                 1.0628                 1.0599
 Frc consts  --      5.5987                 5.7235                 5.7291
 IR Inten    --     19.9022                23.3675                20.6063

                     91                     92                     93
                      A                      A                      A
 Frequencies --   3031.5696              3039.1042              3041.1564
 Red. masses --      1.0550                 1.0581                 1.1027
 Frc consts  --      5.7125                 5.7577                 6.0086
 IR Inten    --     75.6657                43.7785                18.4007

                     94                     95                     96
                      A                      A                      A
 Frequencies --   3062.2462              3069.0375              3075.6336
 Red. masses --      1.0899                 1.1080                 1.0996
 Frc consts  --      6.0219                 6.1491                 6.1284
 IR Inten    --      8.9389                 7.5427                32.7266

                     97                     98                     99
                      A                      A                      A
 Frequencies --   3079.2439              3086.2272              3127.4358
 Red. masses --      1.0984                 1.1062                 1.0806
 Frc consts  --      6.1364                 6.2081                 6.2273
 IR Inten    --     18.3311                50.1178                23.5983

                    100                    101                    102
                      A                      A                      A
 Frequencies --   3142.7176              3223.8140              3228.0433
 Red. masses --      1.0696                 1.1143                 1.1004
 Frc consts  --      6.2240                 6.8231                 6.7561
 IR Inten    --      4.8896                16.4428                 7.4956

 - Thermochemistry -
 -------------------
 Temperature   298.150 Kelvin.  Pressure   1.00000 Atm.
 Atom     1 has atomic number  6 and mass  12.00000

 Molecular mass:   224.14124 amu.
 Principal axes and moments of inertia in atomic units:
                           1         2         3
     Eigenvalues --  1074.97474********************
           X            0.99999   0.00394   0.00350
           Y           -0.00397   0.99995   0.00880
           Z           -0.00346  -0.00881   0.99996
 This molecule is an asymmetric top.
 Rotational symmetry number  1.
 Warning -- assumption of classical behavior for rotation
           may cause significant error
 Rotational temperatures (Kelvin)      0.08057     0.00609     0.00579
 Rotational constants (GHZ):           1.67887     0.12686     0.12071
 Zero-point vibrational energy     807805.3 (Joules/Mol)
                                  193.07011 (Kcal/Mol)
 Warning -- explicit consideration of  25 degrees of freedom as
           vibrations may cause significant error
 Vibrational temperatures:     25.90    31.64    45.84    50.18    62.17
          (Kelvin)             86.48   113.53   122.79   156.13   180.62
                              194.91   221.61   250.56   295.18   330.44
                              366.41   409.55   483.99   547.16   582.22
                              661.86   681.16   707.76   750.25   846.54
                              946.83  1027.65  1126.09  1135.64  1164.41
                             1256.41  1258.18  1279.24  1339.03  1354.86
                             1371.03  1376.35  1405.82  1427.96  1449.46
                             1480.20  1495.99  1502.62  1507.91  1541.99
                             1548.18  1573.85  1599.79  1639.53  1665.80
                             1669.04  1681.45  1702.86  1717.87  1754.43
                             1760.16  1792.87  1794.64  1816.47  1834.52
                             1865.50  1879.20  1884.12  1904.73  1917.48
                             1930.75  1948.85  2015.81  2028.84  2054.43
                             2092.09  2096.33  2120.35  2138.66  2147.06
                             2154.37  2178.14  2182.93  2211.56  2474.12
                             2474.39  2643.25  4095.62  4245.67  4261.74
                             4294.34  4314.42  4315.27  4349.90  4357.93
                             4361.75  4372.59  4375.55  4405.89  4415.66
                             4425.15  4430.35  4440.39  4499.68  4521.67
                             4638.35  4644.43

 Zero-point correction=                           0.307677 (Hartree/Particle)
 Thermal correction to Energy=                    0.326190
 Thermal correction to Enthalpy=                  0.327134
 Thermal correction to Gibbs Free Energy=         0.256138
 Sum of electronic and zero-point Energies=           -732.731965
 Sum of electronic and thermal Energies=              -732.713452
 Sum of electronic and thermal Enthalpies=            -732.712508
 Sum of electronic and thermal Free Energies=         -732.783504

                     E (Thermal)             CV                S
                      KCal/Mol        Cal/Mol-Kelvin    Cal/Mol-Kelvin
 Total                  204.687             64.362            149.425
 Electronic               0.000              0.000              0.000
 Translational            0.889              2.981             42.124
 Rotational               0.889              2.981             33.791
 Vibrational            202.910             58.401             73.510
 Vibration     1          0.593              1.986              6.843
 Vibration     2          0.593              1.985              6.446
 Vibration     3          0.594              1.983              5.710
 Vibration     4          0.594              1.983              5.531
 Vibration     5          0.595              1.980              5.106
 Vibration     6          0.597              1.973              4.454
 Vibration     7          0.600              1.963              3.918
 Vibration     8          0.601              1.959              3.764
 Vibration     9          0.606              1.942              3.295
 Vibration    10          0.610              1.928              3.013
 Vibration    11          0.613              1.918              2.867
 Vibration    12          0.620              1.898              2.622
 Vibration    13          0.627              1.874              2.390
 Vibration    14          0.640              1.833              2.086
 Vibration    15          0.652              1.796              1.882
 Vibration    16          0.665              1.755              1.698
 Vibration    17          0.683              1.702              1.506
 Vibration    18          0.717              1.603              1.229
 Vibration    19          0.750              1.512              1.038
 Vibration    20          0.770              1.460              0.946
 Vibration    21          0.818              1.339              0.766
 Vibration    22          0.830              1.309              0.728
 Vibration    23          0.848              1.268              0.679
 Vibration    24          0.876              1.202              0.607
 Vibration    25          0.946              1.057              0.470

 Optimization completed.
    -- Stationary point found.
 Normal termination of Gaussian 16 at Sun May 28 12:31:38 2023.
