 Gaussian 16, Revision A.03,
 Gaussian 16:  ES64L-G16RevA.03 25-Dec-2016

 -----------------------------
 # opt freq b3lyp/6-31g(2df,p)
 -----------------------------

 -------------------
 Title Card Required
 -------------------
 Symbolic Z-matrix:
 Charge =  0 Multiplicity = 1

 SCF Done:  E(RB3LYP) =  -503.969325218     A.U. after   13 cycles
 SCF Done:  E(RB3LYP) =  -503.976330889     A.U. after   12 cycles
 SCF Done:  E(RB3LYP) =  -503.977814302     A.U. after   11 cycles
 SCF Done:  E(RB3LYP) =  -503.978422975     A.U. after   11 cycles
 SCF Done:  E(RB3LYP) =  -503.978629446     A.U. after   11 cycles
 SCF Done:  E(RB3LYP) =  -503.979030646     A.U. after   11 cycles
 SCF Done:  E(RB3LYP) =  -503.978147871     A.U. after   14 cycles
 SCF Done:  E(RB3LYP) =  -503.980904337     A.U. after   12 cycles
 SCF Done:  E(RB3LYP) =  -503.967299031     A.U. after   12 cycles
 SCF Done:  E(RB3LYP) =  -503.982730932     A.U. after   12 cycles
 SCF Done:  E(RB3LYP) =  -503.983438802     A.U. after   12 cycles
 SCF Done:  E(RB3LYP) =  -503.983694945     A.U. after   11 cycles
 SCF Done:  E(RB3LYP) =  -503.983769266     A.U. after    9 cycles
 SCF Done:  E(RB3LYP) =  -503.983867792     A.U. after   10 cycles
 SCF Done:  E(RB3LYP) =  -503.983914503     A.U. after   11 cycles
 SCF Done:  E(RB3LYP) =  -503.983936069     A.U. after    9 cycles
 SCF Done:  E(RB3LYP) =  -503.983938925     A.U. after    9 cycles
 SCF Done:  E(RB3LYP) =  -503.983940100     A.U. after    8 cycles
 SCF Done:  E(RB3LYP) =  -503.983940194     A.U. after    7 cycles
 Optimization completed.
    -- Stationary point found.
 Normal termination of Gaussian 16 at Mon May 29 23:17:49 2023.

 ----------------------------------------------------------------------
 #N Geom=AllCheck Guess=TCheck SCRF=Check GenChk RB3LYP/6-31G(2df,p) Fr
 eq
 ----------------------------------------------------------------------

 Structure from the checkpoint file:  "CdCCC1dCCCqOCrCdCC1.chk"
 -------------------
 Title Card Required
 -------------------
 Charge =  0 Multiplicity = 1

                         Standard orientation:
 ---------------------------------------------------------------------
 Center     Atomic      Atomic             Coordinates (Angstroms)
 Number     Number       Type             X           Y           Z
 ---------------------------------------------------------------------
      1          6           0       -4.268568    0.819277    0.080720
      2          6           0       -3.386740   -0.138941   -0.188845
      3          6           0       -2.346976   -0.665608    0.767560
      4          6           0       -0.925444   -0.472813    0.259798
      5          6           0       -0.199014   -1.536654   -0.094152
      6          6           0        1.217769   -1.648813   -0.596173
      7          6           0        2.112275   -0.408315   -0.529826
      8          8           0        2.328953   -0.128401    0.851695
      9          6           0        3.337121    0.828284    1.086621
     10          6           0        1.530024    0.766663   -1.291617
     11          6           0        0.395826    1.369829   -0.943369
     12          6           0       -0.462092    0.975578    0.237152
     13          1           0       -4.993613    1.155147   -0.653349
     14          1           0       -4.306303    1.301192    1.054188
     15          1           0       -3.379081   -0.597738   -1.177131
     16          1           0       -2.520807   -1.735380    0.937759
     17          1           0       -2.466694   -0.163266    1.737239
     18          1           0       -0.687608   -2.507743   -0.009352
     19          1           0        1.201177   -1.995290   -1.640001
     20          1           0        1.718539   -2.444981   -0.028719
     21          1           0        3.081538   -0.673640   -0.984120
     22          1           0        3.448909    0.919218    2.169991
     23          1           0        3.080047    1.812548    0.670567
     24          1           0        4.301581    0.512056    0.656939
     25          1           0        2.076942    1.113187   -2.164830
     26          1           0        0.045165    2.210818   -1.537493
     27          1           0       -1.346707    1.618083    0.261092
     28          1           0        0.090200    1.172081    1.166446
 ---------------------------------------------------------------------

 SCF Done:  E(RB3LYP) =  -503.983940194     A.U. after    1 cycles

 The electronic state is 1-A.
 Alpha  occ. eigenvalues --  -19.13426 -10.23000 -10.21745 -10.18359 -10.18222
 Alpha  occ. eigenvalues --  -10.18158 -10.18128 -10.18125 -10.17770 -10.17266
 Alpha  occ. eigenvalues --  -10.17222 -10.17013  -1.02560  -0.82821  -0.79133
 Alpha  occ. eigenvalues --   -0.75988  -0.75045  -0.68526  -0.67746  -0.64154
 Alpha  occ. eigenvalues --   -0.61430  -0.55087  -0.52694  -0.50457  -0.50130
 Alpha  occ. eigenvalues --   -0.47209  -0.46135  -0.44656  -0.43863  -0.42644
 Alpha  occ. eigenvalues --   -0.41851  -0.41710  -0.39525  -0.38357  -0.37407
 Alpha  occ. eigenvalues --   -0.36023  -0.34984  -0.34273  -0.34042  -0.32080
 Alpha  occ. eigenvalues --   -0.30123  -0.25606  -0.25086  -0.24132  -0.22744
 Alpha virt. eigenvalues --    0.00701   0.01663   0.04804   0.08380   0.11698
 Alpha virt. eigenvalues --    0.11848   0.12686   0.13368   0.14106   0.14901
 Alpha virt. eigenvalues --    0.15815   0.16471   0.16877   0.17503   0.17657

 Mulliken charges:
               1
     1  C   -0.320080
     2  C    0.045110
     3  C   -0.332715
     4  C    0.303474
     5  C   -0.123259
     6  C   -0.277637
     7  C    0.061630
     8  O   -0.240005
     9  C   -0.233326
    10  C   -0.077952
    11  C   -0.053207
    12  C   -0.350454
    13  H    0.109946
    14  H    0.102750
    15  H    0.089743
    16  H    0.106076
    17  H    0.099708
    18  H    0.070645
    19  H    0.107621
    20  H    0.109606
    21  H    0.058735
    22  H    0.122995
    23  H    0.109717
    24  H    0.098958
    25  H    0.082969
    26  H    0.091973
    27  H    0.102896
    28  H    0.134083
 Sum of Mulliken charges =  -0.00000

 Dipole moment (field-independent basis, Debye):
    X=              0.6012    Y=              0.4161    Z=             -0.5933  Tot=              0.9416
 Quadrupole moment (field-independent basis, Debye-Ang):
   XX=            -70.1082   YY=            -71.0205   ZZ=            -72.3291
   XY=              0.1925   XZ=             -1.2095   YZ=              1.5992

  Exact polarizability: 148.468 -19.148 114.395  -6.381   4.327  96.143
 Approx polarizability: 192.493 -39.585 180.997 -15.382  12.571 148.301

                      1                      2                      3
                      A                      A                      A
 Frequencies --     41.4750                53.3637                76.4252
 Red. masses --      3.5848                 2.8819                 2.9397
 Frc consts  --      0.0036                 0.0048                 0.0101
 IR Inten    --      0.1175                 0.0651                 0.1581

                      4                      5                      6
                      A                      A                      A
 Frequencies --    105.8163               141.4177               187.9128
 Red. masses --      2.6836                 2.2424                 1.9055
 Frc consts  --      0.0177                 0.0264                 0.0396
 IR Inten    --      0.5666                 2.9020                 0.5269

                      7                      8                      9
                      A                      A                      A
 Frequencies --    208.0261               251.1565               274.5787
 Red. masses --      1.4794                 2.6836                 2.8135
 Frc consts  --      0.0377                 0.0997                 0.1250
 IR Inten    --      3.0706                 2.5636                 0.3077

                     10                     11                     12
                      A                      A                      A
 Frequencies --    298.9497               313.0051               363.2429
 Red. masses --      3.3593                 2.1869                 3.0476
 Frc consts  --      0.1769                 0.1262                 0.2369
 IR Inten    --      0.7358                 2.4431                 2.5413

                     13                     14                     15
                      A                      A                      A
 Frequencies --    378.8867               412.5953               463.9276
 Red. masses --      2.7694                 2.2636                 2.8478
 Frc consts  --      0.2342                 0.2270                 0.3611
 IR Inten    --      1.0017                 1.4368                 1.9141

                     16                     17                     18
                      A                      A                      A
 Frequencies --    524.7113               579.5287               617.5587
 Red. masses --      2.3271                 3.0065                 2.4488
 Frc consts  --      0.3775                 0.5949                 0.5503
 IR Inten    --      3.0623                 5.2084                 5.4649

                     19                     20                     21
                      A                      A                      A
 Frequencies --    683.4233               721.0753               784.5517
 Red. masses --      1.6797                 1.9555                 3.0843
 Frc consts  --      0.4622                 0.5991                 1.1186
 IR Inten    --      4.7130                13.1028                 4.1890

                     22                     23                     24
                      A                      A                      A
 Frequencies --    820.0078               872.8048               885.8864
 Red. masses --      1.8456                 2.9692                 2.1584
 Frc consts  --      0.7312                 1.3327                 0.9980
 IR Inten    --      0.4240                 5.5663                 8.5984

                     25                     26                     27
                      A                      A                      A
 Frequencies --    890.3961               916.8185               936.3106
 Red. masses --      2.6405                 2.0683                 1.6534
 Frc consts  --      1.2334                 1.0243                 0.8540
 IR Inten    --      4.2827                 9.9923                 5.8901

                     28                     29                     30
                      A                      A                      A
 Frequencies --    947.3299               968.1349               978.4304
 Red. masses --      1.3550                 2.4028                 2.1528
 Frc consts  --      0.7164                 1.3269                 1.2142
 IR Inten    --     32.0362                 1.2246                13.0107

                     31                     32                     33
                      A                      A                      A
 Frequencies --    994.9623              1016.3752              1043.9473
 Red. masses --      1.3864                 2.4311                 1.1267
 Frc consts  --      0.8086                 1.4796                 0.7235
 IR Inten    --      1.8473                 4.2723                11.9529

                     34                     35                     36
                      A                      A                      A
 Frequencies --   1063.4056              1092.1241              1116.7992
 Red. masses --      2.3400                 1.8416                 2.3853
 Frc consts  --      1.5590                 1.2942                 1.7528
 IR Inten    --      4.4072                 5.3832                14.0961

                     37                     38                     39
                      A                      A                      A
 Frequencies --   1141.5604              1150.6964              1183.0365
 Red. masses --      5.6941                 1.9625                 1.2853
 Frc consts  --      4.3719                 1.5310                 1.0599
 IR Inten    --    160.1582                 1.4455                 2.4768

                     40                     41                     42
                      A                      A                      A
 Frequencies --   1210.7110              1226.9854              1238.8907
 Red. masses --      1.3497                 1.1801                 1.1015
 Frc consts  --      1.1657                 1.0467                 0.9961
 IR Inten    --      7.0300                 3.1524                 1.3393

                     43                     44                     45
                      A                      A                      A
 Frequencies --   1243.9112              1260.7463              1309.9082
 Red. masses --      1.2052                 1.2085                 1.3563
 Frc consts  --      1.0987                 1.1317                 1.3711
 IR Inten    --      1.5460                15.3408                 8.8993

                     46                     47                     48
                      A                      A                      A
 Frequencies --   1327.2629              1334.0345              1375.7278
 Red. masses --      1.2675                 1.7256                 1.4773
 Frc consts  --      1.3155                 1.8094                 1.6473
 IR Inten    --      0.7438                 4.1036                 5.1661

                     49                     50                     51
                      A                      A                      A
 Frequencies --   1382.5911              1388.7188              1404.8304
 Red. masses --      1.2001                 1.4142                 1.5140
 Frc consts  --      1.3517                 1.6069                 1.7604
 IR Inten    --     26.0087                 1.4965                 2.7988

                     52                     53                     54
                      A                      A                      A
 Frequencies --   1421.6010              1451.3576              1457.2060
 Red. masses --      1.4670                 1.1689                 1.0943
 Frc consts  --      1.7468                 1.4507                 1.3691
 IR Inten    --      3.2497                 1.9889                 2.3473

                     55                     56                     57
                      A                      A                      A
 Frequencies --   1463.8043              1474.1278              1478.6687
 Red. masses --      1.0945                 1.1070                 1.1511
 Frc consts  --      1.3817                 1.4173                 1.4829
 IR Inten    --      3.7583                 5.1418                 0.8163

                     58                     59                     60
                      A                      A                      A
 Frequencies --   1484.3161              1512.1930              1708.1484
 Red. masses --      1.0500                 1.0534                 4.8459
 Frc consts  --      1.3630                 1.4192                 8.3305
 IR Inten    --      2.7095                 5.1461                 8.0036

                     61                     62                     63
                      A                      A                      A
 Frequencies --   1724.8039              1743.1660              2954.7344
 Red. masses --      6.5693                 7.0309                 1.0810
 Frc consts  --     11.5147                12.5874                 5.5603
 IR Inten    --      6.2039                 0.7738                40.0772

                     64                     65                     66
                      A                      A                      A
 Frequencies --   2972.2720              3002.8036              3007.3057
 Red. masses --      1.0432                 1.0628                 1.0591
 Frc consts  --      5.4298                 5.6464                 5.6435
 IR Inten    --     88.9154                46.1885                20.5185

                     67                     68                     69
                      A                      A                      A
 Frequencies --   3015.3695              3029.6641              3031.8464
 Red. masses --      1.0668                 1.0961                 1.0974
 Frc consts  --      5.7151                 5.9276                 5.9433
 IR Inten    --     17.3163                32.4049                28.0899

                     70                     71                     72
                      A                      A                      A
 Frequencies --   3051.5206              3079.4141              3110.7094
 Red. masses --      1.1012                 1.0921                 1.0970
 Frc consts  --      6.0417                 6.1018                 6.2541
 IR Inten    --     15.9742                12.8811                26.8129

                     73                     74                     75
                      A                      A                      A
 Frequencies --   3113.3991              3131.5470              3139.2491
 Red. masses --      1.0868                 1.0702                 1.0836
 Frc consts  --      6.2066                 6.1832                 6.2918
 IR Inten    --     33.3874                17.1062                 6.1509

                     76                     77                     78
                      A                      A                      A
 Frequencies --   3141.8060              3164.3868              3220.3558
 Red. masses --      1.0799                 1.0971                 1.1142
 Frc consts  --      6.2805                 6.4723                 6.8079
 IR Inten    --      5.5109                33.3454                16.8750

 - Thermochemistry -
 -------------------
 Temperature   298.150 Kelvin.  Pressure   1.00000 Atm.
 Atom     1 has atomic number  6 and mass  12.00000

 Molecular mass:   164.12012 amu.
 Principal axes and moments of inertia in atomic units:
                           1         2         3
     Eigenvalues --   945.097213513.966753759.97629
           X            1.00000  -0.00024  -0.00180
           Y            0.00032   0.99908   0.04282
           Z            0.00179  -0.04282   0.99908
 This molecule is an asymmetric top.
 Rotational symmetry number  1.
 Warning -- assumption of classical behavior for rotation
           may cause significant error
 Rotational temperatures (Kelvin)      0.09165     0.02465     0.02304
 Rotational constants (GHZ):           1.90958     0.51359     0.47999
 Zero-point vibrational energy     641741.2 (Joules/Mol)
                                  153.37983 (Kcal/Mol)
 Warning -- explicit consideration of  18 degrees of freedom as
           vibrations may cause significant error
 Vibrational temperatures:     59.67    76.78   109.96   152.25   203.47
          (Kelvin)            270.36   299.30   361.36   395.06   430.12
                              450.34   522.63   545.13   593.63   667.49
                              754.94   833.81   888.53   983.29  1037.47
                             1128.79  1179.81  1255.77  1274.59  1281.08
                             1319.10  1347.14  1363.00  1392.93  1407.74
                             1431.53  1462.34  1502.01  1530.00  1571.32
                             1606.82  1642.45  1655.60  1702.13  1741.94
                             1765.36  1782.49  1789.71  1813.93  1884.67
                             1909.64  1919.38  1979.37  1989.24  1998.06
                             2021.24  2045.37  2088.18  2096.59  2106.09
                             2120.94  2127.47  2135.60  2175.71  2457.64
                             2481.61  2508.03  4251.20  4276.44  4320.36
                             4326.84  4338.44  4359.01  4362.15  4390.46
                             4430.59  4475.62  4479.49  4505.60  4516.68
                             4520.36  4552.85  4633.37

 Zero-point correction=                           0.244426 (Hartree/Particle)
 Thermal correction to Energy=                    0.256952
 Thermal correction to Enthalpy=                  0.257896
 Thermal correction to Gibbs Free Energy=         0.205214
 Sum of electronic and zero-point Energies=           -503.739514
 Sum of electronic and thermal Energies=              -503.726988
 Sum of electronic and thermal Enthalpies=            -503.726044
 Sum of electronic and thermal Free Energies=         -503.778726

                     E (Thermal)             CV                S
                      KCal/Mol        Cal/Mol-Kelvin    Cal/Mol-Kelvin
 Total                  161.240             47.213            110.879
 Electronic               0.000              0.000              0.000
 Translational            0.889              2.981             41.195
 Rotational               0.889              2.981             30.902
 Vibrational            159.462             41.252             38.782
 Vibration     1          0.594              1.981              5.187
 Vibration     2          0.596              1.976              4.689
 Vibration     3          0.599              1.965              3.981
 Vibration     4          0.605              1.945              3.344
 Vibration     5          0.615              1.912              2.785
 Vibration     6          0.633              1.856              2.248
 Vibration     7          0.641              1.828              2.061
 Vibration     8          0.663              1.761              1.722
 Vibration     9          0.677              1.720              1.567
 Vibration    10          0.692              1.676              1.423
 Vibration    11          0.701              1.649              1.346
 Vibration    12          0.737              1.548              1.108
 Vibration    13          0.749              1.515              1.044
 Vibration    14          0.776              1.443              0.917
 Vibration    15          0.821              1.330              0.755
 Vibration    16          0.880              1.195              0.599
 Vibration    17          0.936              1.076              0.486
 Vibration    18          0.977              0.995              0.420

 Optimization completed.
    -- Stationary point found.
 Normal termination of Gaussian 16 at Tue May 30 00:32:03 2023.
