 Gaussian 16, Revision A.03,
 Gaussian 16:  ES64L-G16RevA.03 25-Dec-2016

 -----------------------------
 # opt freq b3lyp/6-31g(2df,p)
 -----------------------------

 -------------------
 Title Card Required
 -------------------
 Symbolic Z-matrix:
 Charge =  0 Multiplicity = 1

 SCF Done:  E(RB3LYP) =  -611.305120922     A.U. after   14 cycles
 SCF Done:  E(RB3LYP) =  -611.314713969     A.U. after   12 cycles
 SCF Done:  E(RB3LYP) =  -611.318775617     A.U. after   12 cycles
 SCF Done:  E(RB3LYP) =  -611.319300113     A.U. after   12 cycles
 SCF Done:  E(RB3LYP) =  -611.319722769     A.U. after   11 cycles
 SCF Done:  E(RB3LYP) =  -611.320080132     A.U. after   12 cycles
 SCF Done:  E(RB3LYP) =  -611.320318836     A.U. after   12 cycles
 SCF Done:  E(RB3LYP) =  -611.320716307     A.U. after   12 cycles
 SCF Done:  E(RB3LYP) =  -611.321762803     A.U. after   13 cycles
 SCF Done:  E(RB3LYP) =  -611.323571740     A.U. after   13 cycles
 SCF Done:  E(RB3LYP) =  -611.330804999     A.U. after   10 cycles
 SCF Done:  E(RB3LYP) =  -611.330807875     A.U. after   10 cycles
 SCF Done:  E(RB3LYP) =  -611.330813300     A.U. after   10 cycles
 SCF Done:  E(RB3LYP) =  -611.330821949     A.U. after   11 cycles
 SCF Done:  E(RB3LYP) =  -611.330830425     A.U. after   11 cycles
 SCF Done:  E(RB3LYP) =  -611.330837078     A.U. after   10 cycles
 SCF Done:  E(RB3LYP) =  -611.330837483     A.U. after    8 cycles
 SCF Done:  E(RB3LYP) =  -611.330837503     A.U. after    6 cycles
 SCF Done:  E(RB3LYP) =  -611.330837502     A.U. after    6 cycles
 Optimization completed.
    -- Stationary point found.
 Normal termination of Gaussian 16 at Sun May 28 15:39:41 2023.

 ----------------------------------------------------------------------
 #N Geom=AllCheck Guess=TCheck SCRF=Check GenChk RB3LYP/6-31G(2df,p) Fr
 eq
 ----------------------------------------------------------------------

 Structure from the checkpoint file:  "CdCCCNqCdOrC1CNqCdOrC1.chk"
 -------------------
 Title Card Required
 -------------------
 Charge =  0 Multiplicity = 1

                         Standard orientation:
 ---------------------------------------------------------------------
 Center     Atomic      Atomic             Coordinates (Angstroms)
 Number     Number       Type             X           Y           Z
 ---------------------------------------------------------------------
      1          6           0        3.586136   -2.634496   -0.105654
      2          6           0        3.464257   -1.311083   -0.079045
      3          6           0        2.245956   -0.544440   -0.506395
      4          6           0        1.635407    0.247792    0.665624
      5          7           0        0.488138    1.072849    0.268594
      6          6           0        0.748875    2.288782   -0.294481
      7          8           0        1.856335    2.679222   -0.603472
      8          6           0       -0.818411    0.749782    0.801585
      9          6           0       -2.074429    1.217626    0.000348
     10          7           0       -2.574337   -0.154300    0.101366
     11          6           0       -3.638220   -0.793377   -0.439765
     12          8           0       -3.785002   -1.997278   -0.432634
     13          6           0       -1.326951   -0.713479    0.617335
     14          1           0        4.493883   -3.132503    0.218009
     15          1           0        2.784461   -3.274995   -0.463549
     16          1           0        4.295300   -0.706921    0.284637
     17          1           0        1.499074   -1.226095   -0.927798
     18          1           0        2.511135    0.179722   -1.284965
     19          1           0        2.399048    0.909368    1.087194
     20          1           0        1.308483   -0.435429    1.454732
     21          1           0       -0.161672    2.896641   -0.450669
     22          1           0       -0.897970    1.047889    1.854261
     23          1           0       -1.852152    1.522305   -1.028377
     24          1           0       -2.696796    1.978291    0.480253
     25          1           0       -4.372362   -0.084491   -0.874862
     26          1           0       -0.776183   -1.290950   -0.132683
     27          1           0       -1.437235   -1.310869    1.525643
 ---------------------------------------------------------------------

 SCF Done:  E(RB3LYP) =  -611.330837502     A.U. after    1 cycles

 The electronic state is 1-A.
 Alpha  occ. eigenvalues --  -19.11692 -19.11295 -14.37433 -14.36962 -10.28482
 Alpha  occ. eigenvalues --  -10.28232 -10.26063 -10.25259 -10.24219 -10.23178
 Alpha  occ. eigenvalues --  -10.19381 -10.19237 -10.18107  -1.04490  -1.04034
 Alpha  occ. eigenvalues --   -0.98108  -0.94250  -0.80952  -0.78262  -0.74164
 Alpha  occ. eigenvalues --   -0.72047  -0.66616  -0.65080  -0.57877  -0.56992
 Alpha  occ. eigenvalues --   -0.55900  -0.54839  -0.53378  -0.49769  -0.47583
 Alpha  occ. eigenvalues --   -0.46255  -0.45730  -0.44862  -0.43480  -0.42890
 Alpha  occ. eigenvalues --   -0.42085  -0.40620  -0.40298  -0.39010  -0.38631
 Alpha  occ. eigenvalues --   -0.37522  -0.36639  -0.35456  -0.34574  -0.27084
 Alpha  occ. eigenvalues --   -0.26573  -0.25895  -0.25401  -0.25033
 Alpha virt. eigenvalues --    0.00736   0.01201   0.01467   0.06284   0.07588
 Alpha virt. eigenvalues --    0.08297   0.09741   0.11086   0.11580   0.12437
 Alpha virt. eigenvalues --    0.12667   0.14099   0.15194   0.15736   0.16266

 Mulliken charges:
               1
     1  C   -0.318890
     2  C    0.029863
     3  C   -0.241533
     4  C   -0.169967
     5  N   -0.059923
     6  C    0.142581
     7  O   -0.341299
     8  C    0.000156
     9  C   -0.216078
    10  N   -0.050652
    11  C    0.136480
    12  O   -0.322878
    13  C   -0.191583
    14  H    0.115248
    15  H    0.106118
    16  H    0.096112
    17  H    0.101488
    18  H    0.140987
    19  H    0.134268
    20  H    0.115629
    21  H    0.084832
    22  H    0.106700
    23  H    0.127942
    24  H    0.130863
    25  H    0.074551
    26  H    0.133698
    27  H    0.135287
 Sum of Mulliken charges =  -0.00000

 Dipole moment (field-independent basis, Debye):
    X=             -0.3234    Y=              1.3262    Z=              1.8240  Tot=              2.2782
 Quadrupole moment (field-independent basis, Debye-Ang):
   XX=            -87.9953   YY=            -88.1681   ZZ=            -75.9302
   XY=            -20.4396   XZ=              1.9657   YZ=              1.0140

  Exact polarizability: 135.798  -0.818 132.891   5.511  -3.990  80.409
 Approx polarizability: 172.728  11.398 203.739   4.186  -7.519 127.007

                      1                      2                      3
                      A                      A                      A
 Frequencies --     25.6161                33.8793                52.0283
 Red. masses --      5.1896                 5.3471                 3.4179
 Frc consts  --      0.0020                 0.0036                 0.0055
 IR Inten    --      0.9414                 3.3692                 0.9323

                      4                      5                      6
                      A                      A                      A
 Frequencies --     70.7649               101.6769               112.4037
 Red. masses --      2.2954                 3.6623                 3.6380
 Frc consts  --      0.0068                 0.0223                 0.0271
 IR Inten    --      0.4863                 1.3804                 4.5129

                      7                      8                      9
                      A                      A                      A
 Frequencies --    138.7743               141.5030               206.9874
 Red. masses --      3.3614                 3.4517                 4.9257
 Frc consts  --      0.0381                 0.0407                 0.1243
 IR Inten    --      3.9751                 9.3424                 1.3630

                     10                     11                     12
                      A                      A                      A
 Frequencies --    222.1342               286.9185               303.1567
 Red. masses --      2.5985                 3.0008                 2.8005
 Frc consts  --      0.0755                 0.1455                 0.1516
 IR Inten    --      2.9445                 6.6254                 5.1212

                     13                     14                     15
                      A                      A                      A
 Frequencies --    316.4072               365.5550               393.4441
 Red. masses --      2.2757                 2.8832                 3.6151
 Frc consts  --      0.1342                 0.2270                 0.3297
 IR Inten    --     13.8612                 8.0308                 5.9727

                     16                     17                     18
                      A                      A                      A
 Frequencies --    437.9494               495.1257               538.2894
 Red. masses --      2.2570                 3.1491                 3.0326
 Frc consts  --      0.2550                 0.4548                 0.5177
 IR Inten    --      7.9063                 5.5960                 4.3758

                     19                     20                     21
                      A                      A                      A
 Frequencies --    628.5565               652.3627               756.7778
 Red. masses --      3.1177                 1.5901                 1.4890
 Frc consts  --      0.7257                 0.3987                 0.5024
 IR Inten    --     10.4884                 6.1033                 3.2975

                     22                     23                     24
                      A                      A                      A
 Frequencies --    797.6573               850.6765               898.3879
 Red. masses --      3.0758                 2.8702                 1.2665
 Frc consts  --      1.1530                 1.2238                 0.6023
 IR Inten    --      6.9638                21.9195                 2.1014

                     25                     26                     27
                      A                      A                      A
 Frequencies --    930.2513               947.3682               954.7569
 Red. masses --      3.3822                 1.7058                 1.3838
 Frc consts  --      1.7244                 0.9020                 0.7432
 IR Inten    --      2.8274                 1.7633                29.2700

                     28                     29                     30
                      A                      A                      A
 Frequencies --    979.4480              1006.9971              1008.9149
 Red. masses --      3.4499                 1.8475                 3.3330
 Frc consts  --      1.9499                 1.1038                 1.9989
 IR Inten    --     19.0664                 2.9398                 3.7596

                     31                     32                     33
                      A                      A                      A
 Frequencies --   1027.2441              1034.6243              1041.4832
 Red. masses --      1.8574                 1.6475                 1.6289
 Frc consts  --      1.1548                 1.0391                 1.0410
 IR Inten    --      0.4998                 1.2464                 4.7915

                     34                     35                     36
                      A                      A                      A
 Frequencies --   1048.8397              1091.4939              1145.7172
 Red. masses --      1.6430                 2.0910                 1.2098
 Frc consts  --      1.0649                 1.4677                 0.9357
 IR Inten    --     10.8863                 5.3373                 1.8735

                     37                     38                     39
                      A                      A                      A
 Frequencies --   1152.0935              1191.2374              1193.3595
 Red. masses --      1.5680                 2.1199                 1.8210
 Frc consts  --      1.2262                 1.7724                 1.5279
 IR Inten    --     10.0622                22.1471                22.9928

                     40                     41                     42
                      A                      A                      A
 Frequencies --   1222.9678              1264.0374              1288.6087
 Red. masses --      1.6257                 1.6844                 1.4201
 Frc consts  --      1.4325                 1.5857                 1.3893
 IR Inten    --     12.8239                69.4156                 2.5361

                     43                     44                     45
                      A                      A                      A
 Frequencies --   1295.4866              1296.8074              1313.8913
 Red. masses --      1.3771                 1.4405                 1.4140
 Frc consts  --      1.3617                 1.4273                 1.4382
 IR Inten    --      1.7306                 5.9286                24.4997

                     46                     47                     48
                      A                      A                      A
 Frequencies --   1326.3919              1336.0636              1376.5254
 Red. masses --      1.3798                 1.4008                 1.6856
 Frc consts  --      1.4302                 1.4733                 1.8818
 IR Inten    --     16.6043                19.8403                24.7069

                     49                     50                     51
                      A                      A                      A
 Frequencies --   1388.8486              1400.0266              1416.0125
 Red. masses --      1.3786                 1.6758                 1.3310
 Frc consts  --      1.5667                 1.9352                 1.5724
 IR Inten    --     37.7358               190.0622                 3.0067

                     52                     53                     54
                      A                      A                      A
 Frequencies --   1449.0140              1454.9437              1459.0951
 Red. masses --      2.8545                 1.1905                 1.4348
 Frc consts  --      3.5313                 1.4848                 1.7997
 IR Inten    --    146.2509                 8.0005                11.4888

                     55                     56                     57
                      A                      A                      A
 Frequencies --   1478.2861              1489.0451              1502.3479
 Red. masses --      1.2086                 1.1173                 1.0788
 Frc consts  --      1.5562                 1.4597                 1.4346
 IR Inten    --      7.6090                 9.9276                 0.2592

                     58                     59                     60
                      A                      A                      A
 Frequencies --   1521.0256              1718.2478              1784.9703
 Red. masses --      1.1116                 4.8173                 8.0996
 Frc consts  --      1.5152                 8.3796                15.2047
 IR Inten    --     23.5251                 7.9987               534.1443

                     61                     62                     63
                      A                      A                      A
 Frequencies --   1795.4579              2925.3705              2955.7076
 Red. masses --      8.6107                 1.0838                 1.0836
 Frc consts  --     16.3546                 5.4647                 5.5775
 IR Inten    --    212.4576                90.8776                85.2479

                     64                     65                     66
                      A                      A                      A
 Frequencies --   3019.2770              3034.3294              3036.2910
 Red. masses --      1.0856                 1.0570                 1.0576
 Frc consts  --      5.8305                 5.7340                 5.7448
 IR Inten    --     25.7414                46.8596                 8.9417

                     67                     68                     69
                      A                      A                      A
 Frequencies --   3048.9747              3050.8522              3078.5357
 Red. masses --      1.0587                 1.0585                 1.1023
 Frc consts  --      5.7989                 5.8046                 6.1553
 IR Inten    --     20.7608                29.6678                 1.6943

                     70                     71                     72
                      A                      A                      A
 Frequencies --   3089.8975              3103.9877              3105.3098
 Red. masses --      1.1079                 1.1078                 1.1069
 Frc consts  --      6.2324                 6.2883                 6.2890
 IR Inten    --     23.9682                31.1849                10.2931

                     73                     74                     75
                      A                      A                      A
 Frequencies --   3131.4170              3142.9197              3224.0509
 Red. masses --      1.0781                 1.0728                 1.1141
 Frc consts  --      6.2284                 6.2435                 6.8233
 IR Inten    --     21.3705                 4.0936                16.0593

 - Thermochemistry -
 -------------------
 Temperature   298.150 Kelvin.  Pressure   1.00000 Atm.
 Atom     1 has atomic number  6 and mass  12.00000

 Molecular mass:   182.10553 amu.
 Principal axes and moments of inertia in atomic units:
                           1         2         3
     Eigenvalues --  1765.157104156.763535575.47829
           X            0.99885  -0.04801   0.00151
           Y            0.04801   0.99885   0.00020
           Z           -0.00152  -0.00013   1.00000
 This molecule is an asymmetric top.
 Rotational symmetry number  1.
 Warning -- assumption of classical behavior for rotation
           may cause significant error
 Rotational temperatures (Kelvin)      0.04907     0.02084     0.01553
 Rotational constants (GHZ):           1.02243     0.43417     0.32369
 Zero-point vibrational energy     592784.8 (Joules/Mol)
                                  141.67897 (Kcal/Mol)
 Warning -- explicit consideration of  18 degrees of freedom as
           vibrations may cause significant error
 Vibrational temperatures:     36.86    48.74    74.86   101.81   146.29
          (Kelvin)            161.72   199.67   203.59   297.81   319.60
                              412.81   436.17   455.24   525.95   566.08
                              630.11   712.38   774.48   904.35   938.60
                             1088.83  1147.65  1223.93  1292.58  1338.42
                             1363.05  1373.68  1409.21  1448.84  1451.60
                             1477.98  1488.59  1498.46  1509.05  1570.42
                             1648.43  1657.61  1713.92  1716.98  1759.58
                             1818.67  1854.02  1863.92  1865.82  1890.40
                             1908.38  1922.30  1980.51  1998.24  2014.33
                             2037.33  2084.81  2093.34  2099.31  2126.92
                             2142.40  2161.54  2188.42  2472.18  2568.17
                             2583.26  4208.96  4252.60  4344.07  4365.72
                             4368.55  4386.79  4389.50  4429.33  4445.67
                             4465.95  4467.85  4505.41  4521.96  4638.69

 Zero-point correction=                           0.225780 (Hartree/Particle)
 Thermal correction to Energy=                    0.239656
 Thermal correction to Enthalpy=                  0.240600
 Thermal correction to Gibbs Free Energy=         0.182645
 Sum of electronic and zero-point Energies=           -611.105058
 Sum of electronic and thermal Energies=              -611.091182
 Sum of electronic and thermal Enthalpies=            -611.090238
 Sum of electronic and thermal Free Energies=         -611.148192

                     E (Thermal)             CV                S
                      KCal/Mol        Cal/Mol-Kelvin    Cal/Mol-Kelvin
 Total                  150.386             48.729            121.976
 Electronic               0.000              0.000              0.000
 Translational            0.889              2.981             41.505
 Rotational               0.889              2.981             32.081
 Vibrational            148.609             42.767             48.391
 Vibration     1          0.593              1.985              6.143
 Vibration     2          0.594              1.983              5.588
 Vibration     3          0.596              1.977              4.739
 Vibration     4          0.598              1.968              4.132
 Vibration     5          0.604              1.948              3.422
 Vibration     6          0.607              1.939              3.227
 Vibration     7          0.614              1.915              2.821
 Vibration     8          0.615              1.912              2.783
 Vibration     9          0.641              1.830              2.070
 Vibration    10          0.648              1.807              1.942
 Vibration    11          0.684              1.698              1.492
 Vibration    12          0.695              1.668              1.399
 Vibration    13          0.703              1.642              1.329
 Vibration    14          0.739              1.543              1.098
 Vibration    15          0.761              1.484              0.987
 Vibration    16          0.798              1.387              0.833
 Vibration    17          0.851              1.261              0.670
 Vibration    18          0.893              1.165              0.569

 Optimization completed.
    -- Stationary point found.
 Normal termination of Gaussian 16 at Sun May 28 16:51:47 2023.
