 Gaussian 16, Revision A.03,
 Gaussian 16:  ES64L-G16RevA.03 25-Dec-2016

 -----------------------------
 # opt freq b3lyp/6-31g(2df,p)
 -----------------------------

 -------------------
 Title Card Required
 -------------------
 Symbolic Z-matrix:
 Charge =  0 Multiplicity = 1

 SCF Done:  E(RB3LYP) =  -618.713024547     A.U. after   13 cycles
 SCF Done:  E(RB3LYP) =  -618.740174887     A.U. after   12 cycles
 SCF Done:  E(RB3LYP) =  -618.750508065     A.U. after   12 cycles
 SCF Done:  E(RB3LYP) =  -618.755467734     A.U. after   11 cycles
 SCF Done:  E(RB3LYP) =  -618.757325840     A.U. after   11 cycles
 SCF Done:  E(RB3LYP) =  -618.759121392     A.U. after   11 cycles
 SCF Done:  E(RB3LYP) =  -618.760476698     A.U. after   10 cycles
 SCF Done:  E(RB3LYP) =  -618.765344721     A.U. after   13 cycles
 SCF Done:  E(RB3LYP) =  -618.735763253     A.U. after   12 cycles
 SCF Done:  E(RB3LYP) =  -618.771347916     A.U. after   11 cycles
 SCF Done:  E(RB3LYP) =  -618.779399290     A.U. after    9 cycles
 SCF Done:  E(RB3LYP) =  -618.779404889     A.U. after    9 cycles
 SCF Done:  E(RB3LYP) =  -618.779405443     A.U. after    7 cycles
 SCF Done:  E(RB3LYP) =  -618.779405928     A.U. after    7 cycles
 SCF Done:  E(RB3LYP) =  -618.779406394     A.U. after    7 cycles
 SCF Done:  E(RB3LYP) =  -618.779407000     A.U. after    9 cycles
 SCF Done:  E(RB3LYP) =  -618.779407489     A.U. after    9 cycles
 SCF Done:  E(RB3LYP) =  -618.779407713     A.U. after    8 cycles
 SCF Done:  E(RB3LYP) =  -618.779407761     A.U. after    6 cycles
 Optimization completed.
    -- Stationary point found.
 Normal termination of Gaussian 16 at Wed May 24 00:52:48 2023.

 ----------------------------------------------------------------------
 #N Geom=AllCheck Guess=TCheck SCRF=Check GenChk RB3LYP/6-31G(2df,p) Fr
 eq
 ----------------------------------------------------------------------

 Structure from the checkpoint file:  "CdCCCCqCCrOCqCOrOC.chk"
 -------------------
 Title Card Required
 -------------------
 Charge =  0 Multiplicity = 1

                         Standard orientation:
 ---------------------------------------------------------------------
 Center     Atomic      Atomic             Coordinates (Angstroms)
 Number     Number       Type             X           Y           Z
 ---------------------------------------------------------------------
      1          6           0        4.477001   -1.699863   -0.165312
      2          6           0        3.729363   -0.770321   -0.751151
      3          6           0        2.735830    0.116632   -0.054512
      4          6           0        1.313787   -0.062843   -0.615082
      5          6           0        0.207733    0.727668    0.097046
      6          6           0        0.368128    2.259451    0.080523
      7          6           0        1.115434    2.842625    1.286302
      8          8           0       -1.029607    0.406147   -0.571386
      9          6           0       -1.926014   -0.392832    0.130440
     10          6           0       -3.222042   -0.377060   -0.681739
     11          8           0       -3.726779    0.934000   -0.820476
     12          8           0       -1.396755   -1.700787    0.242470
     13          6           0       -1.879647   -2.442295    1.343925
     14          1           0        5.174136   -2.312691   -0.726933
     15          1           0        4.423814   -1.884106    0.904385
     16          1           0        3.813984   -0.622052   -1.827986
     17          1           0        3.047902    1.162349   -0.177214
     18          1           0        2.748825   -0.093531    1.022287
     19          1           0        1.035505   -1.119518   -0.570467
     20          1           0        1.297079    0.221428   -1.675217
     21          1           0        0.134399    0.389084    1.140453
     22          1           0       -0.641145    2.683893    0.055926
     23          1           0        0.853713    2.567814   -0.853997
     24          1           0        0.605319    2.588267    2.222012
     25          1           0        1.158608    3.934140    1.220448
     26          1           0        2.142663    2.476957    1.361934
     27          1           0       -2.102610    0.015555    1.143960
     28          1           0       -3.989396   -0.965489   -0.169980
     29          1           0       -3.012283   -0.854280   -1.650888
     30          1           0       -2.992755    1.457337   -1.163607
     31          1           0       -1.320653   -3.380426    1.366138
     32          1           0       -2.950005   -2.676961    1.257634
     33          1           0       -1.719414   -1.909622    2.293607
 ---------------------------------------------------------------------

 SCF Done:  E(RB3LYP) =  -618.779407761     A.U. after    1 cycles

 The electronic state is 1-A.
 Alpha  occ. eigenvalues --  -19.14720 -19.14719 -19.12898 -10.27606 -10.23478
 Alpha  occ. eigenvalues --  -10.23180 -10.22115 -10.18585 -10.18427 -10.18305
 Alpha  occ. eigenvalues --  -10.17900 -10.17659 -10.17225  -1.07160  -1.01563
 Alpha  occ. eigenvalues --   -1.00607  -0.81251  -0.78241  -0.74183  -0.72638
 Alpha  occ. eigenvalues --   -0.68306  -0.67165  -0.62113  -0.60161  -0.57762
 Alpha  occ. eigenvalues --   -0.55197  -0.51893  -0.51052  -0.50086  -0.47741
 Alpha  occ. eigenvalues --   -0.45706  -0.45185  -0.43775  -0.43367  -0.42566
 Alpha  occ. eigenvalues --   -0.41485  -0.40653  -0.40482  -0.38664  -0.37503
 Alpha  occ. eigenvalues --   -0.36595  -0.35115  -0.35013  -0.34432  -0.33520
 Alpha  occ. eigenvalues --   -0.32714  -0.32131  -0.31247  -0.28290  -0.27246
 Alpha  occ. eigenvalues --   -0.25132  -0.24835
 Alpha virt. eigenvalues --    0.02327   0.07675   0.08608   0.09168   0.10720
 Alpha virt. eigenvalues --    0.11339   0.11932   0.12371   0.13495   0.13849
 Alpha virt. eigenvalues --    0.14469   0.14962   0.15603   0.16413   0.16920

 Mulliken charges:
               1
     1  C   -0.320429
     2  C    0.039361
     3  C   -0.248737
     4  C   -0.182246
     5  C    0.111170
     6  C   -0.187081
     7  C   -0.389622
     8  O   -0.276538
     9  C    0.158939
    10  C   -0.079169
    11  O   -0.420086
    12  O   -0.234252
    13  C   -0.238542
    14  H    0.109912
    15  H    0.099877
    16  H    0.086615
    17  H    0.108828
    18  H    0.095857
    19  H    0.124329
    20  H    0.099226
    21  H    0.074980
    22  H    0.103280
    23  H    0.098050
    24  H    0.116105
    25  H    0.117215
    26  H    0.124487
    27  H    0.057086
    28  H    0.104602
    29  H    0.101391
    30  H    0.288505
    31  H    0.133892
    32  H    0.114059
    33  H    0.108934
 Sum of Mulliken charges =  -0.00000

 Dipole moment (field-independent basis, Debye):
    X=              1.0954    Y=             -0.2041    Z=              1.4313  Tot=              1.8139
 Quadrupole moment (field-independent basis, Debye-Ang):
   XX=            -89.8229   YY=            -78.1071   ZZ=            -78.3514
   XY=              5.2533   XZ=             -3.8593   YZ=             -3.0153

  Exact polarizability: 136.483  -9.133 126.794   1.061  -4.494 105.775
 Approx polarizability: 167.731 -14.153 172.784   2.054 -11.320 162.493

                      1                      2                      3
                      A                      A                      A
 Frequencies --     12.0313                38.9796                60.6296
 Red. masses --      4.2534                 4.1156                 1.9372
 Frc consts  --      0.0004                 0.0037                 0.0042
 IR Inten    --      0.2734                 0.1517                 0.1018

                      4                      5                      6
                      A                      A                      A
 Frequencies --     65.4855                68.4287                87.7001
 Red. masses --      2.8075                 2.7618                 2.3845
 Frc consts  --      0.0071                 0.0076                 0.0108
 IR Inten    --      0.5393                 0.1316                 1.6068

                      7                      8                      9
                      A                      A                      A
 Frequencies --    105.4613               121.1483               143.7423
 Red. masses --      2.7885                 2.3794                 2.4843
 Frc consts  --      0.0183                 0.0206                 0.0302
 IR Inten    --      2.8037                 1.2855                 1.0622

                     10                     11                     12
                      A                      A                      A
 Frequencies --    158.9080               201.3497               212.1853
 Red. masses --      1.3484                 1.8150                 1.5760
 Frc consts  --      0.0201                 0.0434                 0.0418
 IR Inten    --      0.0337                 0.4276                 0.5170

                     13                     14                     15
                      A                      A                      A
 Frequencies --    217.0431               264.6704               293.5567
 Red. masses --      3.5302                 2.4239                 2.7670
 Frc consts  --      0.0980                 0.1000                 0.1405
 IR Inten    --      1.9531                 4.3655                 0.7217

                     16                     17                     18
                      A                      A                      A
 Frequencies --    316.9117               367.4139               386.5892
 Red. masses --      2.7906                 2.8648                 3.3430
 Frc consts  --      0.1651                 0.2279                 0.2944
 IR Inten    --      4.5455                 7.5758                 3.5643

                     19                     20                     21
                      A                      A                      A
 Frequencies --    424.8453               439.7869               484.8426
 Red. masses --      2.1698                 1.2951                 3.5646
 Frc consts  --      0.2307                 0.1476                 0.4937
 IR Inten    --      2.2421               121.5959                19.1871

                     22                     23                     24
                      A                      A                      A
 Frequencies --    499.0224               572.4422               600.3492
 Red. masses --      2.4258                 4.0146                 3.2154
 Frc consts  --      0.3559                 0.7751                 0.6828
 IR Inten    --      5.2619                 6.4347                 1.5319

                     25                     26                     27
                      A                      A                      A
 Frequencies --    660.8645               770.0247               776.6884
 Red. masses --      1.5572                 1.1694                 1.3327
 Frc consts  --      0.4007                 0.4085                 0.4737
 IR Inten    --      9.0515                 1.8090                 2.3237

                     28                     29                     30
                      A                      A                      A
 Frequencies --    868.2275               878.4078               938.6963
 Red. masses --      2.0410                 1.8010                 1.7214
 Frc consts  --      0.9065                 0.8188                 0.8937
 IR Inten    --      2.9048                 8.0617                 0.2751

                     31                     32                     33
                      A                      A                      A
 Frequencies --    946.2472               985.1462               997.4914
 Red. masses --      1.3551                 1.6664                 2.1892
 Frc consts  --      0.7149                 0.9529                 1.2834
 IR Inten    --     31.0639                15.5389                22.4503

                     34                     35                     36
                      A                      A                      A
 Frequencies --   1003.1816              1019.1948              1039.2012
 Red. masses --      3.5369                 3.2010                 1.4682
 Frc consts  --      2.0972                 1.9591                 0.9342
 IR Inten    --     59.1938                29.1541                 7.4194

                     37                     38                     39
                      A                      A                      A
 Frequencies --   1043.9899              1059.0655              1084.0655
 Red. masses --      1.6078                 1.7958                 3.4560
 Frc consts  --      1.0325                 1.1868                 2.3929
 IR Inten    --      1.0090                 1.2902               110.1798

                     40                     41                     42
                      A                      A                      A
 Frequencies --   1095.6331              1102.6447              1131.2125
 Red. masses --      2.4149                 3.2466                 3.6649
 Frc consts  --      1.7080                 2.3257                 2.7631
 IR Inten    --     43.6887               105.2960               161.5037

                     43                     44                     45
                      A                      A                      A
 Frequencies --   1143.1537              1149.8690              1182.2998
 Red. masses --      2.2646                 2.8910                 1.2805
 Frc consts  --      1.7436                 2.2521                 1.0546
 IR Inten    --     19.1882               116.5612                 1.8595

                     46                     47                     48
                      A                      A                      A
 Frequencies --   1187.0207              1218.1667              1233.3590
 Red. masses --      2.0263                 1.4712                 1.5128
 Frc consts  --      1.6821                 1.2862                 1.3559
 IR Inten    --      4.9355                71.4775                 2.5908

                     49                     50                     51
                      A                      A                      A
 Frequencies --   1248.9830              1277.9838              1289.7264
 Red. masses --      1.5621                 1.2756                 1.2248
 Frc consts  --      1.4357                 1.2275                 1.2004
 IR Inten    --     14.2144                 2.1656                 3.4252

                     52                     53                     54
                      A                      A                      A
 Frequencies --   1317.7974              1327.9178              1333.9769
 Red. masses --      1.1116                 1.2415                 1.2662
 Frc consts  --      1.1373                 1.2899                 1.3276
 IR Inten    --      2.3664                 1.4423                16.2370

                     55                     56                     57
                      A                      A                      A
 Frequencies --   1339.0463              1357.7946              1379.0909
 Red. masses --      1.2716                 1.2620                 1.5029
 Frc consts  --      1.3434                 1.3709                 1.6841
 IR Inten    --      8.0391                16.7283                 8.9795

                     58                     59                     60
                      A                      A                      A
 Frequencies --   1385.8442              1388.0232              1415.1475
 Red. masses --      1.3070                 1.2470                 1.2256
 Frc consts  --      1.4790                 1.4155                 1.4461
 IR Inten    --     40.0956                31.8476                 5.6000

                     61                     62                     63
                      A                      A                      A
 Frequencies --   1428.8926              1441.4625              1456.1249
 Red. masses --      1.3582                 1.3173                 1.1682
 Frc consts  --      1.6339                 1.6127                 1.4593
 IR Inten    --      4.7802                28.9995                 1.2807

                     64                     65                     66
                      A                      A                      A
 Frequencies --   1477.3017              1478.7539              1489.3602
 Red. masses --      1.1014                 1.0999                 1.0655
 Frc consts  --      1.4162                 1.4171                 1.3925
 IR Inten    --      4.0835                 0.5737                 1.3864

                     67                     68                     69
                      A                      A                      A
 Frequencies --   1492.5947              1497.8933              1499.4250
 Red. masses --      1.0763                 1.0920                 1.0806
 Frc consts  --      1.4127                 1.4435                 1.4314
 IR Inten    --      1.2119                 2.2920                 1.3275

                     70                     71                     72
                      A                      A                      A
 Frequencies --   1502.0752              1509.6995              1511.1006
 Red. masses --      1.0552                 1.0704                 1.0620
 Frc consts  --      1.4028                 1.4374                 1.4287
 IR Inten    --      4.0476                 5.0545                 5.5415

                     73                     74                     75
                      A                      A                      A
 Frequencies --   1718.5813              2919.9361              2983.5798
 Red. masses --      4.8494                 1.0811                 1.0376
 Frc consts  --      8.4387                 5.4310                 5.4420
 IR Inten    --     11.8165                34.6064                52.6521

                     76                     77                     78
                      A                      A                      A
 Frequencies --   2999.2852              2999.4578              3011.1814
 Red. masses --      1.0725                 1.0767                 1.0587
 Frc consts  --      5.6842                 5.7072                 5.6560
 IR Inten    --     23.7742                31.2059                24.5180

                     79                     80                     81
                      A                      A                      A
 Frequencies --   3027.0095              3032.1914              3033.8334
 Red. masses --      1.0642                 1.0693                 1.1003
 Frc consts  --      5.7452                 5.7926                 5.9670
 IR Inten    --      7.7613                19.0943                60.4955

                     82                     83                     84
                      A                      A                      A
 Frequencies --   3038.2074              3053.3861              3068.9967
 Red. masses --      1.0388                 1.0960                 1.0988
 Frc consts  --      5.6497                 6.0204                 6.0979
 IR Inten    --     39.4312                18.6456                16.6271

                     85                     86                     87
                      A                      A                      A
 Frequencies --   3088.4521              3098.7755              3101.0929
 Red. masses --      1.0954                 1.0981                 1.1006
 Frc consts  --      6.1562                 6.2128                 6.2360
 IR Inten    --     36.0814                 5.0197                49.6950

                     88                     89                     90
                      A                      A                      A
 Frequencies --   3119.0670              3120.2941              3126.0283
 Red. masses --      1.0969                 1.0996                 1.0799
 Frc consts  --      6.2872                 6.3076                 6.2177
 IR Inten    --     19.3095                38.0314                23.8004

                     91                     92                     93
                      A                      A                      A
 Frequencies --   3141.1963              3221.7151              3794.6000
 Red. masses --      1.0701                 1.1141                 1.0651
 Frc consts  --      6.2210                 6.8130                 9.0360
 IR Inten    --      4.6883                17.7312                31.7762

 - Thermochemistry -
 -------------------
 Temperature   298.150 Kelvin.  Pressure   1.00000 Atm.
 Atom     1 has atomic number  6 and mass  12.00000

 Molecular mass:   188.14124 amu.
 Principal axes and moments of inertia in atomic units:
                           1         2         3
     Eigenvalues --  1909.991474524.564445652.21200
           X            0.99991   0.01280  -0.00439
           Y           -0.01279   0.99991   0.00294
           Z            0.00443  -0.00288   0.99999
 This molecule is an asymmetric top.
 Rotational symmetry number  1.
 Warning -- assumption of classical behavior for rotation
           may cause significant error
 Rotational temperatures (Kelvin)      0.04535     0.01914     0.01532
 Rotational constants (GHZ):           0.94489     0.39888     0.31930
 Zero-point vibrational energy     766807.8 (Joules/Mol)
                                  183.27147 (Kcal/Mol)
 Warning -- explicit consideration of  24 degrees of freedom as
           vibrations may cause significant error
 Vibrational temperatures:     17.31    56.08    87.23    94.22    98.45
          (Kelvin)            126.18   151.74   174.31   206.81   228.63
                              289.70   305.29   312.28   380.80   422.36
                              455.97   528.63   556.22   611.26   632.76
                              697.58   717.98   823.62   863.77   950.84
                             1107.89  1117.48  1249.19  1263.83  1350.57
                             1361.44  1417.41  1435.17  1443.35  1466.39
                             1495.18  1502.07  1523.76  1559.73  1576.37
                             1586.46  1627.56  1644.74  1654.41  1701.07
                             1707.86  1752.67  1774.53  1797.01  1838.73
                             1855.63  1896.02  1910.58  1919.30  1926.59
                             1953.56  1984.20  1993.92  1997.06  2036.08
                             2055.86  2073.94  2095.04  2125.51  2127.60
                             2142.86  2147.51  2155.13  2157.34  2161.15
                             2172.12  2174.14  2472.66  4201.14  4292.71
                             4315.30  4315.55  4332.42  4355.19  4362.65
                             4365.01  4371.30  4393.14  4415.60  4443.59
                             4458.45  4461.78  4487.64  4489.41  4497.66
                             4519.48  4635.33  5459.58

 Zero-point correction=                           0.292062 (Hartree/Particle)
 Thermal correction to Energy=                    0.308632
 Thermal correction to Enthalpy=                  0.309576
 Thermal correction to Gibbs Free Energy=         0.245544
 Sum of electronic and zero-point Energies=           -618.487346
 Sum of electronic and thermal Energies=              -618.470776
 Sum of electronic and thermal Enthalpies=            -618.469832
 Sum of electronic and thermal Free Energies=         -618.533864

                     E (Thermal)             CV                S
                      KCal/Mol        Cal/Mol-Kelvin    Cal/Mol-Kelvin
 Total                  193.669             58.247            134.767
 Electronic               0.000              0.000              0.000
 Translational            0.889              2.981             41.602
 Rotational               0.889              2.981             32.257
 Vibrational            191.892             52.285             60.907
 Vibration     1          0.593              1.987              7.644
 Vibration     2          0.594              1.981              5.310
 Vibration     3          0.597              1.973              4.437
 Vibration     4          0.597              1.971              4.285
 Vibration     5          0.598              1.969              4.198
 Vibration     6          0.601              1.958              3.711
 Vibration     7          0.605              1.945              3.351
 Vibration     8          0.609              1.932              3.082
 Vibration     9          0.616              1.909              2.753
 Vibration    10          0.621              1.893              2.563
 Vibration    11          0.638              1.838              2.121
 Vibration    12          0.643              1.822              2.025
 Vibration    13          0.646              1.815              1.984
 Vibration    14          0.671              1.738              1.631
 Vibration    15          0.688              1.686              1.453
 Vibration    16          0.704              1.641              1.326
 Vibration    17          0.740              1.539              1.091
 Vibration    18          0.755              1.499              1.013
 Vibration    19          0.787              1.416              0.876
 Vibration    20          0.800              1.383              0.827
 Vibration    21          0.841              1.284              0.697
 Vibration    22          0.854              1.252              0.661
 Vibration    23          0.929              1.091              0.500
 Vibration    24          0.958              1.031              0.449

 Optimization completed.
    -- Stationary point found.
 Normal termination of Gaussian 16 at Wed May 24 02:48:18 2023.
