 Gaussian 16, Revision A.03,
 Gaussian 16:  ES64L-G16RevA.03 25-Dec-2016

 -----------------------------
 # opt freq b3lyp/6-31g(2df,p)
 -----------------------------

 -------------------
 Title Card Required
 -------------------
 Symbolic Z-matrix:
 Charge =  0 Multiplicity = 1

 SCF Done:  E(RB3LYP) =  -469.312392412     A.U. after   13 cycles
 SCF Done:  E(RB3LYP) =  -469.319406725     A.U. after   11 cycles
 SCF Done:  E(RB3LYP) =  -469.324987010     A.U. after   10 cycles
 SCF Done:  E(RB3LYP) =  -469.325934456     A.U. after   11 cycles
 SCF Done:  E(RB3LYP) =  -469.326917799     A.U. after   11 cycles
 SCF Done:  E(RB3LYP) =  -469.327475424     A.U. after   11 cycles
 SCF Done:  E(RB3LYP) =  -469.328115917     A.U. after   11 cycles
 SCF Done:  E(RB3LYP) =  -469.329330060     A.U. after   12 cycles
 SCF Done:  E(RB3LYP) =  -469.330108423     A.U. after   10 cycles
 SCF Done:  E(RB3LYP) =  -469.331235560     A.U. after   10 cycles
 SCF Done:  E(RB3LYP) =  -469.333122263     A.U. after   10 cycles
 SCF Done:  E(RB3LYP) =  -469.333203565     A.U. after   10 cycles
 SCF Done:  E(RB3LYP) =  -469.333319832     A.U. after   10 cycles
 SCF Done:  E(RB3LYP) =  -469.333348288     A.U. after    9 cycles
 SCF Done:  E(RB3LYP) =  -469.333355483     A.U. after    8 cycles
 SCF Done:  E(RB3LYP) =  -469.333357424     A.U. after    7 cycles
 SCF Done:  E(RB3LYP) =  -469.333358904     A.U. after    8 cycles
 SCF Done:  E(RB3LYP) =  -469.333359007     A.U. after    6 cycles
 SCF Done:  E(RB3LYP) =  -469.333359024     A.U. after    6 cycles
 Optimization completed.
    -- Stationary point found.
 Normal termination of Gaussian 16 at Mon May 29 03:00:42 2023.

 ----------------------------------------------------------------------
 #N Geom=AllCheck Guess=TCheck SCRF=Check GenChk RB3LYP/6-31G(2df,p) Fr
 eq
 ----------------------------------------------------------------------

 Structure from the checkpoint file:  "CdCC1CCCCqCrdC1CCC.chk"
 -------------------
 Title Card Required
 -------------------
 Charge =  0 Multiplicity = 1

                         Standard orientation:
 ---------------------------------------------------------------------
 Center     Atomic      Atomic             Coordinates (Angstroms)
 Number     Number       Type             X           Y           Z
 ---------------------------------------------------------------------
      1          6           0       -0.266669   -2.157921    1.377802
      2          6           0       -0.655826   -2.171593    0.105710
      3          6           0       -0.809119   -0.977747   -0.818220
      4          6           0       -2.305044   -0.601415   -0.939807
      5          6           0       -2.751868    0.191386    0.286825
      6          6           0       -1.943261    1.486218    0.397206
      7          6           0       -0.469041    1.338936    0.076428
      8          6           0        0.325511    2.585762    0.379421
      9          6           0        0.057261    0.223877   -0.458734
     10          6           0        1.530902    0.097092   -0.822888
     11          6           0        2.506376   -0.134814    0.348172
     12          6           0        3.965465   -0.198739   -0.112077
     13          1           0       -0.234203   -3.066194    1.970644
     14          1           0        0.034363   -1.240333    1.872355
     15          1           0       -0.956897   -3.120753   -0.338570
     16          1           0       -0.483659   -1.316371   -1.812650
     17          1           0       -2.909081   -1.507448   -1.063670
     18          1           0       -2.445690    0.004169   -1.844070
     19          1           0       -2.598498   -0.421226    1.182501
     20          1           0       -3.822277    0.417980    0.237301
     21          1           0       -2.052160    1.916948    1.402210
     22          1           0       -2.361500    2.246224   -0.282065
     23          1           0       -0.179358    3.468749   -0.033803
     24          1           0        1.341299    2.564134   -0.017273
     25          1           0        0.395338    2.753228    1.462467
     26          1           0        1.855421    0.993369   -1.367957
     27          1           0        1.648389   -0.732840   -1.530599
     28          1           0        2.239605   -1.065574    0.858411
     29          1           0        2.388369    0.666610    1.086943
     30          1           0        4.118905   -1.011193   -0.831472
     31          1           0        4.642769   -0.369683    0.730739
     32          1           0        4.270731    0.733948   -0.600467
 ---------------------------------------------------------------------

 SCF Done:  E(RB3LYP) =  -469.333359024     A.U. after    1 cycles

 The electronic state is 1-A.
 Alpha  occ. eigenvalues --  -10.18530 -10.18122 -10.17632 -10.17510 -10.17420
 Alpha  occ. eigenvalues --  -10.17263 -10.17234 -10.17191 -10.17136 -10.17023
 Alpha  occ. eigenvalues --  -10.16909 -10.16720  -0.84052  -0.78260  -0.77781
 Alpha  occ. eigenvalues --   -0.74661  -0.72085  -0.68267  -0.65712  -0.61761
 Alpha  occ. eigenvalues --   -0.58766  -0.56954  -0.54621  -0.48049  -0.46489
 Alpha  occ. eigenvalues --   -0.46089  -0.45686  -0.43684  -0.42300  -0.41532
 Alpha  occ. eigenvalues --   -0.40472  -0.40194  -0.38470  -0.38177  -0.37136
 Alpha  occ. eigenvalues --   -0.35740  -0.35652  -0.34937  -0.33908  -0.32938
 Alpha  occ. eigenvalues --   -0.32039  -0.31428  -0.30757  -0.28951  -0.24896
 Alpha  occ. eigenvalues --   -0.21936
 Alpha virt. eigenvalues --    0.01981   0.03262   0.08792   0.09638   0.10809
 Alpha virt. eigenvalues --    0.13032   0.13365   0.13892   0.14523   0.14968
 Alpha virt. eigenvalues --    0.15980   0.16936   0.17601   0.17689   0.18042

 Mulliken charges:
               1
     1  C   -0.321712
     2  C    0.016751
     3  C   -0.117998
     4  C   -0.219971
     5  C   -0.209782
     6  C   -0.267894
     7  C    0.213480
     8  C   -0.479780
     9  C    0.188397
    10  C   -0.284570
    11  C   -0.160694
    12  C   -0.377168
    13  H    0.105842
    14  H    0.111638
    15  H    0.084908
    16  H    0.071332
    17  H    0.087400
    18  H    0.091049
    19  H    0.106056
    20  H    0.087332
    21  H    0.096033
    22  H    0.099977
    23  H    0.115344
    24  H    0.120521
    25  H    0.122355
    26  H    0.098765
    27  H    0.088735
    28  H    0.107416
    29  H    0.095156
    30  H    0.112689
    31  H    0.108872
    32  H    0.109520
 Sum of Mulliken charges =  -0.00000

 Dipole moment (field-independent basis, Debye):
    X=             -0.2280    Y=              0.1714    Z=             -0.1608  Tot=              0.3274
 Quadrupole moment (field-independent basis, Debye-Ang):
   XX=            -77.1684   YY=            -74.4123   ZZ=            -75.5719
   XY=              0.1900   XZ=              0.6603   YZ=              0.8310

  Exact polarizability: 136.284  -4.975 134.414   2.677   3.591 110.568
 Approx polarizability: 173.278 -10.515 195.229   4.213  10.927 185.252

                      1                      2                      3
                      A                      A                      A
 Frequencies --     50.9158                73.7732                90.8174
 Red. masses --      2.7458                 2.5806                 1.8139
 Frc consts  --      0.0042                 0.0083                 0.0088
 IR Inten    --      0.0124                 0.0405                 0.0629

                      4                      5                      6
                      A                      A                      A
 Frequencies --    121.8789               131.6529               149.5606
 Red. masses --      2.2207                 2.2741                 2.3369
 Frc consts  --      0.0194                 0.0232                 0.0308
 IR Inten    --      0.5334                 0.0723                 0.0252

                      7                      8                      9
                      A                      A                      A
 Frequencies --    162.5228               217.7512               241.0017
 Red. masses --      1.3708                 2.7721                 1.8728
 Frc consts  --      0.0213                 0.0774                 0.0641
 IR Inten    --      0.1233                 0.2802                 0.1246

                     10                     11                     12
                      A                      A                      A
 Frequencies --    242.4694               284.5700               335.9399
 Red. masses --      1.2083                 2.7703                 2.1235
 Frc consts  --      0.0419                 0.1322                 0.1412
 IR Inten    --      0.0258                 0.2344                 0.3404

                     13                     14                     15
                      A                      A                      A
 Frequencies --    353.4055               376.3937               383.8087
 Red. masses --      2.0200                 2.6740                 2.5268
 Frc consts  --      0.1486                 0.2232                 0.2193
 IR Inten    --      0.5576                 2.1850                 0.2318

                     16                     17                     18
                      A                      A                      A
 Frequencies --    447.2325               474.1573               533.3703
 Red. masses --      2.7632                 2.6011                 2.7333
 Frc consts  --      0.3256                 0.3446                 0.4581
 IR Inten    --      1.0191                 0.6597                 0.1843

                     19                     20                     21
                      A                      A                      A
 Frequencies --    600.1977               651.5079               698.0128
 Red. masses --      3.6656                 1.9503                 2.2448
 Frc consts  --      0.7780                 0.4877                 0.6444
 IR Inten    --      0.2488                 6.1506                 0.6275

                     22                     23                     24
                      A                      A                      A
 Frequencies --    734.3494               772.4055               829.1064
 Red. masses --      1.2344                 2.3565                 1.9089
 Frc consts  --      0.3922                 0.8283                 0.7731
 IR Inten    --      1.5025                 1.6565                 0.7863

                     25                     26                     27
                      A                      A                      A
 Frequencies --    862.6217               865.4881               887.7695
 Red. masses --      1.5709                 1.7542                 2.3569
 Frc consts  --      0.6887                 0.7742                 1.0944
 IR Inten    --      2.9923                 2.1878                 0.2842

                     28                     29                     30
                      A                      A                      A
 Frequencies --    906.4734               914.1013               952.2940
 Red. masses --      1.6538                 1.9444                 1.5069
 Frc consts  --      0.8007                 0.9572                 0.8051
 IR Inten    --      1.9320                 0.9690                23.6328

                     31                     32                     33
                      A                      A                      A
 Frequencies --    957.5045              1021.0216              1025.5290
 Red. masses --      1.8101                 1.9375                 1.4483
 Frc consts  --      0.9778                 1.1900                 0.8975
 IR Inten    --      4.2241                 2.2340                 0.6567

                     34                     35                     36
                      A                      A                      A
 Frequencies --   1038.4306              1043.8388              1050.5627
 Red. masses --      1.7952                 1.8829                 1.1731
 Frc consts  --      1.1406                 1.2088                 0.7629
 IR Inten    --      0.8024                 2.5007                10.2934

                     37                     38                     39
                      A                      A                      A
 Frequencies --   1082.2109              1090.9141              1110.0671
 Red. masses --      1.6694                 1.7627                 2.1057
 Frc consts  --      1.1520                 1.2360                 1.5288
 IR Inten    --      0.9238                 2.3556                 3.3457

                     40                     41                     42
                      A                      A                      A
 Frequencies --   1117.5840              1145.7757              1155.9640
 Red. masses --      1.6863                 2.7787                 2.1881
 Frc consts  --      1.2410                 2.1493                 1.7227
 IR Inten    --      3.6119                 2.9634                 2.0225

                     43                     44                     45
                      A                      A                      A
 Frequencies --   1186.6297              1197.1545              1229.7635
 Red. masses --      1.3940                 1.4030                 1.9642
 Frc consts  --      1.1565                 1.1847                 1.7502
 IR Inten    --      2.1141                 0.0916                 1.4763

                     46                     47                     48
                      A                      A                      A
 Frequencies --   1274.6649              1284.3852              1310.0489
 Red. masses --      1.3274                 1.2165                 1.2873
 Frc consts  --      1.2707                 1.1824                 1.3017
 IR Inten    --      0.3599                 1.2579                 4.3598

                     49                     50                     51
                      A                      A                      A
 Frequencies --   1316.8410              1327.6383              1334.7548
 Red. masses --      1.3823                 1.2905                 1.1462
 Frc consts  --      1.4123                 1.3402                 1.2032
 IR Inten    --      1.3377                 0.7522                 1.0549

                     52                     53                     54
                      A                      A                      A
 Frequencies --   1357.0105              1376.6638              1378.3871
 Red. masses --      1.4620                 1.5226                 1.6242
 Frc consts  --      1.5863                 1.7002                 1.8182
 IR Inten    --      6.1091                 1.5702                 1.6486

                     55                     56                     57
                      A                      A                      A
 Frequencies --   1380.8553              1391.5974              1410.1820
 Red. masses --      1.4699                 1.5046                 1.2409
 Frc consts  --      1.6513                 1.7167                 1.4539
 IR Inten    --      0.3473                 1.7781                 0.6002

                     58                     59                     60
                      A                      A                      A
 Frequencies --   1410.6762              1443.5862              1472.9153
 Red. masses --      1.2501                 1.1746                 1.0811
 Frc consts  --      1.4657                 1.4422                 1.3819
 IR Inten    --      1.0527                 5.0533                 0.7174

                     61                     62                     63
                      A                      A                      A
 Frequencies --   1477.3608              1484.0307              1487.2551
 Red. masses --      1.0767                 1.0544                 1.0839
 Frc consts  --      1.3846                 1.3682                 1.4125
 IR Inten    --      1.8045                 4.2551                 3.1522

                     64                     65                     66
                      A                      A                      A
 Frequencies --   1495.2751              1498.4955              1498.6835
 Red. masses --      1.0488                 1.0487                 1.0839
 Frc consts  --      1.3815                 1.3874                 1.4344
 IR Inten    --      1.6049                 5.4735                 1.6127

                     67                     68                     69
                      A                      A                      A
 Frequencies --   1501.1636              1513.7230              1703.7522
 Red. masses --      1.0716                 1.0848                 4.8048
 Frc consts  --      1.4228                 1.4645                 8.2174
 IR Inten    --      4.5689                 3.0588                 8.5729

                     70                     71                     72
                      A                      A                      A
 Frequencies --   1720.7940              2980.2811              2985.2432
 Red. masses --      7.1495                 1.0686                 1.0808
 Frc consts  --     12.4733                 5.5923                 5.6750
 IR Inten    --      1.2147                37.6299                18.2013

                     73                     74                     75
                      A                      A                      A
 Frequencies --   3010.7196              3013.8374              3018.3177
 Red. masses --      1.0583                 1.0534                 1.0772
 Frc consts  --      5.6520                 5.6372                 5.7820
 IR Inten    --     23.5097                21.2882                39.5094

                     76                     77                     78
                      A                      A                      A
 Frequencies --   3022.4482              3025.2414              3037.1046
 Red. masses --      1.0614                 1.0364                 1.0732
 Frc consts  --      5.7126                 5.5885                 5.8325
 IR Inten    --     42.8887                36.9509                14.0571

                     79                     80                     81
                      A                      A                      A
 Frequencies --   3038.9887              3046.4532              3054.5939
 Red. masses --      1.0645                 1.0876                 1.0979
 Frc consts  --      5.7924                 5.9472                 6.0357
 IR Inten    --     35.5103                30.5742                21.7415

                     82                     83                     84
                      A                      A                      A
 Frequencies --   3063.1364              3074.7625              3077.5056
 Red. masses --      1.0997                 1.0991                 1.1040
 Frc consts  --      6.0792                 6.1225                 6.1605
 IR Inten    --     43.5102                 0.3049                42.3887

                     85                     86                     87
                      A                      A                      A
 Frequencies --   3098.0012              3099.4625              3120.4949
 Red. masses --      1.1017                 1.1014                 1.0826
 Frc consts  --      6.2296                 6.2338                 6.2111
 IR Inten    --     41.1474                54.2949                29.4050

                     88                     89                     90
                      A                      A                      A
 Frequencies --   3132.1037              3149.7122              3229.2700
 Red. masses --      1.0943                 1.0661                 1.1145
 Frc consts  --      6.3249                 6.2313                 6.8474
 IR Inten    --     23.1444                 6.8906                14.8272

 - Thermochemistry -
 -------------------
 Temperature   298.150 Kelvin.  Pressure   1.00000 Atm.
 Atom     1 has atomic number  6 and mass  12.00000

 Molecular mass:   164.15650 amu.
 Principal axes and moments of inertia in atomic units:
                           1         2         3
     Eigenvalues --  1467.671392573.238493416.94694
           X            1.00000  -0.00003  -0.00060
           Y            0.00003   0.99997   0.00802
           Z            0.00060  -0.00802   0.99997
 This molecule is an asymmetric top.
 Rotational symmetry number  1.
 Warning -- assumption of classical behavior for rotation
           may cause significant error
 Rotational temperatures (Kelvin)      0.05901     0.03366     0.02535
 Rotational constants (GHZ):           1.22966     0.70135     0.52817
 Zero-point vibrational energy     765172.9 (Joules/Mol)
                                  182.88071 (Kcal/Mol)
 Warning -- explicit consideration of  19 degrees of freedom as
           vibrations may cause significant error
 Vibrational temperatures:     73.26   106.14   130.67   175.36   189.42
          (Kelvin)            215.18   233.83   313.30   346.75   348.86
                              409.43   483.34   508.47   541.55   552.22
                              643.47   682.21   767.40   863.55   937.37
                             1004.28  1056.56  1111.32  1192.90  1241.12
                             1245.24  1277.30  1304.21  1315.19  1370.14
                             1377.64  1469.02  1475.51  1494.07  1501.85
                             1511.53  1557.06  1569.58  1597.14  1607.95
                             1648.52  1663.17  1707.30  1722.44  1769.36
                             1833.96  1847.94  1884.87  1894.64  1910.18
                             1920.41  1952.44  1980.71  1983.19  1986.74
                             2002.20  2028.94  2029.65  2077.00  2119.20
                             2125.59  2135.19  2139.83  2151.37  2156.00
                             2156.27  2159.84  2177.91  2451.32  2475.84
                             4287.96  4295.10  4331.75  4336.24  4342.69
                             4348.63  4352.65  4369.72  4372.43  4383.17
                             4394.88  4407.17  4423.90  4427.84  4457.33
                             4459.44  4489.70  4506.40  4531.73  4646.20

 Zero-point correction=                           0.291439 (Hartree/Particle)
 Thermal correction to Energy=                    0.304914
 Thermal correction to Enthalpy=                  0.305858
 Thermal correction to Gibbs Free Energy=         0.251929
 Sum of electronic and zero-point Energies=           -469.041920
 Sum of electronic and thermal Energies=              -469.028445
 Sum of electronic and thermal Enthalpies=            -469.027501
 Sum of electronic and thermal Free Energies=         -469.081430

                     E (Thermal)             CV                S
                      KCal/Mol        Cal/Mol-Kelvin    Cal/Mol-Kelvin
 Total                  191.337             51.333            113.505
 Electronic               0.000              0.000              0.000
 Translational            0.889              2.981             41.195
 Rotational               0.889              2.981             30.935
 Vibrational            189.559             45.371             41.374
 Vibration     1          0.595              1.977              4.781
 Vibration     2          0.599              1.966              4.050
 Vibration     3          0.602              1.956              3.642
 Vibration     4          0.609              1.931              3.070
 Vibration     5          0.612              1.922              2.922
 Vibration     6          0.618              1.903              2.678
 Vibration     7          0.623              1.888              2.520
 Vibration     8          0.646              1.814              1.978
 Vibration     9          0.658              1.778              1.795
 Vibration    10          0.659              1.775              1.785
 Vibration    11          0.683              1.702              1.506
 Vibration    12          0.717              1.604              1.231
 Vibration    13          0.730              1.568              1.151
 Vibration    14          0.747              1.520              1.054
 Vibration    15          0.753              1.505              1.024
 Vibration    16          0.806              1.367              0.804
 Vibration    17          0.831              1.307              0.726
 Vibration    18          0.888              1.176              0.580
 Vibration    19          0.958              1.031              0.449

 Optimization completed.
    -- Stationary point found.
 Normal termination of Gaussian 16 at Mon May 29 04:33:02 2023.
