 Gaussian 16, Revision A.03,
 Gaussian 16:  ES64L-G16RevA.03 25-Dec-2016

 -----------------------------
 # opt freq b3lyp/6-31g(2df,p)
 -----------------------------

 -------------------
 Title Card Required
 -------------------
 Symbolic Z-matrix:
 Charge =  0 Multiplicity = 1

 SCF Done:  E(RB3LYP) =  -676.187037203     A.U. after   13 cycles
 SCF Done:  E(RB3LYP) =  -676.205295179     A.U. after   11 cycles
 SCF Done:  E(RB3LYP) =  -676.210673375     A.U. after   11 cycles
 SCF Done:  E(RB3LYP) =  -676.212629182     A.U. after   11 cycles
 SCF Done:  E(RB3LYP) =  -676.214585859     A.U. after   12 cycles
 SCF Done:  E(RB3LYP) =  -676.215887859     A.U. after   13 cycles
 SCF Done:  E(RB3LYP) =  -676.218588621     A.U. after   12 cycles
 SCF Done:  E(RB3LYP) =  -676.221269654     A.U. after   14 cycles
 SCF Done:  E(RB3LYP) =  -676.221673379     A.U. after   12 cycles
 SCF Done:  E(RB3LYP) =  -676.221769573     A.U. after   10 cycles
 SCF Done:  E(RB3LYP) =  -676.223104761     A.U. after   12 cycles
 SCF Done:  E(RB3LYP) =  -676.223449848     A.U. after   12 cycles
 SCF Done:  E(RB3LYP) =  -676.223573896     A.U. after   11 cycles
 SCF Done:  E(RB3LYP) =  -676.223599977     A.U. after   10 cycles
 SCF Done:  E(RB3LYP) =  -676.223606789     A.U. after    9 cycles
 SCF Done:  E(RB3LYP) =  -676.223611340     A.U. after    9 cycles
 SCF Done:  E(RB3LYP) =  -676.223613477     A.U. after    9 cycles
 SCF Done:  E(RB3LYP) =  -676.223613694     A.U. after    6 cycles
 SCF Done:  E(RB3LYP) =  -676.223613729     A.U. after    6 cycles
 Optimization completed.
    -- Stationary point found.
 Normal termination of Gaussian 16 at Mon May 29 15:24:55 2023.

 ----------------------------------------------------------------------
 #N Geom=AllCheck Guess=TCheck SCRF=Check GenChk RB3LYP/6-31G(2df,p) Fr
 eq
 ----------------------------------------------------------------------

 Structure from the checkpoint file:  "CdCCNCOOCC1CC1CqCrCC.chk"
 -------------------
 Title Card Required
 -------------------
 Charge =  0 Multiplicity = 1

                         Standard orientation:
 ---------------------------------------------------------------------
 Center     Atomic      Atomic             Coordinates (Angstroms)
 Number     Number       Type             X           Y           Z
 ---------------------------------------------------------------------
      1          6           0        6.907926   -0.337524   -0.206809
      2          6           0        5.730055   -0.264715    0.404095
      3          6           0        4.410579   -0.131887   -0.298740
      4          7           0        3.683074    1.038594    0.182994
      5          6           0        2.325253    1.157932   -0.237284
      6          8           0        1.549321    0.416824    0.713677
      7          8           0        0.207393    0.350958    0.174016
      8          6           0       -0.077665   -1.026824   -0.047311
      9          6           0       -1.467742   -1.093415   -0.615493
     10          6           0       -2.338789   -2.302411   -0.351073
     11          6           0       -2.665192   -0.980998    0.293409
     12          6           0       -3.879139   -0.168762   -0.123458
     13          6           0       -5.150504   -0.708724    0.548548
     14          6           0       -3.642012    1.326224    0.169682
     15          6           0       -4.690166    2.270489   -0.427031
     16          1           0        7.835328   -0.442637    0.346134
     17          1           0        6.991005   -0.304293   -1.289878
     18          1           0        5.671589   -0.288807    1.490567
     19          1           0        3.785649   -1.005151   -0.071073
     20          1           0        4.566218   -0.124298   -1.392244
     21          1           0        4.204400    1.894310    0.056620
     22          1           0        2.117677    0.744324   -1.239354
     23          1           0        2.022144    2.212600   -0.222831
     24          1           0       -0.015595   -1.575240    0.902824
     25          1           0        0.663213   -1.455331   -0.737478
     26          1           0       -1.570307   -0.638663   -1.597532
     27          1           0       -1.939001   -3.098562    0.268509
     28          1           0       -2.969035   -2.647933   -1.164333
     29          1           0       -2.430104   -0.910034    1.354247
     30          1           0       -3.995707   -0.283940   -1.212105
     31          1           0       -5.089473   -0.600542    1.638209
     32          1           0       -5.288023   -1.771966    0.327998
     33          1           0       -6.046380   -0.179214    0.211618
     34          1           0       -2.649558    1.598025   -0.208561
     35          1           0       -3.596164    1.469022    1.258237
     36          1           0       -4.758690    2.148979   -1.514384
     37          1           0       -4.432613    3.315487   -0.227500
     38          1           0       -5.687424    2.095147   -0.011410
 ---------------------------------------------------------------------

 SCF Done:  E(RB3LYP) =  -676.223613729     A.U. after    1 cycles

 The electronic state is 1-A.
 Alpha  occ. eigenvalues --  -19.17885 -19.17623 -14.32271 -10.25012 -10.22571
 Alpha  occ. eigenvalues --  -10.21208 -10.18907 -10.18709 -10.18443 -10.18412
 Alpha  occ. eigenvalues --  -10.18284 -10.17946 -10.16968 -10.16704 -10.16681
 Alpha  occ. eigenvalues --   -1.10462  -0.93921  -0.88497  -0.85802  -0.78718
 Alpha  occ. eigenvalues --   -0.77753  -0.71786  -0.69317  -0.67337  -0.64395
 Alpha  occ. eigenvalues --   -0.61824  -0.58733  -0.57264  -0.56126  -0.55629
 Alpha  occ. eigenvalues --   -0.52251  -0.49556  -0.48548  -0.47740  -0.46316
 Alpha  occ. eigenvalues --   -0.45493  -0.44356  -0.43427  -0.42939  -0.42353
 Alpha  occ. eigenvalues --   -0.41089  -0.39763  -0.38971  -0.38126  -0.37733
 Alpha  occ. eigenvalues --   -0.37233  -0.36284  -0.35458  -0.34405  -0.34388
 Alpha  occ. eigenvalues --   -0.32452  -0.31911  -0.31706  -0.28577  -0.28052
 Alpha  occ. eigenvalues --   -0.26987  -0.26516  -0.24240  -0.23270
 Alpha virt. eigenvalues --    0.01397   0.04426   0.09047   0.09429   0.09880
 Alpha virt. eigenvalues --    0.10556   0.11143   0.11926   0.12409   0.13567
 Alpha virt. eigenvalues --    0.13846   0.14600   0.14924   0.15353   0.15723

 Mulliken charges:
               1
     1  C   -0.315382
     2  C    0.019012
     3  C   -0.179187
     4  N   -0.291475
     5  C    0.012191
     6  O   -0.181244
     7  O   -0.191826
     8  C   -0.044948
     9  C   -0.049373
    10  C   -0.326770
    11  C    0.035437
    12  C    0.015533
    13  C   -0.394219
    14  C   -0.164285
    15  C   -0.392243
    16  H    0.115112
    17  H    0.104491
    18  H    0.101470
    19  H    0.126706
    20  H    0.083705
    21  H    0.229015
    22  H    0.079495
    23  H    0.099445
    24  H    0.096298
    25  H    0.089369
    26  H    0.087339
    27  H    0.110326
    28  H    0.109610
    29  H    0.084768
    30  H    0.060676
    31  H    0.110845
    32  H    0.112171
    33  H    0.111851
    34  H    0.107913
    35  H    0.091595
    36  H    0.109602
    37  H    0.111476
    38  H    0.115502
 Sum of Mulliken charges =  -0.00000

 Dipole moment (field-independent basis, Debye):
    X=              0.6066    Y=             -0.2682    Z=             -1.6477  Tot=              1.7762
 Quadrupole moment (field-independent basis, Debye-Ang):
   XX=            -86.8578   YY=            -91.1737   ZZ=            -93.3438
   XY=              3.6132   XZ=             -2.9892   YZ=             -1.5145

  Exact polarizability: 203.331  -0.106 133.617  -3.585   0.103 119.044
 Approx polarizability: 235.123   2.473 186.511  -5.921   2.280 190.814

                      1                      2                      3
                      A                      A                      A
 Frequencies --     16.2244                20.7243                38.0533
 Red. masses --      4.2228                 4.4211                 2.7876
 Frc consts  --      0.0007                 0.0011                 0.0024
 IR Inten    --      0.4104                 0.1093                 0.6587

                      4                      5                      6
                      A                      A                      A
 Frequencies --     43.9102                51.8930                72.2680
 Red. masses --      3.3420                 2.5058                 3.9470
 Frc consts  --      0.0038                 0.0040                 0.0121
 IR Inten    --      0.6030                 0.4816                 1.3813

                      7                      8                      9
                      A                      A                      A
 Frequencies --     80.2727                89.0213               111.0756
 Red. masses --      2.1156                 3.1514                 2.8859
 Frc consts  --      0.0080                 0.0147                 0.0210
 IR Inten    --      0.4337                 2.3478                 0.7867

                     10                     11                     12
                      A                      A                      A
 Frequencies --    136.2192               174.8098               214.4933
 Red. masses --      3.3342                 2.2182                 1.9863
 Frc consts  --      0.0365                 0.0399                 0.0538
 IR Inten    --      3.7369                 0.4345                 0.6445

                     13                     14                     15
                      A                      A                      A
 Frequencies --    217.6002               246.1759               265.2794
 Red. masses --      1.0407                 2.0204                 1.6754
 Frc consts  --      0.0290                 0.0721                 0.0695
 IR Inten    --      0.0225                 3.3574                 0.2778

                     16                     17                     18
                      A                      A                      A
 Frequencies --    285.9719               305.1621               322.4953
 Red. masses --      2.7540                 2.5889                 4.2533
 Frc consts  --      0.1327                 0.1420                 0.2606
 IR Inten    --      1.3311                 0.7476                 4.1160

                     19                     20                     21
                      A                      A                      A
 Frequencies --    348.1369               399.8604               402.6321
 Red. masses --      2.8490                 3.0430                 3.2877
 Frc consts  --      0.2034                 0.2867                 0.3140
 IR Inten    --      6.5459                 5.7673                 0.2033

                     22                     23                     24
                      A                      A                      A
 Frequencies --    419.5892               447.8190               470.9864
 Red. masses --      2.2499                 2.3347                 2.2741
 Frc consts  --      0.2334                 0.2759                 0.2972
 IR Inten    --     13.8299                 0.8645                 0.1324

                     25                     26                     27
                      A                      A                      A
 Frequencies --    493.6558               556.6873               631.9045
 Red. masses --      2.8474                 1.8716                 2.2733
 Frc consts  --      0.4088                 0.3417                 0.5348
 IR Inten    --      3.3186                35.5804                63.1698

                     28                     29                     30
                      A                      A                      A
 Frequencies --    660.4048               763.6663               806.7621
 Red. masses --      1.5770                 1.4172                 1.3876
 Frc consts  --      0.4052                 0.4870                 0.5321
 IR Inten    --     13.5995                 1.5823                 0.4296

                     31                     32                     33
                      A                      A                      A
 Frequencies --    826.8068               863.9806               900.9913
 Red. masses --      1.6362                 2.2135                 1.6746
 Frc consts  --      0.6590                 0.9735                 0.8010
 IR Inten    --      3.7030                 0.9222                 8.3834

                     34                     35                     36
                      A                      A                      A
 Frequencies --    920.2395               922.1128               943.9493
 Red. masses --      1.6599                 3.2547                 2.0871
 Frc consts  --      0.8282                 1.6305                 1.0957
 IR Inten    --      1.1747                 4.9758                 1.5197

                     37                     38                     39
                      A                      A                      A
 Frequencies --    956.3198               968.3075               973.9952
 Red. masses --      1.3679                 2.1843                 1.4063
 Frc consts  --      0.7370                 1.2066                 0.7860
 IR Inten    --     21.5719                64.7115                 4.5260

                     40                     41                     42
                      A                      A                      A
 Frequencies --    980.7516               993.7323              1006.5745
 Red. masses --      2.2033                 2.4322                 1.9372
 Frc consts  --      1.2486                 1.4151                 1.1564
 IR Inten    --      1.9251                 9.3831                 8.3250

                     43                     44                     45
                      A                      A                      A
 Frequencies --   1018.9788              1038.2736              1045.7270
 Red. masses --      1.5270                 1.8571                 1.5475
 Frc consts  --      0.9342                 1.1795                 0.9971
 IR Inten    --      6.3024                70.4569                58.4932

                     46                     47                     48
                      A                      A                      A
 Frequencies --   1055.2842              1057.7398              1077.2364
 Red. masses --      2.1425                 1.3986                 3.0015
 Frc consts  --      1.4057                 0.9219                 2.0521
 IR Inten    --      3.5817                13.4071                11.4838

                     49                     50                     51
                      A                      A                      A
 Frequencies --   1098.7402              1122.0135              1149.5927
 Red. masses --      2.6568                 1.1081                 2.1785
 Frc consts  --      1.8897                 0.8219                 1.6963
 IR Inten    --      7.8206                 0.4986                 0.3350

                     52                     53                     54
                      A                      A                      A
 Frequencies --   1152.9063              1168.8834              1181.6031
 Red. masses --      1.6628                 1.9787                 1.8712
 Frc consts  --      1.3022                 1.5928                 1.5393
 IR Inten    --      5.2503                 8.6349                 2.4660

                     55                     56                     57
                      A                      A                      A
 Frequencies --   1187.5024              1196.1678              1209.0823
 Red. masses --      3.3347                 1.8100                 2.0812
 Frc consts  --      2.7706                 1.5259                 1.7926
 IR Inten    --    119.9883                 2.9003                 2.0570

                     58                     59                     60
                      A                      A                      A
 Frequencies --   1227.1244              1251.2038              1252.8594
 Red. masses --      1.5388                 1.2244                 1.1610
 Frc consts  --      1.3652                 1.1294                 1.0737
 IR Inten    --      2.9301                 0.7279                 1.0955

                     61                     62                     63
                      A                      A                      A
 Frequencies --   1277.5783              1282.1741              1305.5789
 Red. masses --      1.2195                 1.3048                 1.2332
 Frc consts  --      1.1728                 1.2638                 1.2384
 IR Inten    --     16.5896                 7.9336                 2.7880

                     64                     65                     66
                      A                      A                      A
 Frequencies --   1315.2229              1341.2817              1363.8363
 Red. masses --      1.2432                 1.2274                 1.3038
 Frc consts  --      1.2671                 1.3010                 1.4288
 IR Inten    --      0.2139                 7.1543                 7.0215

                     67                     68                     69
                      A                      A                      A
 Frequencies --   1370.6789              1377.6815              1399.0196
 Red. masses --      1.3086                 1.4239                 1.3932
 Frc consts  --      1.4485                 1.5923                 1.6066
 IR Inten    --     13.9119                 3.8140                26.5864

                     70                     71                     72
                      A                      A                      A
 Frequencies --   1407.9590              1413.5222              1425.7407
 Red. masses --      1.3181                 1.2210                 1.2988
 Frc consts  --      1.5395                 1.4374                 1.5556
 IR Inten    --      9.0962                 1.8560                87.9323

                     73                     74                     75
                      A                      A                      A
 Frequencies --   1447.7985              1458.5152              1483.3080
 Red. masses --      1.5208                 1.1886                 1.0661
 Frc consts  --      1.8782                 1.4897                 1.3820
 IR Inten    --      4.5710                 3.6069                 0.5530

                     76                     77                     78
                      A                      A                      A
 Frequencies --   1487.7233              1494.6034              1495.5800
 Red. masses --      1.2733                 1.1503                 1.1305
 Frc consts  --      1.6605                 1.5140                 1.4899
 IR Inten    --     12.4783                 1.8791                 4.2865

                     79                     80                     81
                      A                      A                      A
 Frequencies --   1500.3305              1502.6525              1506.4903
 Red. masses --      1.0889                 1.2422                 1.0800
 Frc consts  --      1.4442                 1.6526                 1.4441
 IR Inten    --      0.9559                 3.4943                 4.3734

                     82                     83                     84
                      A                      A                      A
 Frequencies --   1509.7851              1515.2562              1525.7319
 Red. masses --      1.0531                 1.1055                 1.1098
 Frc consts  --      1.4144                 1.4955                 1.5221
 IR Inten    --      1.8233                 6.5728                 2.4183

                     85                     86                     87
                      A                      A                      A
 Frequencies --   1719.5715              2942.0758              2947.6489
 Red. masses --      4.8547                 1.0691                 1.0678
 Frc consts  --      8.4577                 5.4521                 5.4665
 IR Inten    --      4.9071                17.7166                92.9231

                     88                     89                     90
                      A                      A                      A
 Frequencies --   2983.7058              2992.1254              3015.5244
 Red. masses --      1.0812                 1.0557                 1.0640
 Frc consts  --      5.6709                 5.5688                 5.7004
 IR Inten    --     12.9015                38.3719                23.2593

                     91                     92                     93
                      A                      A                      A
 Frequencies --   3028.1326              3030.3779              3031.0987
 Red. masses --      1.0371                 1.0393                 1.1037
 Frc consts  --      5.6031                 5.6232                 5.9746
 IR Inten    --     27.3553                35.8167                40.6310

                     94                     95                     96
                      A                      A                      A
 Frequencies --   3036.5588              3039.0629              3056.9469
 Red. masses --      1.0948                 1.0889                 1.0970
 Frc consts  --      5.9476                 5.9254                 6.0397
 IR Inten    --     40.2659                25.2022                10.6890

                     97                     98                     99
                      A                      A                      A
 Frequencies --   3093.4473              3094.4817              3101.6874
 Red. masses --      1.0989                 1.1006                 1.1013
 Frc consts  --      6.1960                 6.2092                 6.2422
 IR Inten    --     16.6297                46.7829                42.4859

                    100                    101                    102
                      A                      A                      A
 Frequencies --   3109.4753              3119.5540              3125.8178
 Red. masses --      1.1003                 1.0833                 1.0582
 Frc consts  --      6.2682                 6.2116                 6.0917
 IR Inten    --     35.9436                15.4013                14.6215

                    103                    104                    105
                      A                      A                      A
 Frequencies --   3139.2499              3140.3352              3154.6203
 Red. masses --      1.0595                 1.0875                 1.0919
 Frc consts  --      6.1517                 6.3189                 6.4021
 IR Inten    --     10.9120                15.1509                 6.0162

                    106                    107                    108
                      A                      A                      A
 Frequencies --   3208.7458              3224.1388              3591.6156
 Red. masses --      1.1159                 1.1140                 1.0754
 Frc consts  --      6.7696                 6.8229                 8.1735
 IR Inten    --     11.8139                15.8244                 6.8862

 - Thermochemistry -
 -------------------
 Temperature   298.150 Kelvin.  Pressure   1.00000 Atm.
 Atom     1 has atomic number  6 and mass  12.00000

 Molecular mass:   213.17288 amu.
 Principal axes and moments of inertia in atomic units:
                           1         2         3
     Eigenvalues --  1218.87763********************
           X            0.99999  -0.00483  -0.00251
           Y            0.00479   0.99990  -0.01358
           Z            0.00257   0.01357   0.99990
 This molecule is an asymmetric top.
 Rotational symmetry number  1.
 Warning -- assumption of classical behavior for rotation
           may cause significant error
 Rotational temperatures (Kelvin)      0.07106     0.00790     0.00732
 Rotational constants (GHZ):           1.48066     0.16454     0.15253
 Zero-point vibrational energy     885095.9 (Joules/Mol)
                                  211.54300 (Kcal/Mol)
 Warning -- explicit consideration of  26 degrees of freedom as
           vibrations may cause significant error
 Vibrational temperatures:     23.34    29.82    54.75    63.18    74.66
          (Kelvin)            103.98   115.49   128.08   159.81   195.99
                              251.51   308.61   313.08   354.19   381.68
                              411.45   439.06   464.00   500.89   575.31
                              579.30   603.70   644.31   677.64   710.26
                              800.95   909.17   950.18  1098.75  1160.75
                             1189.59  1243.08  1296.33  1324.02  1326.71
                             1358.13  1375.93  1393.18  1401.36  1411.08
                             1429.76  1448.24  1466.08  1493.84  1504.57
                             1518.32  1521.85  1549.90  1580.84  1614.33
                             1654.01  1658.77  1681.76  1700.06  1708.55
                             1721.02  1739.60  1765.56  1800.20  1802.59
                             1838.15  1844.76  1878.44  1892.31  1929.81
                             1962.26  1972.10  1982.18  2012.88  2025.74
                             2033.74  2051.32  2083.06  2098.48  2134.15
                             2140.50  2150.40  2151.81  2158.64  2161.98
                             2167.50  2172.24  2180.12  2195.19  2474.08
                             4232.99  4241.01  4292.89  4305.00  4338.67
                             4356.81  4360.04  4361.07  4368.93  4372.53
                             4398.26  4450.78  4452.27  4462.64  4473.84
                             4488.34  4497.35  4516.68  4518.24  4538.80
                             4616.67  4638.82  5167.53

 Zero-point correction=                           0.337115 (Hartree/Particle)
 Thermal correction to Energy=                    0.355647
 Thermal correction to Enthalpy=                  0.356591
 Thermal correction to Gibbs Free Energy=         0.286891
 Sum of electronic and zero-point Energies=           -675.886498
 Sum of electronic and thermal Energies=              -675.867967
 Sum of electronic and thermal Enthalpies=            -675.867023
 Sum of electronic and thermal Free Energies=         -675.936723

                     E (Thermal)             CV                S
                      KCal/Mol        Cal/Mol-Kelvin    Cal/Mol-Kelvin
 Total                  223.172             66.329            146.696
 Electronic               0.000              0.000              0.000
 Translational            0.889              2.981             41.974
 Rotational               0.889              2.981             33.425
 Vibrational            221.394             60.367             71.297
 Vibration     1          0.593              1.986              7.050
 Vibration     2          0.593              1.986              6.564
 Vibration     3          0.594              1.982              5.358
 Vibration     4          0.595              1.980              5.074
 Vibration     5          0.596              1.977              4.744
 Vibration     6          0.598              1.967              4.091
 Vibration     7          0.600              1.963              3.884
 Vibration     8          0.602              1.957              3.681
 Vibration     9          0.607              1.940              3.250
 Vibration    10          0.614              1.917              2.856
 Vibration    11          0.627              1.873              2.383
 Vibration    12          0.644              1.819              2.005
 Vibration    13          0.646              1.814              1.979
 Vibration    14          0.661              1.769              1.758
 Vibration    15          0.671              1.737              1.627
 Vibration    16          0.684              1.700              1.498
 Vibration    17          0.696              1.664              1.388
 Vibration    18          0.708              1.630              1.297
 Vibration    19          0.726              1.579              1.175
 Vibration    20          0.766              1.470              0.963
 Vibration    21          0.768              1.464              0.953
 Vibration    22          0.782              1.428              0.893
 Vibration    23          0.807              1.366              0.802
 Vibration    24          0.828              1.314              0.735
 Vibration    25          0.849              1.264              0.674
 Vibration    26          0.912              1.125              0.530

                           ! Non-Optimized Parameters !
 Normal termination of Gaussian 16 at Mon May 29 17:46:29 2023.
