 Gaussian 16, Revision A.03,
 Gaussian 16:  ES64L-G16RevA.03 25-Dec-2016

 -----------------------------
 # opt freq b3lyp/6-31g(2df,p)
 -----------------------------

 -------------------
 Title Card Required
 -------------------
 Symbolic Z-matrix:
 Charge =  0 Multiplicity = 1

 SCF Done:  E(RB3LYP) =  -592.576378108     A.U. after   13 cycles
 SCF Done:  E(RB3LYP) =  -592.587192891     A.U. after   13 cycles
 SCF Done:  E(RB3LYP) =  -592.591540793     A.U. after   12 cycles
 SCF Done:  E(RB3LYP) =  -592.594952985     A.U. after   12 cycles
 SCF Done:  E(RB3LYP) =  -592.598380276     A.U. after   12 cycles
 SCF Done:  E(RB3LYP) =  -592.600663220     A.U. after   12 cycles
 SCF Done:  E(RB3LYP) =  -592.601311785     A.U. after   11 cycles
 SCF Done:  E(RB3LYP) =  -592.601513053     A.U. after   11 cycles
 SCF Done:  E(RB3LYP) =  -592.601606981     A.U. after   11 cycles
 SCF Done:  E(RB3LYP) =  -592.601688360     A.U. after   11 cycles
 SCF Done:  E(RB3LYP) =  -592.603725392     A.U. after   11 cycles
 SCF Done:  E(RB3LYP) =  -592.603744211     A.U. after    9 cycles
 SCF Done:  E(RB3LYP) =  -592.603762565     A.U. after   10 cycles
 SCF Done:  E(RB3LYP) =  -592.603766198     A.U. after    9 cycles
 SCF Done:  E(RB3LYP) =  -592.603765324     A.U. after    8 cycles
 SCF Done:  E(RB3LYP) =  -592.603762730     A.U. after    9 cycles
 SCF Done:  E(RB3LYP) =  -592.603766256     A.U. after    9 cycles
 SCF Done:  E(RB3LYP) =  -592.603763095     A.U. after    9 cycles
 SCF Done:  E(RB3LYP) =  -592.603764034     A.U. after    6 cycles
 Optimization completed.
    -- Stationary point found.
 Normal termination of Gaussian 16 at Tue May 23 17:11:21 2023.

 ----------------------------------------------------------------------
 #N Geom=AllCheck Guess=TCheck SCRF=Check GenChk RB3LYP/6-31G(2df,p) Fr
 eq
 ----------------------------------------------------------------------

 Structure from the checkpoint file:  "CdCCqNOrNCqCrC1CCdNC1.chk"
 -------------------
 Title Card Required
 -------------------
 Charge =  0 Multiplicity = 1

                         Standard orientation:
 ---------------------------------------------------------------------
 Center     Atomic      Atomic             Coordinates (Angstroms)
 Number     Number       Type             X           Y           Z
 ---------------------------------------------------------------------
      1          6           0       -2.504018   -1.307157   -1.785918
      2          6           0       -2.010968   -1.170895   -0.559064
      3          6           0       -1.677992    0.143832    0.097725
      4          7           0       -2.263127    0.193527    1.444661
      5          8           0       -3.679032    0.396025    1.306925
      6          7           0       -0.242507    0.338102    0.301594
      7          6           0        0.534850    0.708471   -0.890758
      8          6           0        0.380330    2.205468   -1.185687
      9          6           0        2.015751    0.318891   -0.702531
     10          6           0        2.638090    0.815674    0.630899
     11          6           0        2.856103   -0.478355    1.378851
     12          7           0        2.638607   -1.559429    0.745839
     13          6           0        2.227533   -1.224499   -0.625792
     14          1           0       -2.680340   -2.280978   -2.230754
     15          1           0       -2.763445   -0.443834   -2.392417
     16          1           0       -1.773424   -2.048135    0.043201
     17          1           0       -2.055706    0.966060   -0.526076
     18          1           0       -1.923305    1.056155    1.867279
     19          1           0       -4.048353   -0.403969    1.694754
     20          1           0        0.134799   -0.502057    0.729826
     21          1           0        0.178856    0.151711   -1.775391
     22          1           0        0.775170    2.811588   -0.364697
     23          1           0       -0.668911    2.480525   -1.326135
     24          1           0        0.915642    2.470841   -2.103318
     25          1           0        2.559972    0.728884   -1.556884
     26          1           0        1.980574    1.491203    1.186861
     27          1           0        3.590260    1.340666    0.486774
     28          1           0        3.188995   -0.503655    2.416650
     29          1           0        1.322283   -1.786630   -0.884730
     30          1           0        3.010292   -1.570547   -1.311352
 ---------------------------------------------------------------------

 SCF Done:  E(RB3LYP) =  -592.603764034     A.U. after    1 cycles

 The electronic state is 1-A.
 Alpha  occ. eigenvalues --  -19.15439 -14.35723 -14.31974 -14.31898 -10.23500
 Alpha  occ. eigenvalues --  -10.21973 -10.21524 -10.20401 -10.19257 -10.18915
 Alpha  occ. eigenvalues --  -10.18418 -10.18067 -10.17468  -1.04770  -0.93590
 Alpha  occ. eigenvalues --   -0.91754  -0.82517  -0.77028  -0.76359  -0.72748
 Alpha  occ. eigenvalues --   -0.71793  -0.64651  -0.61677  -0.56769  -0.56237
 Alpha  occ. eigenvalues --   -0.54967  -0.50622  -0.50177  -0.48377  -0.47461
 Alpha  occ. eigenvalues --   -0.46904  -0.45257  -0.42838  -0.42170  -0.40928
 Alpha  occ. eigenvalues --   -0.40466  -0.39687  -0.39262  -0.37721  -0.37102
 Alpha  occ. eigenvalues --   -0.35731  -0.34628  -0.33633  -0.33145  -0.28282
 Alpha  occ. eigenvalues --   -0.27856  -0.26910  -0.25456  -0.23906  -0.23040
 Alpha virt. eigenvalues --    0.00489   0.01131   0.07964   0.08909   0.09357
 Alpha virt. eigenvalues --    0.10612   0.11693   0.12365   0.12883   0.13587
 Alpha virt. eigenvalues --    0.14594   0.15147   0.15562   0.16192   0.16331

 Mulliken charges:
               1
     1  C   -0.329108
     2  C    0.044516
     3  C    0.057958
     4  N   -0.240902
     5  O   -0.419324
     6  N   -0.329617
     7  C    0.045544
     8  C   -0.391842
     9  C   -0.028839
    10  C   -0.287268
    11  C    0.013861
    12  N   -0.164643
    13  C   -0.203962
    14  H    0.114617
    15  H    0.108363
    16  H    0.091546
    17  H    0.077650
    18  H    0.233603
    19  H    0.300265
    20  H    0.232339
    21  H    0.071352
    22  H    0.119888
    23  H    0.118385
    24  H    0.110173
    25  H    0.077366
    26  H    0.129370
    27  H    0.113241
    28  H    0.108105
    29  H    0.114703
    30  H    0.112661
 Sum of Mulliken charges =  -0.00000

 Dipole moment (field-independent basis, Debye):
    X=              0.5981    Y=              1.0248    Z=             -0.9406  Tot=              1.5141
 Quadrupole moment (field-independent basis, Debye-Ang):
   XX=            -79.6421   YY=            -81.4887   ZZ=            -76.0981
   XY=              9.3108   XZ=             -1.0443   YZ=              1.7678

  Exact polarizability: 125.765   6.224 113.055   8.892   5.321 118.881
 Approx polarizability: 164.421   8.963 173.199  15.358  11.749 186.071

                      1                      2                      3
                      A                      A                      A
 Frequencies --     27.3294                46.9925                59.2873
 Red. masses --      4.2211                 4.9236                 3.3636
 Frc consts  --      0.0019                 0.0064                 0.0070
 IR Inten    --      0.3734                 2.3135                 0.5957

                      4                      5                      6
                      A                      A                      A
 Frequencies --     81.5509                90.9167               136.5139
 Red. masses --      3.1086                 3.3818                 3.2285
 Frc consts  --      0.0122                 0.0165                 0.0354
 IR Inten    --      0.1275                 1.9569                 0.2851

                      7                      8                      9
                      A                      A                      A
 Frequencies --    143.2607               211.4248               222.3288
 Red. masses --      3.0994                 1.2756                 3.2871
 Frc consts  --      0.0375                 0.0336                 0.0957
 IR Inten    --      1.0319                 0.2160                 3.0197

                     10                     11                     12
                      A                      A                      A
 Frequencies --    245.1818               269.0957               297.4520
 Red. masses --      1.9798                 1.9562                 1.4895
 Frc consts  --      0.0701                 0.0835                 0.0776
 IR Inten    --      2.6671                 3.9247                42.3373

                     13                     14                     15
                      A                      A                      A
 Frequencies --    344.6194               365.1935               382.4099
 Red. masses --      2.1203                 3.0297                 2.6377
 Frc consts  --      0.1484                 0.2381                 0.2273
 IR Inten    --     45.4890                 0.4982                14.1928

                     16                     17                     18
                      A                      A                      A
 Frequencies --    412.4416               444.5800               478.2842
 Red. masses --      2.0964                 2.8325                 2.7438
 Frc consts  --      0.2101                 0.3299                 0.3698
 IR Inten    --      3.9717                 0.5659                10.5794

                     19                     20                     21
                      A                      A                      A
 Frequencies --    516.2219               597.5492               721.4241
 Red. masses --      2.9681                 2.5063                 2.5796
 Frc consts  --      0.4660                 0.5273                 0.7910
 IR Inten    --      2.0665                 0.6123                 0.9701

                     22                     23                     24
                      A                      A                      A
 Frequencies --    728.9163               774.0880               785.8427
 Red. masses --      1.8284                 1.7591                 2.7793
 Frc consts  --      0.5724                 0.6210                 1.0112
 IR Inten    --     33.1451                46.6729                 8.9612

                     25                     26                     27
                      A                      A                      A
 Frequencies --    821.1634               847.7433               899.0811
 Red. masses --      5.2531                 1.5046                 1.7888
 Frc consts  --      2.0870                 0.6371                 0.8519
 IR Inten    --      3.8953                 2.8259                40.8107

                     28                     29                     30
                      A                      A                      A
 Frequencies --    905.2488               911.7047               933.4647
 Red. masses --      2.5925                 1.9630                 2.6268
 Frc consts  --      1.2517                 0.9614                 1.3485
 IR Inten    --     22.9981                 5.1562                31.2259

                     31                     32                     33
                      A                      A                      A
 Frequencies --    951.2476               956.8022               968.1587
 Red. masses --      1.9647                 1.3556                 3.5574
 Frc consts  --      1.0475                 0.7312                 1.9646
 IR Inten    --      2.5914                28.2346                15.0105

                     34                     35                     36
                      A                      A                      A
 Frequencies --    991.7415              1023.2419              1034.2294
 Red. masses --      1.8749                 2.3178                 1.4783
 Frc consts  --      1.0865                 1.4298                 0.9317
 IR Inten    --      3.3226                 4.8049                11.8470

                     37                     38                     39
                      A                      A                      A
 Frequencies --   1037.2929              1055.0821              1078.9804
 Red. masses --      1.1897                 2.2050                 2.3597
 Frc consts  --      0.7542                 1.4462                 1.6185
 IR Inten    --      9.8457                35.0745                 7.2703

                     40                     41                     42
                      A                      A                      A
 Frequencies --   1099.7483              1119.9212              1156.6608
 Red. masses --      3.1622                 2.0064                 2.0372
 Frc consts  --      2.2533                 1.4827                 1.6058
 IR Inten    --     50.7712                 3.4749                 2.7412

                     43                     44                     45
                      A                      A                      A
 Frequencies --   1174.8665              1194.1776              1197.1466
 Red. masses --      2.0220                 1.5624                 1.6462
 Frc consts  --      1.6444                 1.3127                 1.3901
 IR Inten    --     47.9253                14.9461                 5.4814

                     46                     47                     48
                      A                      A                      A
 Frequencies --   1229.1874              1254.3042              1301.3639
 Red. masses --      1.1416                 1.4035                 1.3245
 Frc consts  --      1.0163                 1.3009                 1.3216
 IR Inten    --      2.2939                 7.5809                 8.5995

                     49                     50                     51
                      A                      A                      A
 Frequencies --   1305.5707              1310.8128              1326.3141
 Red. masses --      1.3215                 1.2968                 1.4412
 Frc consts  --      1.3271                 1.3128                 1.4938
 IR Inten    --     16.5191                 7.5590                 3.3306

                     52                     53                     54
                      A                      A                      A
 Frequencies --   1332.5912              1337.3539              1352.5754
 Red. masses --      1.2182                 1.2860                 1.4709
 Frc consts  --      1.2746                 1.3551                 1.5855
 IR Inten    --     33.5731                12.3192                 2.7956

                     55                     56                     57
                      A                      A                      A
 Frequencies --   1376.9510              1390.3260              1391.7232
 Red. masses --      1.3810                 1.2648                 1.3650
 Frc consts  --      1.5427                 1.4404                 1.5577
 IR Inten    --      4.8794                 9.6944                29.0964

                     58                     59                     60
                      A                      A                      A
 Frequencies --   1409.8931              1455.1718              1463.7876
 Red. masses --      1.2443                 1.1459                 1.0972
 Frc consts  --      1.4573                 1.4296                 1.3851
 IR Inten    --     13.6374                 8.0224                14.2165

                     61                     62                     63
                      A                      A                      A
 Frequencies --   1474.5966              1487.0355              1494.1460
 Red. masses --      1.1505                 1.0774                 1.0882
 Frc consts  --      1.4740                 1.4037                 1.4313
 IR Inten    --      6.2495                 9.4045                 2.0710

                     64                     65                     66
                      A                      A                      A
 Frequencies --   1499.7977              1514.0556              1708.2415
 Red. masses --      1.0517                 1.2382                 7.8692
 Frc consts  --      1.3938                 1.6724                13.5294
 IR Inten    --      2.6126                39.6478                27.2673

                     67                     68                     69
                      A                      A                      A
 Frequencies --   1711.3544              2940.1044              3008.2270
 Red. masses --      4.8381                 1.0817                 1.0825
 Frc consts  --      8.3484                 5.5092                 5.7719
 IR Inten    --      1.7075                25.9456                23.6047

                     70                     71                     72
                      A                      A                      A
 Frequencies --   3029.9698              3034.0575              3037.4953
 Red. masses --      1.0604                 1.0654                 1.0368
 Frc consts  --      5.7356                 5.7787                 5.6362
 IR Inten    --     30.3569                19.5116                22.8961

                     73                     74                     75
                      A                      A                      A
 Frequencies --   3057.9001              3074.3138              3085.0100
 Red. masses --      1.1014                 1.0873                 1.0966
 Frc consts  --      6.0678                 6.0549                 6.1491
 IR Inten    --     13.3712                26.4635                15.7469

                     76                     77                     78
                      A                      A                      A
 Frequencies --   3106.3103              3112.2705              3127.8764
 Red. masses --      1.1002                 1.1015                 1.0778
 Frc consts  --      6.2550                 6.2859                 6.2130
 IR Inten    --     35.5427                25.0687                14.3378

                     79                     80                     81
                      A                      A                      A
 Frequencies --   3134.7441              3143.3257              3222.4408
 Red. masses --      1.0923                 1.0721                 1.1145
 Frc consts  --      6.3239                 6.2409                 6.8188
 IR Inten    --     31.6924                 2.8356                12.4645

                     82                     83                     84
                      A                      A                      A
 Frequencies --   3473.2663              3514.4796              3809.8502
 Red. masses --      1.0750                 1.0736                 1.0683
 Frc consts  --      7.6406                 7.8128                 9.1361
 IR Inten    --      0.7215                 4.6722                39.1437

 - Thermochemistry -
 -------------------
 Temperature   298.150 Kelvin.  Pressure   1.00000 Atm.
 Atom     1 has atomic number  6 and mass  12.00000

 Molecular mass:   183.13716 amu.
 Principal axes and moments of inertia in atomic units:
                           1         2         3
     Eigenvalues --  1518.304954072.780014076.52765
           X            0.99984   0.01388   0.01154
           Y           -0.01708   0.93458   0.35534
           Z           -0.00585  -0.35548   0.93467
 This molecule is an asymmetric top.
 Rotational symmetry number  1.
 Warning -- assumption of classical behavior for rotation
           may cause significant error
 Rotational temperatures (Kelvin)      0.05705     0.02127     0.02125
 Rotational constants (GHZ):           1.18866     0.44312     0.44272
 Zero-point vibrational energy     686533.3 (Joules/Mol)
                                  164.08540 (Kcal/Mol)
 Warning -- explicit consideration of  20 degrees of freedom as
           vibrations may cause significant error
 Vibrational temperatures:     39.32    67.61    85.30   117.33   130.81
          (Kelvin)            196.41   206.12   304.19   319.88   352.76
                              387.17   427.97   495.83   525.43   550.20
                              593.41   639.65   688.14   742.73   859.74
                             1037.97  1048.75  1113.74  1130.65  1181.47
                             1219.71  1293.58  1302.45  1311.74  1343.05
                             1368.63  1376.62  1392.96  1426.89  1472.22
                             1488.03  1492.43  1518.03  1552.41  1582.29
                             1611.32  1664.18  1690.37  1718.16  1722.43
                             1768.53  1804.66  1872.37  1878.42  1885.97
                             1908.27  1917.30  1924.15  1946.05  1981.13
                             2000.37  2002.38  2028.52  2093.67  2106.06
                             2121.62  2139.51  2149.74  2157.87  2178.39
                             2457.78  2462.26  4230.15  4328.17  4359.45
                             4365.33  4370.28  4399.64  4423.25  4438.64
                             4469.29  4477.86  4500.32  4510.20  4522.54
                             4636.37  4997.26  5056.55  5481.52

 Zero-point correction=                           0.261487 (Hartree/Particle)
 Thermal correction to Energy=                    0.275703
 Thermal correction to Enthalpy=                  0.276648
 Thermal correction to Gibbs Free Energy=         0.219298
 Sum of electronic and zero-point Energies=           -592.342277
 Sum of electronic and thermal Energies=              -592.328061
 Sum of electronic and thermal Enthalpies=            -592.327117
 Sum of electronic and thermal Free Energies=         -592.384466

                     E (Thermal)             CV                S
                      KCal/Mol        Cal/Mol-Kelvin    Cal/Mol-Kelvin
 Total                  173.006             52.622            120.702
 Electronic               0.000              0.000              0.000
 Translational            0.889              2.981             41.522
 Rotational               0.889              2.981             31.600
 Vibrational            171.229             46.661             47.580
 Vibration     1          0.593              1.984              6.014
 Vibration     2          0.595              1.979              4.940
 Vibration     3          0.597              1.974              4.481
 Vibration     4          0.600              1.962              3.853
 Vibration     5          0.602              1.956              3.640
 Vibration     6          0.614              1.917              2.852
 Vibration     7          0.616              1.910              2.760
 Vibration     8          0.643              1.823              2.031
 Vibration     9          0.648              1.807              1.940
 Vibration    10          0.660              1.771              1.765
 Vibration    11          0.673              1.730              1.602
 Vibration    12          0.691              1.678              1.431
 Vibration    13          0.723              1.586              1.191
 Vibration    14          0.738              1.544              1.100
 Vibration    15          0.752              1.508              1.030
 Vibration    16          0.776              1.443              0.918
 Vibration    17          0.804              1.373              0.812
 Vibration    18          0.835              1.298              0.715
 Vibration    19          0.871              1.214              0.619
 Vibration    20          0.955              1.037              0.454

                           ! Non-Optimized Parameters !
 Normal termination of Gaussian 16 at Tue May 23 18:51:16 2023.
