 Gaussian 16, Revision A.03,
 Gaussian 16:  ES64L-G16RevA.03 25-Dec-2016

 -----------------------------
 # opt freq b3lyp/6-31g(2df,p)
 -----------------------------

 -------------------
 Title Card Required
 -------------------
 Symbolic Z-matrix:
 Charge =  0 Multiplicity = 1

 SCF Done:  E(RB3LYP) =  -947.204641882     A.U. after   17 cycles
 SCF Done:  E(RB3LYP) =  -947.232669554     A.U. after   13 cycles
 SCF Done:  E(RB3LYP) =  -947.221425825     A.U. after   14 cycles
 SCF Done:  E(RB3LYP) =  -947.249166826     A.U. after   13 cycles
 SCF Done:  E(RB3LYP) =  -947.255478435     A.U. after   12 cycles
 SCF Done:  E(RB3LYP) =  -947.258092897     A.U. after   12 cycles
 SCF Done:  E(RB3LYP) =  -947.259827176     A.U. after   12 cycles
 SCF Done:  E(RB3LYP) =  -947.261417454     A.U. after   12 cycles
 SCF Done:  E(RB3LYP) =  -947.262660646     A.U. after   14 cycles
 SCF Done:  E(RB3LYP) =  -947.263983691     A.U. after   11 cycles
 SCF Done:  E(RB3LYP) =  -947.268706041     A.U. after   12 cycles
 SCF Done:  E(RB3LYP) =  -947.269311160     A.U. after   12 cycles
 SCF Done:  E(RB3LYP) =  -947.269385246     A.U. after   11 cycles
 SCF Done:  E(RB3LYP) =  -947.269414764     A.U. after   10 cycles
 SCF Done:  E(RB3LYP) =  -947.269426613     A.U. after    9 cycles
 SCF Done:  E(RB3LYP) =  -947.269429301     A.U. after    9 cycles
 SCF Done:  E(RB3LYP) =  -947.269430730     A.U. after    8 cycles
 SCF Done:  E(RB3LYP) =  -947.269431116     A.U. after    7 cycles
 SCF Done:  E(RB3LYP) =  -947.269431233     A.U. after    6 cycles
 Optimization completed.
    -- Stationary point found.
 Normal termination of Gaussian 16 at Wed May 24 11:36:49 2023.

 ----------------------------------------------------------------------
 #N Geom=AllCheck Guess=TCheck SCRF=Check GenChk RB3LYP/6-31G(2df,p) Fr
 eq
 ----------------------------------------------------------------------

 Structure from the checkpoint file:  "CdCCCCdSqCCCrCCqdCrCqCrC.chk"
 -------------------
 Title Card Required
 -------------------
 Charge =  0 Multiplicity = 1

                         Standard orientation:
 ---------------------------------------------------------------------
 Center     Atomic      Atomic             Coordinates (Angstroms)
 Number     Number       Type             X           Y           Z
 ---------------------------------------------------------------------
      1          6           0       -5.580574   -1.775339   -0.531182
      2          6           0       -5.115246   -0.750433    0.177204
      3          6           0       -3.694079   -0.566281    0.622014
      4          6           0       -3.040060    0.717928    0.045146
      5          6           0       -1.656068    1.029266    0.551723
      6         16           0       -0.336175    0.544237   -0.322339
      7          6           0        1.010693    1.694475    0.158540
      8          6           0        0.754692    3.112139   -0.346549
      9          6           0        1.836318    4.091070    0.122315
     10          6           0        0.557291   -1.088046    0.296952
     11          6           0        1.839102   -1.393492   -0.414651
     12          6           0        1.832987   -1.734863   -1.709044
     13          6           0        3.111882   -1.291689    0.418269
     14          6           0        3.219287   -2.500918    1.371329
     15          6           0        4.398676   -1.142211   -0.400893
     16          1           0       -6.620471   -1.840187   -0.834440
     17          1           0       -4.937065   -2.597529   -0.833365
     18          1           0       -5.800418    0.051976    0.454132
     19          1           0       -3.095060   -1.440130    0.338067
     20          1           0       -3.655570   -0.503490    1.719220
     21          1           0       -3.702692    1.565761    0.277231
     22          1           0       -3.030190    0.641146   -1.049342
     23          1           0       -1.517579    1.193137    1.619201
     24          1           0        1.928212    1.274564   -0.261521
     25          1           0        1.082950    1.668005    1.251658
     26          1           0       -0.230975    3.433485    0.003298
     27          1           0        0.709144    3.102194   -1.442085
     28          1           0        1.879760    4.141629    1.215874
     29          1           0        1.634155    5.100210   -0.249083
     30          1           0        2.829154    3.797297   -0.235899
     31          1           0       -0.226913   -1.822103    0.102656
     32          1           0        0.670936   -0.970416    1.377681
     33          1           0        0.902924   -1.831631   -2.260310
     34          1           0        2.741770   -1.933223   -2.263695
     35          1           0        3.013354   -0.395944    1.048529
     36          1           0        3.343183   -3.426585    0.799309
     37          1           0        2.325748   -2.610346    1.992968
     38          1           0        4.081527   -2.393314    2.037608
     39          1           0        4.606176   -2.041962   -0.989769
     40          1           0        5.254255   -0.985081    0.263549
     41          1           0        4.343088   -0.294902   -1.091093
 ---------------------------------------------------------------------

 SCF Done:  E(RB3LYP) =  -947.269431233     A.U. after    1 cycles

 The electronic state is 1-A.
 Alpha  occ. eigenvalues --  -88.92915 -10.21257 -10.19655 -10.19450 -10.19340
 Alpha  occ. eigenvalues --  -10.18781 -10.18093 -10.17802 -10.17672 -10.17298
 Alpha  occ. eigenvalues --  -10.17140 -10.16964 -10.16800 -10.16233 -10.15139
 Alpha  occ. eigenvalues --   -7.98279  -5.94575  -5.94544  -5.94120  -0.84556
 Alpha  occ. eigenvalues --   -0.82012  -0.78864  -0.77344  -0.74977  -0.72199
 Alpha  occ. eigenvalues --   -0.69206  -0.67902  -0.66868  -0.62396  -0.60578
 Alpha  occ. eigenvalues --   -0.59315  -0.54084  -0.53906  -0.51671  -0.47898
 Alpha  occ. eigenvalues --   -0.47167  -0.46524  -0.45821  -0.44224  -0.43507
 Alpha  occ. eigenvalues --   -0.42459  -0.41727  -0.41365  -0.40883  -0.40009
 Alpha  occ. eigenvalues --   -0.39635  -0.39051  -0.38506  -0.37203  -0.36177
 Alpha  occ. eigenvalues --   -0.35501  -0.34981  -0.34558  -0.33782  -0.33623
 Alpha  occ. eigenvalues --   -0.33172  -0.32744  -0.32504  -0.31620  -0.28057
 Alpha  occ. eigenvalues --   -0.25294  -0.24286  -0.16072
 Alpha virt. eigenvalues --   -0.00429   0.03217   0.04622   0.06910   0.07673
 Alpha virt. eigenvalues --    0.09322   0.10144   0.11111   0.11756   0.12275
 Alpha virt. eigenvalues --    0.12568   0.13462   0.13962   0.14144   0.14573

 Mulliken charges:
               1
     1  C   -0.321436
     2  C    0.038036
     3  C   -0.215628
     4  C   -0.217322
     5  C   -0.200053
     6  S    0.133899
     7  C   -0.185633
     8  C   -0.171480
     9  C   -0.391029
    10  C   -0.359789
    11  C    0.342447
    12  C   -0.413420
    13  C   -0.043972
    14  C   -0.384542
    15  C   -0.403328
    16  H    0.104259
    17  H    0.096396
    18  H    0.080411
    19  H    0.086544
    20  H    0.093627
    21  H    0.089858
    22  H    0.101902
    23  H    0.068821
    24  H    0.134639
    25  H    0.121505
    26  H    0.125193
    27  H    0.110818
    28  H    0.117186
    29  H    0.120769
    30  H    0.115486
    31  H    0.130734
    32  H    0.111897
    33  H    0.108896
    34  H    0.106370
    35  H    0.072151
    36  H    0.121079
    37  H    0.115263
    38  H    0.111580
    39  H    0.121111
    40  H    0.111138
    41  H    0.115613
 Sum of Mulliken charges =  -0.00000

 Dipole moment (field-independent basis, Debye):
    X=              2.6492    Y=              0.4318    Z=              0.7667  Tot=              2.7915
 Quadrupole moment (field-independent basis, Debye-Ang):
   XX=           -106.2269   YY=           -102.9295   ZZ=           -103.5360
   XY=              0.0025   XZ=              0.6376   YZ=              1.1333

  Exact polarizability: 239.085  -8.686 184.152  -2.324  15.599 148.504
 Approx polarizability: 305.182 -29.924 272.659 -12.094  38.369 252.365

                      1                      2                      3
                      A                      A                      A
 Frequencies --     27.2498                29.2232                40.5828
 Red. masses --      3.3964                 4.0874                 3.0249
 Frc consts  --      0.0015                 0.0021                 0.0029
 IR Inten    --      0.0435                 0.0527                 0.4132

                      4                      5                      6
                      A                      A                      A
 Frequencies --     45.4440                50.6866                67.2511
 Red. masses --      3.1386                 2.4392                 2.1139
 Frc consts  --      0.0038                 0.0037                 0.0056
 IR Inten    --      0.2049                 0.0825                 0.1198

                      7                      8                      9
                      A                      A                      A
 Frequencies --     73.4040                86.2334               108.1704
 Red. masses --      2.8514                 2.0756                 2.7951
 Frc consts  --      0.0091                 0.0091                 0.0193
 IR Inten    --      0.2022                 0.0441                 0.7148

                     10                     11                     12
                      A                      A                      A
 Frequencies --    121.1946               142.2774               163.5796
 Red. masses --      2.9240                 3.3478                 3.2074
 Frc consts  --      0.0253                 0.0399                 0.0506
 IR Inten    --      2.9808                 0.6419                 6.0376

                     13                     14                     15
                      A                      A                      A
 Frequencies --    226.2469               230.2517               231.5456
 Red. masses --      2.7046                 1.2382                 1.7572
 Frc consts  --      0.0816                 0.0387                 0.0555
 IR Inten    --      2.2120                 0.1026                 0.7603

                     16                     17                     18
                      A                      A                      A
 Frequencies --    246.6174               247.7101               271.4558
 Red. masses --      2.5320                 1.2522                 1.0671
 Frc consts  --      0.0907                 0.0453                 0.0463
 IR Inten    --      1.3418                 0.5581                 0.1385

                     19                     20                     21
                      A                      A                      A
 Frequencies --    293.1532               304.0361               327.7023
 Red. masses --      2.7315                 2.7543                 2.7752
 Frc consts  --      0.1383                 0.1500                 0.1756
 IR Inten    --      1.3142                 4.2209                 1.5067

                     22                     23                     24
                      A                      A                      A
 Frequencies --    356.2839               363.8340               414.0982
 Red. masses --      2.3797                 3.7584                 2.2413
 Frc consts  --      0.1780                 0.2931                 0.2264
 IR Inten    --      1.0478                 4.0004                 2.2574

                     25                     26                     27
                      A                      A                      A
 Frequencies --    430.9936               458.7153               481.7499
 Red. masses --      2.1825                 2.3647                 3.8917
 Frc consts  --      0.2389                 0.2932                 0.5322
 IR Inten    --      1.5030                13.2998                53.6270

                     28                     29                     30
                      A                      A                      A
 Frequencies --    517.6308               591.0565               647.0500
 Red. masses --      2.7806                 1.4084                 1.4830
 Frc consts  --      0.4390                 0.2899                 0.3658
 IR Inten    --     28.1973               107.0240                15.2614

                     31                     32                     33
                      A                      A                      A
 Frequencies --    678.5601               700.8752               721.6999
 Red. masses --      3.0978                 2.7358                 1.4976
 Frc consts  --      0.8404                 0.7918                 0.4596
 IR Inten    --      3.1920                 1.2044                 3.6518

                     34                     35                     36
                      A                      A                      A
 Frequencies --    749.0851               759.2667               769.4711
 Red. masses --      1.1230                 1.5178                 1.5291
 Frc consts  --      0.3713                 0.5155                 0.5334
 IR Inten    --      2.7748                 2.3465                 3.8678

                     37                     38                     39
                      A                      A                      A
 Frequencies --    848.5485               865.2676               889.1478
 Red. masses --      1.3757                 1.7642                 2.1368
 Frc consts  --      0.5836                 0.7782                 0.9953
 IR Inten    --      1.5147                21.3621                14.3281

                     40                     41                     42
                      A                      A                      A
 Frequencies --    905.3182               913.6393               918.9802
 Red. masses --      2.3704                 1.7953                 1.4217
 Frc consts  --      1.1447                 0.8829                 0.7074
 IR Inten    --      3.3499                 1.3736                31.2350

                     43                     44                     45
                      A                      A                      A
 Frequencies --    929.8179               937.6211               940.9741
 Red. masses --      1.1673                 1.5616                 1.4308
 Frc consts  --      0.5946                 0.8089                 0.7464
 IR Inten    --      0.8515                 6.3081                24.1996

                     46                     47                     48
                      A                      A                      A
 Frequencies --    964.6570               970.7867               992.8909
 Red. masses --      1.5514                 1.7616                 2.9807
 Frc consts  --      0.8506                 0.9782                 1.7313
 IR Inten    --      3.9489                 5.3855                 5.1147

                     49                     50                     51
                      A                      A                      A
 Frequencies --   1013.2877              1043.2458              1045.4082
 Red. masses --      1.8733                 2.6098                 1.1602
 Frc consts  --      1.1332                 1.6735                 0.7471
 IR Inten    --      1.1483                 0.4468                 6.8547

                     52                     53                     54
                      A                      A                      A
 Frequencies --   1069.3267              1087.9467              1099.4458
 Red. masses --      1.3332                 1.3794                 1.5906
 Frc consts  --      0.8982                 0.9620                 1.1328
 IR Inten    --      4.3666                 1.5156                38.5029

                     55                     56                     57
                      A                      A                      A
 Frequencies --   1113.1606              1119.8894              1129.1562
 Red. masses --      2.0183                 1.5891                 2.1877
 Frc consts  --      1.4735                 1.1742                 1.6434
 IR Inten    --     11.3294                 1.1001                23.2842

                     58                     59                     60
                      A                      A                      A
 Frequencies --   1134.0188              1181.7523              1187.4888
 Red. masses --      1.8040                 1.3022                 1.7004
 Frc consts  --      1.3669                 1.0715                 1.4128
 IR Inten    --     10.2575                 8.2533                29.1348

                     61                     62                     63
                      A                      A                      A
 Frequencies --   1212.6482              1243.0554              1254.2798
 Red. masses --      1.5434                 1.3965                 1.2968
 Frc consts  --      1.3372                 1.2714                 1.2020
 IR Inten    --      0.9402                 0.5152                19.1584

                     64                     65                     66
                      A                      A                      A
 Frequencies --   1262.1642              1266.8364              1299.1969
 Red. masses --      1.7949                 1.3111                 1.2194
 Frc consts  --      1.6847                 1.2398                 1.2127
 IR Inten    --     39.5779                 5.3478                 1.1453

                     67                     68                     69
                      A                      A                      A
 Frequencies --   1318.8443              1329.7597              1330.0417
 Red. masses --      1.1141                 1.2631                 1.3316
 Frc consts  --      1.1418                 1.3160                 1.3879
 IR Inten    --      2.8990                 0.6722                 1.4676

                     70                     71                     72
                      A                      A                      A
 Frequencies --   1345.4682              1362.1295              1367.2099
 Red. masses --      1.2393                 1.4339                 1.4553
 Frc consts  --      1.3218                 1.5675                 1.6028
 IR Inten    --      9.1489                15.1189                 9.4939

                     73                     74                     75
                      A                      A                      A
 Frequencies --   1375.8873              1397.4731              1412.0728
 Red. masses --      1.5649                 1.2680                 1.2260
 Frc consts  --      1.7454                 1.4590                 1.4403
 IR Inten    --      1.7192                 4.5680                 1.0813

                     76                     77                     78
                      A                      A                      A
 Frequencies --   1415.8592              1448.4713              1451.5868
 Red. masses --      1.2210                 1.1575                 1.1368
 Frc consts  --      1.4421                 1.4308                 1.4113
 IR Inten    --      5.6359                 5.2470                 0.5817

                     79                     80                     81
                      A                      A                      A
 Frequencies --   1461.0709              1463.8999              1466.0646
 Red. masses --      1.1112                 1.1237                 1.1262
 Frc consts  --      1.3976                 1.4188                 1.4262
 IR Inten    --      1.3386                 6.0464                 4.5643

                     82                     83                     84
                      A                      A                      A
 Frequencies --   1485.0682              1485.4131              1492.5747
 Red. masses --      1.1078                 1.0464                 1.0568
 Frc consts  --      1.4395                 1.3603                 1.3871
 IR Inten    --      3.6683                 0.3743                 2.0242

                     85                     86                     87
                      A                      A                      A
 Frequencies --   1493.4248              1499.3796              1502.9578
 Red. masses --      1.0495                 1.0406                 1.0428
 Frc consts  --      1.3791                 1.3784                 1.3879
 IR Inten    --      1.8713                 5.9029                 5.5348

                     88                     89                     90
                      A                      A                      A
 Frequencies --   1509.7815              1513.7179              1685.1180
 Red. masses --      1.0815                 1.0638                 4.7698
 Frc consts  --      1.4525                 1.4361                 7.9802
 IR Inten    --      2.8324                 1.9136                28.5256

                     91                     92                     93
                      A                      A                      A
 Frequencies --   1714.4421              2981.8434              2995.6721
 Red. masses --      4.8239                 1.0669                 1.0814
 Frc consts  --      8.3540                 5.5890                 5.7177
 IR Inten    --     14.4140                54.3825                22.1675

                     94                     95                     96
                      A                      A                      A
 Frequencies --   3000.7059              3029.7998              3030.2039
 Red. masses --      1.0643                 1.0363                 1.0344
 Frc consts  --      5.6461                 5.6046                 5.5961
 IR Inten    --     28.5505                26.2370                25.2622

                     97                     98                     99
                      A                      A                      A
 Frequencies --   3034.5527              3035.2014              3039.9554
 Red. masses --      1.0372                 1.0609                 1.0891
 Frc consts  --      5.6273                 5.7582                 5.9298
 IR Inten    --     21.8211                 2.8297                11.2286

                    100                    101                    102
                      A                      A                      A
 Frequencies --   3045.0299              3059.1871              3062.4395
 Red. masses --      1.0606                 1.0993                 1.0581
 Frc consts  --      5.7943                 6.0615                 5.8466
 IR Inten    --     26.5594                30.8985                 7.2592

                    103                    104                    105
                      A                      A                      A
 Frequencies --   3078.9461              3097.5911              3099.6789
 Red. masses --      1.0972                 1.1014                 1.1014
 Frc consts  --      6.1284                 6.2267                 6.2351
 IR Inten    --      1.4886                 2.5589                16.3187

                    106                    107                    108
                      A                      A                      A
 Frequencies --   3103.5483              3105.5478              3105.9121
 Red. masses --      1.1014                 1.1006                 1.1019
 Frc consts  --      6.2504                 6.2539                 6.2628
 IR Inten    --     43.7297                38.8315                20.4090

                    109                    110                    111
                      A                      A                      A
 Frequencies --   3107.4643              3116.8141              3118.9234
 Red. masses --      1.1011                 1.1032                 1.0815
 Frc consts  --      6.2647                 6.3146                 6.1988
 IR Inten    --     42.5049                28.0883                27.7400

                    112                    113                    114
                      A                      A                      A
 Frequencies --   3124.6384              3125.7593              3137.9002
 Red. masses --      1.0867                 1.1064                 1.0677
 Frc consts  --      6.2512                 6.3691                 6.1940
 IR Inten    --     23.8132                 3.1406                 7.0454

                    115                    116                    117
                      A                      A                      A
 Frequencies --   3153.8202              3217.4287              3236.9246
 Red. masses --      1.0615                 1.1141                 1.1128
 Frc consts  --      6.2207                 6.7948                 6.8694
 IR Inten    --      5.0409                23.0304                 8.9111

 - Thermochemistry -
 -------------------
 Temperature   298.150 Kelvin.  Pressure   1.00000 Atm.
 Atom     1 has atomic number  6 and mass  12.00000

 Molecular mass:   226.17552 amu.
 Principal axes and moments of inertia in atomic units:
                           1         2         3
     Eigenvalues --  3125.786457237.243179503.37639
           X            1.00000   0.00213   0.00225
           Y           -0.00213   1.00000   0.00013
           Z           -0.00225  -0.00013   1.00000
 This molecule is an asymmetric top.
 Rotational symmetry number  1.
 Warning -- assumption of classical behavior for rotation
           may cause significant error
 Rotational temperatures (Kelvin)      0.02771     0.01197     0.00911
 Rotational constants (GHZ):           0.57737     0.24937     0.18991
 Zero-point vibrational energy     959330.6 (Joules/Mol)
                                  229.28551 (Kcal/Mol)
 Warning -- explicit consideration of  29 degrees of freedom as
           vibrations may cause significant error
 Vibrational temperatures:     39.21    42.05    58.39    65.38    72.93
          (Kelvin)             96.76   105.61   124.07   155.63   174.37
                              204.71   235.35   325.52   331.28   333.14
                              354.83   356.40   390.56   421.78   437.44
                              471.49   512.61   523.48   595.79   620.10
                              659.99   693.13   744.76   850.40   930.96
                              976.30  1008.40  1038.37  1077.77  1092.42
                             1107.10  1220.87  1244.93  1279.29  1302.55
                             1314.52  1322.21  1337.80  1349.03  1353.85
                             1387.93  1396.75  1428.55  1457.89  1501.00
                             1504.11  1538.52  1565.31  1581.86  1601.59
                             1611.27  1624.60  1631.60  1700.28  1708.53
                             1744.73  1788.48  1804.63  1815.97  1822.69
                             1869.25  1897.52  1913.23  1913.63  1935.83
                             1959.80  1967.11  1979.59  2010.65  2031.66
                             2037.11  2084.03  2088.51  2102.16  2106.23
                             2109.34  2136.68  2137.18  2147.48  2148.71
                             2157.27  2162.42  2172.24  2177.90  2424.51
                             2466.70  4290.21  4310.10  4317.35  4359.21
                             4359.79  4366.04  4366.98  4373.82  4381.12
                             4401.49  4406.17  4429.92  4456.74  4459.75
                             4465.31  4468.19  4468.71  4470.95  4484.40
                             4487.44  4495.66  4497.27  4514.74  4537.64
                             4629.16  4657.21

 Zero-point correction=                           0.365390 (Hartree/Particle)
 Thermal correction to Energy=                    0.385811
 Thermal correction to Enthalpy=                  0.386755
 Thermal correction to Gibbs Free Energy=         0.314130
 Sum of electronic and zero-point Energies=           -946.904042
 Sum of electronic and thermal Energies=              -946.883620
 Sum of electronic and thermal Enthalpies=            -946.882676
 Sum of electronic and thermal Free Energies=         -946.955301

                     E (Thermal)             CV                S
                      KCal/Mol        Cal/Mol-Kelvin    Cal/Mol-Kelvin
 Total                  242.100             73.855            152.852
 Electronic               0.000              0.000              0.000
 Translational            0.889              2.981             42.151
 Rotational               0.889              2.981             33.730
 Vibrational            240.323             67.894             76.971
 Vibration     1          0.593              1.984              6.020
 Vibration     2          0.593              1.984              5.881
 Vibration     3          0.594              1.981              5.230
 Vibration     4          0.595              1.979              5.006
 Vibration     5          0.595              1.977              4.790
 Vibration     6          0.598              1.970              4.232
 Vibration     7          0.599              1.967              4.060
 Vibration     8          0.601              1.959              3.744
 Vibration     9          0.606              1.943              3.301
 Vibration    10          0.609              1.932              3.081
 Vibration    11          0.616              1.911              2.773
 Vibration    12          0.623              1.887              2.508
 Vibration    13          0.650              1.801              1.909
 Vibration    14          0.652              1.795              1.877
 Vibration    15          0.653              1.793              1.867
 Vibration    16          0.661              1.768              1.755
 Vibration    17          0.661              1.767              1.747
 Vibration    18          0.675              1.726              1.587
 Vibration    19          0.688              1.686              1.456
 Vibration    20          0.695              1.666              1.395
 Vibration    21          0.711              1.620              1.271
 Vibration    22          0.732              1.562              1.138
 Vibration    23          0.737              1.547              1.106
 Vibration    24          0.778              1.440              0.912
 Vibration    25          0.792              1.403              0.855
 Vibration    26          0.817              1.342              0.770
 Vibration    27          0.838              1.291              0.705
 Vibration    28          0.873              1.211              0.615
 Vibration    29          0.948              1.051              0.465

 Optimization completed.
    -- Stationary point found.
 Normal termination of Gaussian 16 at Wed May 24 14:34:06 2023.
