 Gaussian 16, Revision A.03,
 Gaussian 16:  ES64L-G16RevA.03 25-Dec-2016

 -----------------------------
 # opt freq b3lyp/6-31g(2df,p)
 -----------------------------

 -------------------
 Title Card Required
 -------------------
 Symbolic Z-matrix:
 Charge =  0 Multiplicity = 1

 SCF Done:  E(RB3LYP) =  -586.286020062     A.U. after   12 cycles
 SCF Done:  E(RB3LYP) =  -586.297004894     A.U. after   11 cycles
 SCF Done:  E(RB3LYP) =  -586.299404405     A.U. after   10 cycles
 SCF Done:  E(RB3LYP) =  -586.300598961     A.U. after   11 cycles
 SCF Done:  E(RB3LYP) =  -586.300889580     A.U. after   10 cycles
 SCF Done:  E(RB3LYP) =  -586.301036137     A.U. after    9 cycles
 SCF Done:  E(RB3LYP) =  -586.301203630     A.U. after   10 cycles
 SCF Done:  E(RB3LYP) =  -586.301227618     A.U. after    9 cycles
 SCF Done:  E(RB3LYP) =  -586.301380721     A.U. after    9 cycles
 SCF Done:  E(RB3LYP) =  -586.303305612     A.U. after   12 cycles
 SCF Done:  E(RB3LYP) =  -586.303485173     A.U. after   11 cycles
 SCF Done:  E(RB3LYP) =  -586.303652661     A.U. after   10 cycles
 SCF Done:  E(RB3LYP) =  -586.303787890     A.U. after    9 cycles
 SCF Done:  E(RB3LYP) =  -586.303797811     A.U. after    9 cycles
 SCF Done:  E(RB3LYP) =  -586.303801801     A.U. after    9 cycles
 SCF Done:  E(RB3LYP) =  -586.303802860     A.U. after    8 cycles
 SCF Done:  E(RB3LYP) =  -586.303803242     A.U. after    7 cycles
 SCF Done:  E(RB3LYP) =  -586.303803322     A.U. after    6 cycles
 Optimization completed.
    -- Stationary point found.
 Normal termination of Gaussian 16 at Tue May 23 00:54:14 2023.

 ----------------------------------------------------------------------
 #N Geom=AllCheck Guess=TCheck SCRF=Check GenChk RB3LYP/6-31G(2df,p) Fr
 eq
 ----------------------------------------------------------------------

 Structure from the checkpoint file:  "CdCCCqOrCCqCrCCCCCC.chk"
 -------------------
 Title Card Required
 -------------------
 Charge =  0 Multiplicity = 1

                         Standard orientation:
 ---------------------------------------------------------------------
 Center     Atomic      Atomic             Coordinates (Angstroms)
 Number     Number       Type             X           Y           Z
 ---------------------------------------------------------------------
      1          6           0       -6.201369   -1.701448   -0.632289
      2          6           0       -5.507816   -0.652378   -0.201893
      3          6           0       -4.198284   -0.725346    0.529330
      4          6           0       -3.097436    0.140662   -0.119505
      5          8           0       -3.528097    1.500136   -0.213507
      6          6           0       -1.752955   -0.018014    0.606041
      7          6           0       -0.510544    0.560752   -0.104474
      8          6           0       -0.483948    2.097293   -0.085563
      9          6           0        0.767408   -0.045254    0.511414
     10          6           0        2.075471    0.307251   -0.207259
     11          6           0        3.293261   -0.420916    0.373905
     12          6           0        4.608353   -0.072907   -0.331220
     13          6           0        5.825833   -0.801751    0.247739
     14          6           0        7.135497   -0.448041   -0.462127
     15          1           0       -7.141670   -1.587253   -1.161507
     16          1           0       -5.859585   -2.720432   -0.470106
     17          1           0       -5.876391    0.353757   -0.388501
     18          1           0       -3.860026   -1.765949    0.592902
     19          1           0       -4.328769   -0.374543    1.566154
     20          1           0       -2.978910   -0.175739   -1.163519
     21          1           0       -3.571457    1.852492    0.682922
     22          1           0       -1.593444   -1.092996    0.760743
     23          1           0       -1.840308    0.417329    1.614475
     24          1           0       -0.555253    0.234966   -1.155030
     25          1           0       -0.390619    2.467230    0.944142
     26          1           0       -1.400553    2.508206   -0.510686
     27          1           0        0.363931    2.490381   -0.653522
     28          1           0        0.664019   -1.139093    0.525756
     29          1           0        0.838057    0.263431    1.565060
     30          1           0        2.253385    1.388554   -0.160814
     31          1           0        1.980917    0.060175   -1.274327
     32          1           0        3.128357   -1.506253    0.319646
     33          1           0        3.381376   -0.183607    1.443553
     34          1           0        4.775401    1.012078   -0.275046
     35          1           0        4.520624   -0.308029   -1.401418
     36          1           0        5.659047   -1.885726    0.190535
     37          1           0        5.913183   -0.566361    1.316883
     38          1           0        7.090604   -0.704512   -1.526573
     39          1           0        7.985196   -0.983500   -0.026829
     40          1           0        7.346833    0.624891   -0.391430
 ---------------------------------------------------------------------

 SCF Done:  E(RB3LYP) =  -586.303803322     A.U. after    1 cycles

 The electronic state is 1-A.
 Alpha  occ. eigenvalues --  -19.13681 -10.23108 -10.18333 -10.18290 -10.17975
 Alpha  occ. eigenvalues --  -10.17867 -10.17497 -10.17321 -10.17302 -10.17276
 Alpha  occ. eigenvalues --  -10.17260 -10.17001 -10.16915 -10.16143  -1.01770
 Alpha  occ. eigenvalues --   -0.81508  -0.79715  -0.78720  -0.75546  -0.72825
 Alpha  occ. eigenvalues --   -0.69371  -0.67358  -0.63988  -0.60647  -0.58290
 Alpha  occ. eigenvalues --   -0.57100  -0.55954  -0.54510  -0.48147  -0.47668
 Alpha  occ. eigenvalues --   -0.47307  -0.45058  -0.44938  -0.43160  -0.42884
 Alpha  occ. eigenvalues --   -0.42194  -0.41793  -0.39871  -0.39386  -0.38956
 Alpha  occ. eigenvalues --   -0.37982  -0.36550  -0.36028  -0.35172  -0.34813
 Alpha  occ. eigenvalues --   -0.34704  -0.33341  -0.32689  -0.32410  -0.31727
 Alpha  occ. eigenvalues --   -0.31632  -0.31476  -0.30873  -0.30066  -0.26736
 Alpha  occ. eigenvalues --   -0.24572
 Alpha virt. eigenvalues --    0.02402   0.07156   0.09090   0.09854   0.10651
 Alpha virt. eigenvalues --    0.11701   0.11826   0.12286   0.12890   0.13402
 Alpha virt. eigenvalues --    0.13632   0.14753   0.15282   0.15726   0.16269

 Mulliken charges:
               1
     1  C   -0.324914
     2  C    0.035793
     3  C   -0.252736
     4  C    0.115997
     5  O   -0.421331
     6  C   -0.211896
     7  C    0.024055
     8  C   -0.403280
     9  C   -0.181695
    10  C   -0.195754
    11  C   -0.176372
    12  C   -0.159398
    13  C   -0.162817
    14  C   -0.379018
    15  H    0.109443
    16  H    0.098313
    17  H    0.099094
    18  H    0.098425
    19  H    0.092643
    20  H    0.092823
    21  H    0.275778
    22  H    0.092982
    23  H    0.079645
    24  H    0.069024
    25  H    0.097814
    26  H    0.137558
    27  H    0.110560
    28  H    0.085285
    29  H    0.087264
    30  H    0.097309
    31  H    0.090275
    32  H    0.089577
    33  H    0.090123
    34  H    0.089939
    35  H    0.089903
    36  H    0.092621
    37  H    0.092580
    38  H    0.112493
    39  H    0.109445
    40  H    0.112449
 Sum of Mulliken charges =  -0.00000

 Dipole moment (field-independent basis, Debye):
    X=              0.5500    Y=             -0.4496    Z=              1.2452  Tot=              1.4336
 Quadrupole moment (field-independent basis, Debye-Ang):
   XX=            -96.5836   YY=            -90.9175   ZZ=            -90.7562
   XY=              0.5296   XZ=             -3.8732   YZ=              3.4094

  Exact polarizability: 192.462   8.399 138.464   6.290   3.186 119.953
 Approx polarizability: 204.495  10.093 211.424   9.528   8.947 191.303

                      1                      2                      3
                      A                      A                      A
 Frequencies --     23.2287                30.9899                44.7957
 Red. masses --      3.6891                 2.1189                 2.8623
 Frc consts  --      0.0012                 0.0012                 0.0034
 IR Inten    --      0.2513                 0.1993                 0.2510

                      4                      5                      6
                      A                      A                      A
 Frequencies --     56.3711                58.6013                95.3634
 Red. masses --      2.5444                 3.0357                 3.0409
 Frc consts  --      0.0048                 0.0061                 0.0163
 IR Inten    --      0.0604                 0.1266                 0.2505

                      7                      8                      9
                      A                      A                      A
 Frequencies --     97.2880               118.4476               125.9999
 Red. masses --      2.3875                 2.4364                 1.8690
 Frc consts  --      0.0133                 0.0201                 0.0175
 IR Inten    --      0.1281                 0.2756                 0.0880

                     10                     11                     12
                      A                      A                      A
 Frequencies --    139.2778               158.2547               182.8907
 Red. masses --      2.2190                 1.8842                 3.6006
 Frc consts  --      0.0254                 0.0278                 0.0710
 IR Inten    --      0.2265                 0.2738                 0.1914

                     13                     14                     15
                      A                      A                      A
 Frequencies --    197.5143               247.2830               254.6244
 Red. masses --      3.3265                 1.1164                 1.2518
 Frc consts  --      0.0765                 0.0402                 0.0478
 IR Inten    --      0.2514                 0.1894                 4.8185

                     16                     17                     18
                      A                      A                      A
 Frequencies --    275.2729               285.2474               315.8244
 Red. masses --      3.0644                 2.1880                 1.9011
 Frc consts  --      0.1368                 0.1049                 0.1117
 IR Inten    --      0.9988                27.0752                13.0637

                     19                     20                     21
                      A                      A                      A
 Frequencies --    334.2816               396.0787               400.2003
 Red. masses --      1.5798                 2.8029                 2.9721
 Frc consts  --      0.1040                 0.2591                 0.2805
 IR Inten    --    105.3679                 1.2075                 4.6649

                     22                     23                     24
                      A                      A                      A
 Frequencies --    417.9384               447.2863               479.2704
 Red. masses --      2.0117                 2.0966                 2.0856
 Frc consts  --      0.2070                 0.2471                 0.2823
 IR Inten    --      0.0556                 3.2744                 3.2386

                     25                     26                     27
                      A                      A                      A
 Frequencies --    521.6081               543.9603               676.6353
 Red. masses --      2.6686                 1.9535                 1.7974
 Frc consts  --      0.4278                 0.3406                 0.4848
 IR Inten    --      2.8847                 8.0269                19.5370

                     28                     29                     30
                      A                      A                      A
 Frequencies --    731.8235               743.0017               789.6726
 Red. masses --      1.0645                 1.1126                 1.2304
 Frc consts  --      0.3359                 0.3619                 0.4521
 IR Inten    --      3.9049                 0.0936                 0.9190

                     31                     32                     33
                      A                      A                      A
 Frequencies --    838.0069               852.1605               867.5953
 Red. masses --      2.6254                 2.3762                 1.4999
 Frc consts  --      1.0863                 1.0166                 0.6652
 IR Inten    --      0.6851                 3.8691                 0.1714

                     34                     35                     36
                      A                      A                      A
 Frequencies --    887.6788               899.2490               929.2981
 Red. masses --      1.3775                 1.8554                 2.1355
 Frc consts  --      0.6395                 0.8840                 1.0866
 IR Inten    --      2.3150                 1.8675                 5.6378

                     37                     38                     39
                      A                      A                      A
 Frequencies --    946.6419               960.1126               965.9379
 Red. masses --      1.3490                 1.8664                 1.3721
 Frc consts  --      0.7123                 1.0137                 0.7543
 IR Inten    --     31.5287                 2.6297                11.7822

                     40                     41                     42
                      A                      A                      A
 Frequencies --    984.9544              1008.1708              1025.8507
 Red. masses --      1.6255                 3.3058                 2.1329
 Frc consts  --      0.9291                 1.9797                 1.3225
 IR Inten    --     15.6273                 0.6286                 0.3940

                     43                     44                     45
                      A                      A                      A
 Frequencies --   1036.6478              1047.5045              1050.7680
 Red. masses --      2.3631                 1.4483                 1.1627
 Frc consts  --      1.4962                 0.9363                 0.7563
 IR Inten    --      6.6522                 9.9144                10.5746

                     46                     47                     48
                      A                      A                      A
 Frequencies --   1060.2509              1070.9088              1076.6111
 Red. masses --      2.2726                 2.3215                 2.7009
 Frc consts  --      1.5052                 1.5687                 1.8445
 IR Inten    --      1.2755                 2.5187                10.0671

                     49                     50                     51
                      A                      A                      A
 Frequencies --   1105.6384              1119.1387              1141.9548
 Red. masses --      1.9104                 1.5515                 1.8043
 Frc consts  --      1.3760                 1.1449                 1.3863
 IR Inten    --      1.0289                43.2639                27.4880

                     52                     53                     54
                      A                      A                      A
 Frequencies --   1149.3723              1182.6437              1216.1710
 Red. masses --      2.8230                 1.7077                 1.6696
 Frc consts  --      2.1972                 1.4073                 1.4550
 IR Inten    --      9.5240                11.4203                 3.1414

                     55                     56                     57
                      A                      A                      A
 Frequencies --   1219.2954              1237.9483              1252.6073
 Red. masses --      1.4711                 1.4848                 1.3000
 Frc consts  --      1.2886                 1.3406                 1.2018
 IR Inten    --      2.9445                 1.6150                 3.0607

                     58                     59                     60
                      A                      A                      A
 Frequencies --   1277.0569              1284.4482              1304.3349
 Red. masses --      1.2090                 1.3170                 1.2674
 Frc consts  --      1.1617                 1.2802                 1.2704
 IR Inten    --      0.8990                 1.2249                 1.3951

                     61                     62                     63
                      A                      A                      A
 Frequencies --   1316.9945              1322.0959              1329.1635
 Red. masses --      1.2443                 1.1665                 1.0772
 Frc consts  --      1.2716                 1.2013                 1.1212
 IR Inten    --      0.2484                 1.0121                 0.3546

                     64                     65                     66
                      A                      A                      A
 Frequencies --   1336.3786              1337.5813              1345.8416
 Red. masses --      1.2450                 1.1309                 1.3722
 Frc consts  --      1.3100                 1.1921                 1.4644
 IR Inten    --      1.2686                 0.1469                 3.9562

                     67                     68                     69
                      A                      A                      A
 Frequencies --   1361.3794              1375.8199              1382.5756
 Red. masses --      1.3535                 1.4216                 1.3281
 Frc consts  --      1.4779                 1.5854                 1.4958
 IR Inten    --      1.4774                 4.6590                 3.9130

                     70                     71                     72
                      A                      A                      A
 Frequencies --   1385.4956              1399.1184              1400.7023
 Red. masses --      1.5476                 1.4710                 1.6046
 Frc consts  --      1.7504                 1.6965                 1.8548
 IR Inten    --      5.1843                 0.5263                 1.6936

                     73                     74                     75
                      A                      A                      A
 Frequencies --   1413.0803              1414.4322              1419.6733
 Red. masses --      1.2619                 1.2896                 1.1965
 Frc consts  --      1.4846                 1.5201                 1.4208
 IR Inten    --      3.3311                 9.4385                33.6693

                     76                     77                     78
                      A                      A                      A
 Frequencies --   1453.5797              1466.7818              1476.1892
 Red. masses --      1.1472                 1.1219                 1.1030
 Frc consts  --      1.4281                 1.4221                 1.4161
 IR Inten    --      2.4387                 3.6922                 1.2923

                     79                     80                     81
                      A                      A                      A
 Frequencies --   1482.3052              1483.0865              1486.4975
 Red. masses --      1.0816                 1.0722                 1.0755
 Frc consts  --      1.4002                 1.3894                 1.4002
 IR Inten    --      0.6115                 0.1042                 0.3973

                     82                     83                     84
                      A                      A                      A
 Frequencies --   1495.8548              1499.8371              1500.6132
 Red. masses --      1.0763                 1.0403                 1.0546
 Frc consts  --      1.4190                 1.3788                 1.3992
 IR Inten    --      0.4812                 4.9068                 3.0415

                     85                     86                     87
                      A                      A                      A
 Frequencies --   1506.9200              1514.9129              1516.8329
 Red. masses --      1.0843                 1.0915                 1.0512
 Frc consts  --      1.4507                 1.4759                 1.4249
 IR Inten    --      0.0872                 1.6494                 7.3651

                     88                     89                     90
                      A                      A                      A
 Frequencies --   1716.6643              2976.0625              2981.5101
 Red. masses --      4.8655                 1.0685                 1.0736
 Frc consts  --      8.4478                 5.5758                 5.6230
 IR Inten    --      9.1088                15.6224                 5.3367

                     91                     92                     93
                      A                      A                      A
 Frequencies --   2987.6840              2995.5167              2999.0261
 Red. masses --      1.0690                 1.0623                 1.0584
 Frc consts  --      5.6222                 5.6162                 5.6086
 IR Inten    --     11.8828                20.3956                 3.0876

                     94                     95                     96
                      A                      A                      A
 Frequencies --   3001.0010              3009.9852              3015.8825
 Red. masses --      1.0593                 1.0645                 1.0624
 Frc consts  --      5.6207                 5.6825                 5.6934
 IR Inten    --      1.2208                14.5972                96.2076

                     97                     98                     99
                      A                      A                      A
 Frequencies --   3020.1378              3023.7408              3026.6192
 Red. masses --      1.0957                 1.0492                 1.0907
 Frc consts  --      5.8883                 5.6520                 5.8866
 IR Inten    --      5.7103                18.9073                22.9500

                    100                    101                    102
                      A                      A                      A
 Frequencies --   3027.8004              3033.1331              3034.7899
 Red. masses --      1.0371                 1.0947                 1.0912
 Frc consts  --      5.6016                 5.9340                 5.9210
 IR Inten    --     43.9873                 3.8635                18.4308

                    103                    104                    105
                      A                      A                      A
 Frequencies --   3043.5146              3052.2101              3064.5763
 Red. masses --      1.0929                 1.1033                 1.0942
 Frc consts  --      5.9643                 6.0561                 6.0548
 IR Inten    --     26.8124                 4.1349                 8.0778

                    106                    107                    108
                      A                      A                      A
 Frequencies --   3066.7196              3093.8947              3095.9992
 Red. masses --      1.1015                 1.1020                 1.0919
 Frc consts  --      6.1038                 6.2151                 6.1667
 IR Inten    --    154.9030                60.7991                38.7124

                    109                    110                    111
                      A                      A                      A
 Frequencies --   3099.1862              3136.6178              3142.0686
 Red. masses --      1.1010                 1.0599                 1.0981
 Frc consts  --      6.2304                 6.1437                 6.3877
 IR Inten    --     40.5098                10.8100                 8.6524

                    112                    113                    114
                      A                      A                      A
 Frequencies --   3160.2723              3219.8279              3791.8231
 Red. masses --      1.0907                 1.1137                 1.0658
 Frc consts  --      6.4179                 6.8029                 9.0282
 IR Inten    --      6.1496                19.1854                12.5882

 - Thermochemistry -
 -------------------
 Temperature   298.150 Kelvin.  Pressure   1.00000 Atm.
 Atom     1 has atomic number  6 and mass  12.00000

 Molecular mass:   198.19837 amu.
 Principal axes and moments of inertia in atomic units:
                           1         2         3
     Eigenvalues --   898.56619********************
           X            1.00000   0.00102  -0.00183
           Y           -0.00102   0.99999   0.00307
           Z            0.00183  -0.00307   0.99999
 This molecule is an asymmetric top.
 Rotational symmetry number  1.
 Warning -- assumption of classical behavior for rotation
           may cause significant error
 Rotational temperatures (Kelvin)      0.09639     0.00713     0.00682
 Rotational constants (GHZ):           2.00847     0.14858     0.14221
 Zero-point vibrational energy     965553.8 (Joules/Mol)
                                  230.77291 (Kcal/Mol)
 Warning -- explicit consideration of  26 degrees of freedom as
           vibrations may cause significant error
 Vibrational temperatures:     33.42    44.59    64.45    81.11    84.31
          (Kelvin)            137.21   139.98   170.42   181.29   200.39
                              227.69   263.14   284.18   355.79   366.35
                              396.06   410.41   454.40   480.96   569.87
                              575.80   601.32   643.55   689.56   750.48
                              782.64   973.53  1052.93  1069.01  1136.16
                             1205.71  1226.07  1248.28  1277.17  1293.82
                             1337.05  1362.01  1381.39  1389.77  1417.13
                             1450.53  1475.97  1491.51  1507.13  1511.82
                             1525.46  1540.80  1549.00  1590.77  1610.19
                             1643.02  1653.69  1701.56  1749.80  1754.29
                             1781.13  1802.22  1837.40  1848.03  1876.65
                             1894.86  1902.20  1912.37  1922.75  1924.48
                             1936.37  1958.72  1979.50  1989.22  1993.42
                             2013.02  2015.30  2033.11  2035.05  2042.59
                             2091.38  2110.37  2123.91  2132.71  2133.83
                             2138.74  2152.20  2157.93  2159.05  2168.12
                             2179.62  2182.38  2469.90  4281.89  4289.73
                             4298.61  4309.88  4314.93  4317.77  4330.70
                             4339.18  4345.30  4350.49  4354.63  4356.33
                             4364.00  4366.39  4378.94  4391.45  4409.24
                             4412.33  4451.42  4454.45  4459.04  4512.89
                             4520.74  4546.93  4632.61  5455.59

 Zero-point correction=                           0.367760 (Hartree/Particle)
 Thermal correction to Energy=                    0.386184
 Thermal correction to Enthalpy=                  0.387128
 Thermal correction to Gibbs Free Energy=         0.319227
 Sum of electronic and zero-point Energies=           -585.936043
 Sum of electronic and thermal Energies=              -585.917620
 Sum of electronic and thermal Enthalpies=            -585.916675
 Sum of electronic and thermal Free Energies=         -585.984576

                     E (Thermal)             CV                S
                      KCal/Mol        Cal/Mol-Kelvin    Cal/Mol-Kelvin
 Total                  242.334             66.465            142.909
 Electronic               0.000              0.000              0.000
 Translational            0.889              2.981             41.757
 Rotational               0.889              2.981             33.293
 Vibrational            240.556             60.503             67.859
 Vibration     1          0.593              1.985              6.337
 Vibration     2          0.594              1.984              5.765
 Vibration     3          0.595              1.979              5.035
 Vibration     4          0.596              1.975              4.580
 Vibration     5          0.596              1.974              4.504
 Vibration     6          0.603              1.953              3.547
 Vibration     7          0.603              1.951              3.508
 Vibration     8          0.609              1.934              3.126
 Vibration     9          0.611              1.927              3.006
 Vibration    10          0.615              1.914              2.814
 Vibration    11          0.621              1.893              2.571
 Vibration    12          0.630              1.863              2.299
 Vibration    13          0.637              1.843              2.156
 Vibration    14          0.661              1.767              1.750
 Vibration    15          0.665              1.755              1.698
 Vibration    16          0.677              1.719              1.563
 Vibration    17          0.683              1.701              1.502
 Vibration    18          0.703              1.643              1.332
 Vibration    19          0.716              1.607              1.239
 Vibration    20          0.763              1.479              0.977
 Vibration    21          0.766              1.470              0.962
 Vibration    22          0.781              1.431              0.899
 Vibration    23          0.806              1.367              0.804
 Vibration    24          0.836              1.296              0.712
 Vibration    25          0.877              1.202              0.606
 Vibration    26          0.899              1.153              0.557

                           ! Non-Optimized Parameters !
 Normal termination of Gaussian 16 at Tue May 23 02:58:16 2023.
