 Gaussian 16, Revision A.03,
 Gaussian 16:  ES64L-G16RevA.03 25-Dec-2016

 -----------------------------
 # opt freq b3lyp/6-31g(2df,p)
 -----------------------------

 -------------------
 Title Card Required
 -------------------
 Symbolic Z-matrix:
 Charge =  0 Multiplicity = 1

 SCF Done:  E(RB3LYP) =  -622.182971280     A.U. after   12 cycles
 SCF Done:  E(RB3LYP) =  -622.187732805     A.U. after   11 cycles
 SCF Done:  E(RB3LYP) =  -622.188774251     A.U. after   10 cycles
 SCF Done:  E(RB3LYP) =  -622.189293435     A.U. after   10 cycles
 SCF Done:  E(RB3LYP) =  -622.190129598     A.U. after   11 cycles
 SCF Done:  E(RB3LYP) =  -622.190986951     A.U. after   11 cycles
 SCF Done:  E(RB3LYP) =  -622.192243680     A.U. after   11 cycles
 SCF Done:  E(RB3LYP) =  -622.192508953     A.U. after   10 cycles
 SCF Done:  E(RB3LYP) =  -622.192533360     A.U. after    8 cycles
 SCF Done:  E(RB3LYP) =  -622.192540601     A.U. after    8 cycles
 SCF Done:  E(RB3LYP) =  -622.192543195     A.U. after    7 cycles
 SCF Done:  E(RB3LYP) =  -622.192544001     A.U. after    7 cycles
 SCF Done:  E(RB3LYP) =  -622.192544724     A.U. after    6 cycles
 SCF Done:  E(RB3LYP) =  -622.192544797     A.U. after    6 cycles
 Optimization completed.
    -- Stationary point found.
 Normal termination of Gaussian 16 at Tue May 23 00:22:47 2023.

 ----------------------------------------------------------------------
 #N Geom=AllCheck Guess=TCheck SCRF=Check GenChk RB3LYP/6-31G(2df,p) Fr
 eq
 ----------------------------------------------------------------------

 Structure from the checkpoint file:  "CdCCCqCrCCCqCrCOCCO.chk"
 -------------------
 Title Card Required
 -------------------
 Charge =  0 Multiplicity = 1

                         Standard orientation:
 ---------------------------------------------------------------------
 Center     Atomic      Atomic             Coordinates (Angstroms)
 Number     Number       Type             X           Y           Z
 ---------------------------------------------------------------------
      1          6           0       -6.677617   -0.202619   -0.313139
      2          6           0       -5.601895    0.239752    0.331345
      3          6           0       -4.287323    0.600663   -0.298612
      4          6           0       -3.083992   -0.199758    0.254946
      5          6           0       -3.217459   -1.692290   -0.077747
      6          6           0       -1.765688    0.408126   -0.261194
      7          6           0       -0.495287   -0.181605    0.364812
      8          6           0        0.815623    0.450258   -0.140358
      9          6           0        0.965576    1.926706    0.250930
     10          6           0        2.006775   -0.364418    0.367214
     11          8           0        3.196824    0.133720   -0.210325
     12          6           0        4.357430   -0.534608    0.221003
     13          6           0        5.557977    0.083368   -0.491081
     14          8           0        6.770902   -0.548363   -0.120270
     15          1           0       -7.601103   -0.437530    0.205774
     16          1           0       -6.679055   -0.341767   -1.390879
     17          1           0       -5.649465    0.363132    1.414139
     18          1           0       -4.094534    1.669470   -0.126210
     19          1           0       -4.347608    0.466076   -1.386551
     20          1           0       -3.094594   -0.091508    1.350399
     21          1           0       -3.140072   -1.855659   -1.159967
     22          1           0       -4.187742   -2.079756    0.245279
     23          1           0       -2.440882   -2.290928    0.406229
     24          1           0       -1.791757    1.488751   -0.076607
     25          1           0       -1.719940    0.286903   -1.353418
     26          1           0       -0.460065   -1.259537    0.165241
     27          1           0       -0.547965   -0.074612    1.458357
     28          1           0        0.832127    0.379145   -1.237107
     29          1           0        0.885761    2.049886    1.338429
     30          1           0        0.197877    2.551673   -0.213103
     31          1           0        1.942791    2.302678   -0.060014
     32          1           0        1.879642   -1.428833    0.106988
     33          1           0        2.065920   -0.305051    1.469181
     34          1           0        4.308609   -1.612125   -0.005851
     35          1           0        4.480715   -0.439021    1.316008
     36          1           0        5.576268    1.166597   -0.300978
     37          1           0        5.451857   -0.057677   -1.570747
     38          1           0        6.946698   -0.334622    0.801442
 ---------------------------------------------------------------------

 SCF Done:  E(RB3LYP) =  -622.192544797     A.U. after    1 cycles

 The electronic state is 1-A.
 Alpha  occ. eigenvalues --  -19.14017 -19.13693 -10.22575 -10.22485 -10.22386
 Alpha  occ. eigenvalues --  -10.18640 -10.18447 -10.18344 -10.18042 -10.17807
 Alpha  occ. eigenvalues --  -10.17628 -10.17215 -10.16756 -10.16671  -1.03588
 Alpha  occ. eigenvalues --   -1.01631  -0.82299  -0.80168  -0.76410  -0.73834
 Alpha  occ. eigenvalues --   -0.70411  -0.67783  -0.66946  -0.62982  -0.60903
 Alpha  occ. eigenvalues --   -0.56416  -0.55803  -0.54802  -0.51240  -0.49080
 Alpha  occ. eigenvalues --   -0.47934  -0.46641  -0.45939  -0.45649  -0.44223
 Alpha  occ. eigenvalues --   -0.42739  -0.42530  -0.40643  -0.40264  -0.39680
 Alpha  occ. eigenvalues --   -0.38984  -0.37930  -0.36717  -0.35260  -0.34888
 Alpha  occ. eigenvalues --   -0.34532  -0.33884  -0.33133  -0.32173  -0.31870
 Alpha  occ. eigenvalues --   -0.31855  -0.30967  -0.30278  -0.26917  -0.25576
 Alpha  occ. eigenvalues --   -0.25180
 Alpha virt. eigenvalues --    0.02256   0.07072   0.08209   0.09411   0.10531
 Alpha virt. eigenvalues --    0.10869   0.11752   0.12759   0.12883   0.13975
 Alpha virt. eigenvalues --    0.13995   0.14850   0.15595   0.15988   0.16296

 Mulliken charges:
               1
     1  C   -0.321361
     2  C    0.032436
     3  C   -0.233247
     4  C    0.030926
     5  C   -0.388453
     6  C   -0.196096
     7  C   -0.202096
     8  C    0.007529
     9  C   -0.391417
    10  C   -0.055151
    11  O   -0.250248
    12  C   -0.061484
    13  C   -0.082908
    14  O   -0.413888
    15  H    0.109064
    16  H    0.101640
    17  H    0.083621
    18  H    0.099346
    19  H    0.093936
    20  H    0.067652
    21  H    0.108549
    22  H    0.120762
    23  H    0.112749
    24  H    0.093146
    25  H    0.090876
    26  H    0.094369
    27  H    0.089399
    28  H    0.080168
    29  H    0.104379
    30  H    0.113213
    31  H    0.129362
    32  H    0.083334
    33  H    0.079846
    34  H    0.095307
    35  H    0.071318
    36  H    0.097132
    37  H    0.121796
    38  H    0.284492
 Sum of Mulliken charges =  -0.00000

 Dipole moment (field-independent basis, Debye):
    X=             -0.6367    Y=              0.1867    Z=              1.5833  Tot=              1.7167
 Quadrupole moment (field-independent basis, Debye-Ang):
   XX=            -99.6029   YY=            -91.3787   ZZ=            -86.3368
   XY=              3.1738   XZ=              8.8150   YZ=              0.1866

  Exact polarizability: 191.005   4.934 119.543   5.364   1.632 118.862
 Approx polarizability: 210.436   7.693 177.368   9.674   4.624 191.116

                      1                      2                      3
                      A                      A                      A
 Frequencies --     21.9376                28.4296                40.7032
 Red. masses --      4.1449                 2.6012                 3.2995
 Frc consts  --      0.0012                 0.0012                 0.0032
 IR Inten    --      0.1217                 0.6774                 0.4169

                      4                      5                      6
                      A                      A                      A
 Frequencies --     54.3363                62.3830                79.3376
 Red. masses --      3.5212                 2.1909                 2.9311
 Frc consts  --      0.0061                 0.0050                 0.0109
 IR Inten    --      0.5454                 2.6168                 0.6008

                      7                      8                      9
                      A                      A                      A
 Frequencies --     96.2955               117.7546               124.5673
 Red. masses --      2.8021                 1.9035                 3.1735
 Frc consts  --      0.0153                 0.0156                 0.0290
 IR Inten    --      0.1957                 0.0239                 0.3081

                     10                     11                     12
                      A                      A                      A
 Frequencies --    136.9311               158.0034               183.9156
 Red. masses --      2.2624                 2.9591                 4.6174
 Frc consts  --      0.0250                 0.0435                 0.0920
 IR Inten    --      1.0770                 6.0988                 0.0326

                     13                     14                     15
                      A                      A                      A
 Frequencies --    214.1716               232.6871               238.8622
 Red. masses --      2.5322                 1.1185                 1.1849
 Frc consts  --      0.0684                 0.0357                 0.0398
 IR Inten    --      0.5398                 0.6760                 0.0986

                     16                     17                     18
                      A                      A                      A
 Frequencies --    264.6163               285.7609               307.5627
 Red. masses --      2.6146                 2.4174                 1.1686
 Frc consts  --      0.1079                 0.1163                 0.0651
 IR Inten    --      2.2421                 0.2095               115.1518

                     19                     20                     21
                      A                      A                      A
 Frequencies --    357.8658               394.0516               400.8907
 Red. masses --      3.2714                 1.9650                 2.6668
 Frc consts  --      0.2468                 0.1798                 0.2525
 IR Inten    --      0.3555                 1.2611                 8.5467

                     22                     23                     24
                      A                      A                      A
 Frequencies --    422.9636               437.3863               470.3658
 Red. masses --      2.1735                 2.4685                 2.4792
 Frc consts  --      0.2291                 0.2782                 0.3232
 IR Inten    --      1.2429                 1.7308                 0.7474

                     25                     26                     27
                      A                      A                      A
 Frequencies --    511.9945               564.7517               653.8498
 Red. masses --      2.9257                 3.0062                 1.5671
 Frc consts  --      0.4519                 0.5649                 0.3947
 IR Inten    --      1.4141                 2.5988                 5.4148

                     28                     29                     30
                      A                      A                      A
 Frequencies --    758.7178               814.8330               854.1517
 Red. masses --      1.2592                 1.0976                 2.4007
 Frc consts  --      0.4271                 0.4294                 1.0319
 IR Inten    --      1.9106                 1.7302                 1.2666

                     31                     32                     33
                      A                      A                      A
 Frequencies --    862.0348               887.1669               916.3050
 Red. masses --      2.6987                 1.3466                 1.7727
 Frc consts  --      1.1816                 0.6244                 0.8769
 IR Inten    --      0.5373                 0.2278                 0.8909

                     34                     35                     36
                      A                      A                      A
 Frequencies --    931.3272               935.2825               947.6297
 Red. masses --      1.2336                 1.6499                 1.3901
 Frc consts  --      0.6304                 0.8503                 0.7355
 IR Inten    --      4.8800                 7.5007                27.3373

                     37                     38                     39
                      A                      A                      A
 Frequencies --    959.0712               969.2854              1015.8603
 Red. masses --      1.9079                 1.7730                 3.5185
 Frc consts  --      1.0340                 0.9814                 2.1394
 IR Inten    --     11.0634                 0.4013                24.8745

                     40                     41                     42
                      A                      A                      A
 Frequencies --   1028.5222              1045.2086              1050.5821
 Red. masses --      1.3644                 1.1766                 2.3814
 Frc consts  --      0.8504                 0.7574                 1.5486
 IR Inten    --      2.2451                13.3884                28.4923

                     43                     44                     45
                      A                      A                      A
 Frequencies --   1063.7549              1074.4829              1084.1402
 Red. masses --      2.5867                 1.4200                 3.2391
 Frc consts  --      1.7246                 0.9659                 2.2431
 IR Inten    --     13.0158                 5.3968                67.0072

                     46                     47                     48
                      A                      A                      A
 Frequencies --   1096.2303              1113.0451              1148.1558
 Red. masses --      2.8326                 1.9834                 2.4795
 Frc consts  --      2.0056                 1.4477                 1.9258
 IR Inten    --     12.0366                 2.5618                 4.9343

                     49                     50                     51
                      A                      A                      A
 Frequencies --   1161.2531              1170.7796              1173.9406
 Red. masses --      3.6543                 2.2695                 2.2833
 Frc consts  --      2.9034                 1.8329                 1.8540
 IR Inten    --    234.3133                 1.9336                60.7936

                     52                     53                     54
                      A                      A                      A
 Frequencies --   1190.1139              1214.9440              1226.8043
 Red. masses --      1.9858                 1.3284                 1.4590
 Frc consts  --      1.6571                 1.1553                 1.2937
 IR Inten    --      0.7083                 1.5839                19.6750

                     55                     56                     57
                      A                      A                      A
 Frequencies --   1260.1856              1271.9091              1278.2495
 Red. masses --      1.2884                 1.2122                 1.1842
 Frc consts  --      1.2055                 1.1554                 1.1400
 IR Inten    --      1.2664                 1.0751                 0.4075

                     58                     59                     60
                      A                      A                      A
 Frequencies --   1297.0846              1299.5673              1324.9829
 Red. masses --      1.1957                 1.1590                 1.2176
 Frc consts  --      1.1853                 1.1533                 1.2594
 IR Inten    --      0.3831                 3.0950                 1.5809

                     61                     62                     63
                      A                      A                      A
 Frequencies --   1331.2735              1340.6501              1348.8154
 Red. masses --      1.1853                 1.2644                 1.3054
 Frc consts  --      1.2377                 1.3390                 1.3992
 IR Inten    --      2.6841                13.8441                 7.6344

                     64                     65                     66
                      A                      A                      A
 Frequencies --   1369.6187              1378.0520              1381.7117
 Red. masses --      1.3708                 1.3839                 1.3733
 Frc consts  --      1.5150                 1.5484                 1.5447
 IR Inten    --      2.4512                 1.7797                 0.6747

                     67                     68                     69
                      A                      A                      A
 Frequencies --   1394.3898              1398.1948              1406.0057
 Red. masses --      1.2606                 1.3079                 1.4010
 Frc consts  --      1.4441                 1.5064                 1.6318
 IR Inten    --     47.7418                13.6727                 8.1991

                     70                     71                     72
                      A                      A                      A
 Frequencies --   1413.5413              1415.5618              1452.7065
 Red. masses --      1.2794                 1.3038                 1.4742
 Frc consts  --      1.5062                 1.5393                 1.8330
 IR Inten    --      7.7512                 2.1900                 5.2724

                     73                     74                     75
                      A                      A                      A
 Frequencies --   1454.8187              1474.3101              1482.4434
 Red. masses --      1.1602                 1.1039                 1.1009
 Frc consts  --      1.4468                 1.4137                 1.4255
 IR Inten    --      0.4460                 1.2883                 2.4237

                     76                     77                     78
                      A                      A                      A
 Frequencies --   1495.1769              1496.8970              1498.8563
 Red. masses --      1.0630                 1.0827                 1.0558
 Frc consts  --      1.4001                 1.4293                 1.3974
 IR Inten    --      4.3872                 1.5117                 0.7158

                     79                     80                     81
                      A                      A                      A
 Frequencies --   1504.6501              1505.9701              1508.8705
 Red. masses --      1.0744                 1.0538                 1.0586
 Frc consts  --      1.4331                 1.4081                 1.4200
 IR Inten    --      3.8808                 6.0340                 7.3132

                     82                     83                     84
                      A                      A                      A
 Frequencies --   1515.6883              1532.8686              1715.7643
 Red. masses --      1.0874                 1.0897                 4.8255
 Frc consts  --      1.4718                 1.5086                 8.3697
 IR Inten    --      5.1997                 1.4420                 9.2061

                     85                     86                     87
                      A                      A                      A
 Frequencies --   2929.5330              2942.1281              2972.7908
 Red. masses --      1.0620                 1.0616                 1.0989
 Frc consts  --      5.3699                 5.4140                 5.7218
 IR Inten    --     35.8122                71.8794                40.3057

                     88                     89                     90
                      A                      A                      A
 Frequencies --   2984.0671              2984.6651              2996.8670
 Red. masses --      1.0887                 1.0805                 1.0630
 Frc consts  --      5.7120                 5.6713                 5.6250
 IR Inten    --     17.7217                 9.4215                10.5978

                     91                     92                     93
                      A                      A                      A
 Frequencies --   2998.4111              3004.3166              3006.3613
 Red. masses --      1.0635                 1.0718                 1.0705
 Frc consts  --      5.6332                 5.6999                 5.7004
 IR Inten    --      6.4613                78.0609                26.0302

                     94                     95                     96
                      A                      A                      A
 Frequencies --   3014.9895              3028.3157              3029.9158
 Red. masses --      1.0740                 1.0419                 1.0442
 Frc consts  --      5.7522                 5.6298                 5.6481
 IR Inten    --     54.1264                13.8385                24.9157

                     97                     98                     99
                      A                      A                      A
 Frequencies --   3040.0443              3046.8015              3064.4093
 Red. masses --      1.0922                 1.0979                 1.0998
 Frc consts  --      5.9471                 6.0046                 6.0847
 IR Inten    --      5.2690                 9.8092                95.2803

                    100                    101                    102
                      A                      A                      A
 Frequencies --   3091.3565              3096.8089              3100.4480
 Red. masses --      1.0961                 1.0954                 1.0939
 Frc consts  --      6.1715                 6.1893                 6.1952
 IR Inten    --     30.4861                26.5219                33.6144

                    103                    104                    105
                      A                      A                      A
 Frequencies --   3114.5938              3119.5226              3127.8980
 Red. masses --      1.1011                 1.0824                 1.1004
 Frc consts  --      6.2933                 6.2061                 6.3429
 IR Inten    --     30.4790                24.8351                23.4964

                    106                    107                    108
                      A                      A                      A
 Frequencies --   3140.5589              3221.0743              3817.1984
 Red. masses --      1.0670                 1.1143                 1.0662
 Frc consts  --      6.2007                 6.8117                 9.1533
 IR Inten    --      5.9164                17.4710                18.1936

 - Thermochemistry -
 -------------------
 Temperature   298.150 Kelvin.  Pressure   1.00000 Atm.
 Atom     1 has atomic number  6 and mass  12.00000

 Molecular mass:   200.17763 amu.
 Principal axes and moments of inertia in atomic units:
                           1         2         3
     Eigenvalues --   646.13589********************
           X            0.99999   0.00349   0.00288
           Y           -0.00349   0.99999  -0.00246
           Z           -0.00289   0.00245   0.99999
 This molecule is an asymmetric top.
 Rotational symmetry number  1.
 Warning -- assumption of classical behavior for rotation
           may cause significant error
 Rotational temperatures (Kelvin)      0.13405     0.00715     0.00693
 Rotational constants (GHZ):           2.79313     0.14889     0.14441
 Zero-point vibrational energy     903048.3 (Joules/Mol)
                                  215.83373 (Kcal/Mol)
 Warning -- explicit consideration of  26 degrees of freedom as
           vibrations may cause significant error
 Vibrational temperatures:     31.56    40.90    58.56    78.18    89.76
          (Kelvin)            114.15   138.55   169.42   179.22   197.01
                              227.33   264.61   308.15   334.78   343.67
                              380.72   411.15   442.51   514.89   566.95
                              576.79   608.55   629.30   676.75   736.65
                              812.55   940.74  1091.63  1172.36  1228.93
                             1240.28  1276.44  1318.36  1339.97  1345.66
                             1363.43  1379.89  1394.59  1461.60  1479.81
                             1503.82  1511.55  1530.51  1545.94  1559.84
                             1577.23  1601.42  1651.94  1670.78  1684.49
                             1689.04  1712.31  1748.03  1765.10  1813.13
                             1829.99  1839.12  1866.22  1869.79  1906.35
                             1915.41  1928.90  1940.64  1970.58  1982.71
                             1987.97  2006.22  2011.69  2022.93  2033.77
                             2036.68  2090.12  2093.16  2121.20  2132.91
                             2151.23  2153.70  2156.52  2164.86  2166.76
                             2170.93  2180.74  2205.46  2468.60  4214.94
                             4233.07  4277.18  4293.41  4294.27  4311.82
                             4314.04  4322.54  4325.48  4337.90  4357.07
                             4359.37  4373.95  4383.67  4409.00  4447.77
                             4455.62  4460.85  4481.21  4488.30  4500.35
                             4518.56  4634.41  5492.10

 Zero-point correction=                           0.343953 (Hartree/Particle)
 Thermal correction to Energy=                    0.362255
 Thermal correction to Enthalpy=                  0.363199
 Thermal correction to Gibbs Free Energy=         0.295237
 Sum of electronic and zero-point Energies=           -621.848592
 Sum of electronic and thermal Energies=              -621.830290
 Sum of electronic and thermal Enthalpies=            -621.829345
 Sum of electronic and thermal Free Energies=         -621.897307

                     E (Thermal)             CV                S
                      KCal/Mol        Cal/Mol-Kelvin    Cal/Mol-Kelvin
 Total                  227.319             64.810            143.038
 Electronic               0.000              0.000              0.000
 Translational            0.889              2.981             41.787
 Rotational               0.889              2.981             32.948
 Vibrational            225.541             58.848             68.303
 Vibration     1          0.593              1.985              6.451
 Vibration     2          0.593              1.984              5.936
 Vibration     3          0.594              1.981              5.225
 Vibration     4          0.596              1.976              4.653
 Vibration     5          0.597              1.972              4.380
 Vibration     6          0.600              1.963              3.907
 Vibration     7          0.603              1.952              3.528
 Vibration     8          0.608              1.935              3.137
 Vibration     9          0.610              1.928              3.028
 Vibration    10          0.614              1.916              2.846
 Vibration    11          0.621              1.894              2.574
 Vibration    12          0.631              1.862              2.288
 Vibration    13          0.644              1.819              2.008
 Vibration    14          0.653              1.791              1.858
 Vibration    15          0.657              1.781              1.811
 Vibration    16          0.671              1.738              1.631
 Vibration    17          0.684              1.700              1.499
 Vibration    18          0.697              1.659              1.375
 Vibration    19          0.733              1.559              1.131
 Vibration    20          0.761              1.483              0.985
 Vibration    21          0.767              1.468              0.959
 Vibration    22          0.785              1.420              0.882
 Vibration    23          0.798              1.389              0.835
 Vibration    24          0.827              1.316              0.737
 Vibration    25          0.867              1.223              0.629
 Vibration    26          0.921              1.108              0.514

                           ! Non-Optimized Parameters !
 Normal termination of Gaussian 16 at Tue May 23 02:35:43 2023.
