 Gaussian 16, Revision A.03,
 Gaussian 16:  ES64L-G16RevA.03 25-Dec-2016

 -----------------------------
 # opt freq b3lyp/6-31g(2df,p)
 -----------------------------

 -------------------
 Title Card Required
 -------------------
 Symbolic Z-matrix:
 Charge =  0 Multiplicity = 1

 SCF Done:  E(RB3LYP) =  -790.831035115     A.U. after   12 cycles
 SCF Done:  E(RB3LYP) =  -790.841063138     A.U. after   11 cycles
 SCF Done:  E(RB3LYP) =  -790.843107042     A.U. after   10 cycles
 SCF Done:  E(RB3LYP) =  -790.844109065     A.U. after   10 cycles
 SCF Done:  E(RB3LYP) =  -790.844940169     A.U. after   11 cycles
 SCF Done:  E(RB3LYP) =  -790.845452851     A.U. after   11 cycles
 SCF Done:  E(RB3LYP) =  -790.846120776     A.U. after   11 cycles
 SCF Done:  E(RB3LYP) =  -790.846471813     A.U. after   13 cycles
 SCF Done:  E(RB3LYP) =  -790.846578060     A.U. after   11 cycles
 SCF Done:  E(RB3LYP) =  -790.846704309     A.U. after   10 cycles
 SCF Done:  E(RB3LYP) =  -790.860685219     A.U. after    9 cycles
 SCF Done:  E(RB3LYP) =  -790.860692791     A.U. after    9 cycles
 SCF Done:  E(RB3LYP) =  -790.860696679     A.U. after    9 cycles
 SCF Done:  E(RB3LYP) =  -790.860700251     A.U. after    9 cycles
 SCF Done:  E(RB3LYP) =  -790.860700610     A.U. after    8 cycles
 SCF Done:  E(RB3LYP) =  -790.860701037     A.U. after    7 cycles
 SCF Done:  E(RB3LYP) =  -790.860701139     A.U. after    6 cycles
 SCF Done:  E(RB3LYP) =  -790.860701160     A.U. after    5 cycles
 SCF Done:  E(RB3LYP) =  -790.860701171     A.U. after    6 cycles
 Optimization completed on the basis of negligible forces.
    -- Stationary point found.
 Normal termination of Gaussian 16 at Wed May 24 19:38:02 2023.

 ----------------------------------------------------------------------
 #N Geom=AllCheck Guess=TCheck SCRF=Check GenChk RB3LYP/6-31G(2df,p) Fr
 eq
 ----------------------------------------------------------------------

 Structure from the checkpoint file:  "CdCCOCCCOCOC1CCCqCrN1C.chk"
 -------------------
 Title Card Required
 -------------------
 Charge =  0 Multiplicity = 1

                         Standard orientation:
 ---------------------------------------------------------------------
 Center     Atomic      Atomic             Coordinates (Angstroms)
 Number     Number       Type             X           Y           Z
 ---------------------------------------------------------------------
      1          6           0       -7.931396    1.240675   -0.116004
      2          6           0       -6.784582    1.047225    0.524657
      3          6           0       -5.910935   -0.158383    0.359045
      4          8           0       -4.581862    0.267399    0.128500
      5          6           0       -3.664743   -0.801109    0.043744
      6          6           0       -2.275561   -0.223429   -0.190058
      7          6           0       -1.206387   -1.302512   -0.294090
      8          8           0        0.039576   -0.675443   -0.512673
      9          6           0        1.114615   -1.590159   -0.604330
     10          8           0        2.297473   -0.896300   -0.741804
     11          6           0        2.744935   -0.203070    0.463767
     12          6           0        3.794176   -1.046520    1.185676
     13          6           0        5.068444   -0.761105    0.365761
     14          6           0        4.848704    0.656900   -0.229034
     15          6           0        5.823064    1.706410    0.311139
     16          7           0        3.456462    0.983044    0.126030
     17          6           0        2.771367    1.942657   -0.718787
     18          1           0       -8.545887    2.116632    0.062131
     19          1           0       -8.306735    0.525734   -0.842966
     20          1           0       -6.420907    1.780524    1.241545
     21          1           0       -6.273134   -0.788600   -0.470203
     22          1           0       -5.947298   -0.778807    1.274061
     23          1           0       -3.944011   -1.482743   -0.779101
     24          1           0       -3.686461   -1.398362    0.972937
     25          1           0       -2.024267    0.456641    0.630526
     26          1           0       -2.280725    0.370025   -1.109933
     27          1           0       -1.437626   -1.995677   -1.121922
     28          1           0       -1.176152   -1.908081    0.629117
     29          1           0        1.004093   -2.223731   -1.498255
     30          1           0        1.111632   -2.242351    0.292655
     31          1           0        1.854095    0.030529    1.055568
     32          1           0        3.525977   -2.105207    1.213845
     33          1           0        3.894250   -0.692499    2.216352
     34          1           0        5.167491   -1.493714   -0.438500
     35          1           0        5.975766   -0.813498    0.972847
     36          1           0        4.960796    0.613168   -1.324914
     37          1           0        5.772013    1.750578    1.403987
     38          1           0        5.594739    2.703962   -0.077648
     39          1           0        6.850514    1.464378    0.018930
     40          1           0        2.678916    1.605958   -1.763119
     41          1           0        3.303710    2.898866   -0.708150
     42          1           0        1.762286    2.114253   -0.333115
 ---------------------------------------------------------------------

 SCF Done:  E(RB3LYP) =  -790.860701171     A.U. after    1 cycles

 The electronic state is 1-A.
 Alpha  occ. eigenvalues --  -19.13919 -19.13909 -19.13386 -14.30903 -10.26903
 Alpha  occ. eigenvalues --  -10.24392 -10.23165 -10.23146 -10.22981 -10.20308
 Alpha  occ. eigenvalues --  -10.18892 -10.18732 -10.18058 -10.18008 -10.17639
 Alpha  occ. eigenvalues --  -10.17504 -10.16546  -1.06177  -1.03382  -1.00647
 Alpha  occ. eigenvalues --   -0.91890  -0.79718  -0.77774  -0.77132  -0.74956
 Alpha  occ. eigenvalues --   -0.69971  -0.67661  -0.65567  -0.64891  -0.62707
 Alpha  occ. eigenvalues --   -0.59574  -0.57516  -0.55892  -0.54954  -0.50858
 Alpha  occ. eigenvalues --   -0.50304  -0.50014  -0.49251  -0.48525  -0.47761
 Alpha  occ. eigenvalues --   -0.46378  -0.45058  -0.44532  -0.43345  -0.42146
 Alpha  occ. eigenvalues --   -0.41107  -0.40016  -0.39566  -0.38961  -0.38487
 Alpha  occ. eigenvalues --   -0.38052  -0.36902  -0.36256  -0.35458  -0.34467
 Alpha  occ. eigenvalues --   -0.34313  -0.33847  -0.33059  -0.32579  -0.31797
 Alpha  occ. eigenvalues --   -0.31752  -0.31007  -0.26951  -0.26593  -0.25686
 Alpha  occ. eigenvalues --   -0.25129  -0.20792
 Alpha virt. eigenvalues --    0.01318   0.08183   0.08776   0.09783   0.11097
 Alpha virt. eigenvalues --    0.11323   0.11893   0.12060   0.12857   0.13490
 Alpha virt. eigenvalues --    0.13648   0.13859   0.14410   0.15466   0.15701

 Mulliken charges:
               1
     1  C   -0.314692
     2  C    0.026079
     3  C   -0.095061
     4  O   -0.247528
     5  C   -0.048744
     6  C   -0.211476
     7  C   -0.054478
     8  O   -0.245200
     9  C    0.030170
    10  O   -0.271502
    11  C    0.126626
    12  C   -0.228658
    13  C   -0.238760
    14  C    0.088749
    15  C   -0.393168
    16  N   -0.066031
    17  C   -0.333107
    18  H    0.116196
    19  H    0.106251
    20  H    0.099202
    21  H    0.089163
    22  H    0.091491
    23  H    0.084989
    24  H    0.083072
    25  H    0.115410
    26  H    0.120419
    27  H    0.087325
    28  H    0.085569
    29  H    0.095317
    30  H    0.065445
    31  H    0.080870
    32  H    0.098137
    33  H    0.104384
    34  H    0.110835
    35  H    0.095756
    36  H    0.063144
    37  H    0.113366
    38  H    0.112624
    39  H    0.107922
    40  H    0.112290
    41  H    0.111529
    42  H    0.126074
 Sum of Mulliken charges =   0.00000

 Dipole moment (field-independent basis, Debye):
    X=             -0.7033    Y=             -1.8430    Z=              0.7936  Tot=              2.1263
 Quadrupole moment (field-independent basis, Debye-Ang):
   XX=            -98.0120   YY=           -102.0023   ZZ=           -105.2195
   XY=              3.1300   XZ=              0.7928   YZ=             -0.0894

  Exact polarizability: 212.326  -4.030 148.654   9.744  -0.680 130.230
 Approx polarizability: 239.328  -3.991 211.478  13.096   0.970 204.484

                      1                      2                      3
                      A                      A                      A
 Frequencies --     10.5112                18.0690                27.8840
 Red. masses --      3.7240                 4.0646                 2.1676
 Frc consts  --      0.0002                 0.0008                 0.0010
 IR Inten    --      0.0615                 0.0851                 1.1347

                      4                      5                      6
                      A                      A                      A
 Frequencies --     37.5792                44.4668                59.0229
 Red. masses --      3.0718                 3.5696                 3.4529
 Frc consts  --      0.0026                 0.0042                 0.0071
 IR Inten    --      0.1270                 0.2376                 0.8830

                      7                      8                      9
                      A                      A                      A
 Frequencies --     86.4497                89.5851               108.5442
 Red. masses --      2.0993                 2.5744                 2.9140
 Frc consts  --      0.0092                 0.0122                 0.0202
 IR Inten    --      0.3856                 0.6179                 0.0796

                     10                     11                     12
                      A                      A                      A
 Frequencies --    128.7412               134.4284               153.9325
 Red. masses --      3.1574                 2.7893                 3.1477
 Frc consts  --      0.0308                 0.0297                 0.0439
 IR Inten    --      0.9532                 0.6330                 2.0948

                     13                     14                     15
                      A                      A                      A
 Frequencies --    163.2034               168.9256               196.3612
 Red. masses --      2.3529                 1.1998                 2.8937
 Frc consts  --      0.0369                 0.0202                 0.0657
 IR Inten    --      7.3201                 1.4797                 4.9407

                     16                     17                     18
                      A                      A                      A
 Frequencies --    221.7630               247.5146               283.8855
 Red. masses --      2.9159                 1.0712                 3.2925
 Frc consts  --      0.0845                 0.0387                 0.1563
 IR Inten    --      2.1880                 0.2013                 0.7779

                     19                     20                     21
                      A                      A                      A
 Frequencies --    294.8183               305.6821               337.1506
 Red. masses --      2.5515                 3.2124                 2.9886
 Frc consts  --      0.1307                 0.1769                 0.2002
 IR Inten    --      1.2495                 1.9437                 2.4649

                     22                     23                     24
                      A                      A                      A
 Frequencies --    388.4694               417.9767               420.5975
 Red. masses --      2.3257                 2.6758                 2.5094
 Frc consts  --      0.2068                 0.2754                 0.2616
 IR Inten    --      0.2899                 2.7501                 1.7075

                     25                     26                     27
                      A                      A                      A
 Frequencies --    451.0898               512.6919               554.9604
 Red. masses --      3.1856                 2.6595                 3.8561
 Frc consts  --      0.3819                 0.4119                 0.6997
 IR Inten    --      0.5505                 5.9119                 2.9499

                     28                     29                     30
                      A                      A                      A
 Frequencies --    592.3556               621.7245               656.7386
 Red. masses --      4.1630                 3.5637                 1.7187
 Frc consts  --      0.8606                 0.8116                 0.4368
 IR Inten    --      1.1309                 3.2509                 3.1274

                     31                     32                     33
                      A                      A                      A
 Frequencies --    705.2146               760.8277               779.9443
 Red. masses --      2.6141                 2.4993                 1.0803
 Frc consts  --      0.7660                 0.8524                 0.3872
 IR Inten    --      1.6711                18.8060                 0.3538

                     34                     35                     36
                      A                      A                      A
 Frequencies --    819.8424               863.1967               891.3892
 Red. masses --      3.1825                 2.1878                 1.1505
 Frc consts  --      1.2603                 0.9605                 0.5386
 IR Inten    --    125.2337                 4.2581                 0.0667

                     37                     38                     39
                      A                      A                      A
 Frequencies --    901.6213               935.8051               944.6529
 Red. masses --      1.9700                 1.4445                 2.6271
 Frc consts  --      0.9435                 0.7453                 1.3812
 IR Inten    --      1.3536                 1.3191                46.7605

                     40                     41                     42
                      A                      A                      A
 Frequencies --    959.6811               986.0099               991.6287
 Red. masses --      1.3414                 2.1834                 1.6012
 Frc consts  --      0.7279                 1.2507                 0.9276
 IR Inten    --     32.5511                 5.7531                 8.2687

                     43                     44                     45
                      A                      A                      A
 Frequencies --   1009.8039              1019.3134              1024.6016
 Red. masses --      2.4072                 4.0564                 3.1628
 Frc consts  --      1.4462                 2.4832                 1.9563
 IR Inten    --     57.3306                40.8253                 6.1765

                     46                     47                     48
                      A                      A                      A
 Frequencies --   1039.4608              1046.6497              1063.5202
 Red. masses --      1.2046                 1.7251                 2.3955
 Frc consts  --      0.7669                 1.1135                 1.5964
 IR Inten    --     28.0994                10.9049                 0.2111

                     49                     50                     51
                      A                      A                      A
 Frequencies --   1079.0781              1104.0521              1121.1286
 Red. masses --      1.6949                 2.9108                 2.4891
 Frc consts  --      1.1628                 2.0904                 1.8433
 IR Inten    --     77.3090               391.4791                75.6714

                     52                     53                     54
                      A                      A                      A
 Frequencies --   1121.5414              1125.2998              1151.5506
 Red. masses --      3.8106                 2.4138                 1.5889
 Frc consts  --      2.8240                 1.8009                 1.2414
 IR Inten    --    226.9452                11.2142                19.5699

                     55                     56                     57
                      A                      A                      A
 Frequencies --   1157.4862              1164.2355              1175.2768
 Red. masses --      6.3860                 1.6561                 3.1476
 Frc consts  --      5.0409                 1.3226                 2.5616
 IR Inten    --     98.6860                12.9344               114.4294

                     58                     59                     60
                      A                      A                      A
 Frequencies --   1178.0561              1186.4758              1192.8342
 Red. masses --      1.9269                 1.8834                 1.8415
 Frc consts  --      1.5756                 1.5621                 1.5437
 IR Inten    --     10.3172                22.3640                27.0022

                     61                     62                     63
                      A                      A                      A
 Frequencies --   1214.3399              1236.9978              1247.0325
 Red. masses --      1.6289                 1.2315                 1.7354
 Frc consts  --      1.4153                 1.1102                 1.5900
 IR Inten    --     10.9064                 1.7436                23.8602

                     64                     65                     66
                      A                      A                      A
 Frequencies --   1262.0101              1273.4285              1292.3279
 Red. masses --      1.1459                 1.6638                 1.3215
 Frc consts  --      1.0753                 1.5897                 1.3004
 IR Inten    --      5.1698                30.1769                 2.6586

                     67                     68                     69
                      A                      A                      A
 Frequencies --   1294.7880              1303.0681              1306.9560
 Red. masses --      1.3204                 1.0678                 1.1256
 Frc consts  --      1.3042                 1.0683                 1.1328
 IR Inten    --      5.9366                 0.2286                 1.1617

                     70                     71                     72
                      A                      A                      A
 Frequencies --   1315.6401              1319.4752              1328.2709
 Red. masses --      1.2560                 1.3219                 1.4475
 Frc consts  --      1.2809                 1.3559                 1.5047
 IR Inten    --      0.5443                 2.1555                 9.0819

                     73                     74                     75
                      A                      A                      A
 Frequencies --   1355.5329              1373.6187              1378.8437
 Red. masses --      1.6943                 1.4184                 1.2547
 Frc consts  --      1.8343                 1.5769                 1.4054
 IR Inten    --     19.4696                16.0561                53.7656

                     76                     77                     78
                      A                      A                      A
 Frequencies --   1381.8325              1403.9625              1407.0349
 Red. masses --      1.3932                 1.3092                 1.2918
 Frc consts  --      1.5673                 1.5205                 1.5068
 IR Inten    --     25.3191                33.8122                 3.6524

                     79                     80                     81
                      A                      A                      A
 Frequencies --   1413.6505              1439.6385              1463.9712
 Red. masses --      1.2854                 1.3487                 1.1869
 Frc consts  --      1.5134                 1.6470                 1.4987
 IR Inten    --     58.4103                29.8635                 4.8052

                     82                     83                     84
                      A                      A                      A
 Frequencies --   1469.0274              1470.0354              1478.5297
 Red. masses --      1.3261                 1.3265                 1.0865
 Frc consts  --      1.6860                 1.6889                 1.3994
 IR Inten    --      8.2835                 8.6459                 1.1642

                     85                     86                     87
                      A                      A                      A
 Frequencies --   1483.9327              1492.3113              1497.5533
 Red. masses --      1.0619                 1.0587                 1.0858
 Frc consts  --      1.3778                 1.3891                 1.4347
 IR Inten    --      4.9598                 6.2490                 1.6058

                     88                     89                     90
                      A                      A                      A
 Frequencies --   1498.8105              1500.7429              1504.6047
 Red. masses --      1.0564                 1.0966                 1.0901
 Frc consts  --      1.3982                 1.4551                 1.4540
 IR Inten    --      3.2341                 1.1634                 4.2224

                     91                     92                     93
                      A                      A                      A
 Frequencies --   1509.0683              1519.5760              1530.8028
 Red. masses --      1.0595                 1.0988                 1.0901
 Frc consts  --      1.4216                 1.4949                 1.5051
 IR Inten    --     11.7831                 3.6551                 0.6957

                     94                     95                     96
                      A                      A                      A
 Frequencies --   1539.2480              1724.4701              2892.6738
 Red. masses --      1.0911                 4.9573                 1.0679
 Frc consts  --      1.5231                 8.6858                 5.2648
 IR Inten    --      0.8262                 1.7626                57.1651

                     97                     98                     99
                      A                      A                      A
 Frequencies --   2926.5696              2938.0140              2945.8895
 Red. masses --      1.0619                 1.0563                 1.0564
 Frc consts  --      5.3586                 5.3721                 5.4017
 IR Inten    --     31.7504                 9.3279               122.6465

                    100                    101                    102
                      A                      A                      A
 Frequencies --   2952.1031              2960.0688              2967.7807
 Red. masses --      1.0829                 1.1048                 1.1035
 Frc consts  --      5.5603                 5.7034                 5.7267
 IR Inten    --     41.8483                 3.5395               100.2936

                    103                    104                    105
                      A                      A                      A
 Frequencies --   2977.7638              2984.7248              2993.6221
 Red. masses --      1.0924                 1.0508                 1.0904
 Frc consts  --      5.7070                 5.5152                 5.7573
 IR Inten    --     42.8634                59.4603                74.2259

                    106                    107                    108
                      A                      A                      A
 Frequencies --   3030.1043              3051.5840              3053.1753
 Red. masses --      1.0349                 1.0699                 1.0586
 Frc consts  --      5.5986                 5.8698                 5.8139
 IR Inten    --     20.9301                 5.3713                17.6667

                    109                    110                    111
                      A                      A                      A
 Frequencies --   3062.2780              3066.7108              3068.5866
 Red. masses --      1.0716                 1.0723                 1.0776
 Frc consts  --      5.9207                 5.9415                 5.9784
 IR Inten    --     51.4147                31.4347                23.8059

                    112                    113                    114
                      A                      A                      A
 Frequencies --   3097.8953              3099.7222              3101.0563
 Red. masses --      1.1019                 1.1050                 1.1016
 Frc consts  --      6.2306                 6.2554                 6.2418
 IR Inten    --     10.0246                26.7894                35.3978

                    115                    116                    117
                      A                      A                      A
 Frequencies --   3104.8313              3109.2414              3115.3479
 Red. masses --      1.1022                 1.1019                 1.1052
 Frc consts  --      6.2604                 6.2765                 6.3200
 IR Inten    --     18.8133                37.1647                41.7126

                    118                    119                    120
                      A                      A                      A
 Frequencies --   3141.5861              3157.2040              3226.1237
 Red. masses --      1.0595                 1.0920                 1.1142
 Frc consts  --      6.1608                 6.4131                 6.8325
 IR Inten    --     11.0958                 5.5783                14.5881

 - Thermochemistry -
 -------------------
 Temperature   298.150 Kelvin.  Pressure   1.00000 Atm.
 Atom     1 has atomic number  6 and mass  12.00000

 Molecular mass:   243.18344 amu.
 Principal axes and moments of inertia in atomic units:
                           1         2         3
     Eigenvalues --  1359.10652********************
           X            0.99999   0.00443   0.00135
           Y           -0.00441   0.99986  -0.01643
           Z           -0.00143   0.01642   0.99986
 This molecule is an asymmetric top.
 Rotational symmetry number  1.
 Warning -- assumption of classical behavior for rotation
           may cause significant error
 Rotational temperatures (Kelvin)      0.06373     0.00532     0.00507
 Rotational constants (GHZ):           1.32789     0.11081     0.10574
 Zero-point vibrational energy     977893.9 (Joules/Mol)
                                  233.72225 (Kcal/Mol)
 Warning -- explicit consideration of  28 degrees of freedom as
           vibrations may cause significant error
 Vibrational temperatures:     15.12    26.00    40.12    54.07    63.98
          (Kelvin)             84.92   124.38   128.89   156.17   185.23
                              193.41   221.47   234.81   243.05   282.52
                              319.07   356.12   408.45   424.18   439.81
                              485.08   558.92   601.38   605.15   649.02
                              737.65   798.46   852.27   894.52   944.90
                             1014.65  1094.66  1122.17  1179.57  1241.95
                             1282.51  1297.23  1346.41  1359.14  1380.77
                             1418.65  1426.73  1452.88  1466.56  1474.17
                             1495.55  1505.90  1530.17  1552.55  1588.48
                             1613.05  1613.65  1619.06  1656.82  1665.36
                             1675.08  1690.96  1694.96  1707.07  1716.22
                             1747.16  1779.76  1794.20  1815.75  1832.18
                             1859.37  1862.91  1874.82  1880.42  1892.91
                             1898.43  1911.09  1950.31  1976.33  1983.85
                             1988.15  2019.99  2024.41  2033.93  2071.32
                             2106.33  2113.60  2115.05  2127.27  2135.05
                             2147.10  2154.65  2156.45  2159.23  2164.79
                             2171.21  2186.33  2202.48  2214.63  2481.13
                             4161.91  4210.68  4227.15  4238.48  4247.42
                             4258.88  4269.97  4284.34  4294.35  4307.15
                             4359.64  4390.55  4392.84  4405.94  4412.31
                             4415.01  4457.18  4459.81  4461.73  4467.16
                             4473.50  4482.29  4520.04  4542.51  4641.67

 Zero-point correction=                           0.372460 (Hartree/Particle)
 Thermal correction to Energy=                    0.392694
 Thermal correction to Enthalpy=                  0.393639
 Thermal correction to Gibbs Free Energy=         0.318765
 Sum of electronic and zero-point Energies=           -790.488241
 Sum of electronic and thermal Energies=              -790.468007
 Sum of electronic and thermal Enthalpies=            -790.467063
 Sum of electronic and thermal Free Energies=         -790.541936

                     E (Thermal)             CV                S
                      KCal/Mol        Cal/Mol-Kelvin    Cal/Mol-Kelvin
 Total                  246.419             71.636            157.585
 Electronic               0.000              0.000              0.000
 Translational            0.889              2.981             42.367
 Rotational               0.889              2.981             34.290
 Vibrational            244.642             65.674             80.928
 Vibration     1          0.593              1.987              7.912
 Vibration     2          0.593              1.986              6.836
 Vibration     3          0.593              1.984              5.975
 Vibration     4          0.594              1.982              5.383
 Vibration     5          0.595              1.980              5.049
 Vibration     6          0.596              1.974              4.490
 Vibration     7          0.601              1.959              3.739
 Vibration     8          0.602              1.957              3.669
 Vibration     9          0.606              1.942              3.295
 Vibration    10          0.611              1.925              2.965
 Vibration    11          0.613              1.919              2.882
 Vibration    12          0.619              1.898              2.623
 Vibration    13          0.623              1.888              2.512
 Vibration    14          0.625              1.881              2.447
 Vibration    15          0.636              1.845              2.167
 Vibration    16          0.648              1.808              1.945
 Vibration    17          0.661              1.767              1.748
 Vibration    18          0.682              1.704              1.510
 Vibration    19          0.689              1.683              1.446
 Vibration    20          0.696              1.663              1.386
 Vibration    21          0.718              1.601              1.226
 Vibration    22          0.757              1.495              1.006
 Vibration    23          0.781              1.431              0.899
 Vibration    24          0.783              1.425              0.890
 Vibration    25          0.810              1.358              0.792
 Vibration    26          0.868              1.222              0.627
 Vibration    27          0.910              1.129              0.534
 Vibration    28          0.950              1.048              0.463

 Optimization completed on the basis of negligible forces.
    -- Stationary point found.
 Normal termination of Gaussian 16 at Wed May 24 23:22:15 2023.
