 Gaussian 16, Revision A.03,
 Gaussian 16:  ES64L-G16RevA.03 25-Dec-2016

 -----------------------------
 # opt freq b3lyp/6-31g(2df,p)
 -----------------------------

 -------------------
 Title Card Required
 -------------------
 Symbolic Z-matrix:
 Charge =  0 Multiplicity = 1

 SCF Done:  E(RB3LYP) =  -677.309570154     A.U. after   14 cycles
 SCF Done:  E(RB3LYP) =  -677.320506894     A.U. after   13 cycles
 SCF Done:  E(RB3LYP) =  -677.321538937     A.U. after   11 cycles
 SCF Done:  E(RB3LYP) =  -677.321895353     A.U. after   11 cycles
 SCF Done:  E(RB3LYP) =  -677.322365875     A.U. after   12 cycles
 SCF Done:  E(RB3LYP) =  -677.323318697     A.U. after   11 cycles
 SCF Done:  E(RB3LYP) =  -677.324935725     A.U. after   12 cycles
 SCF Done:  E(RB3LYP) =  -677.325533877     A.U. after   11 cycles
 SCF Done:  E(RB3LYP) =  -677.325898182     A.U. after   11 cycles
 SCF Done:  E(RB3LYP) =  -677.326727147     A.U. after   11 cycles
 SCF Done:  E(RB3LYP) =  -677.332474641     A.U. after   12 cycles
 SCF Done:  E(RB3LYP) =  -677.335455902     A.U. after   12 cycles
 SCF Done:  E(RB3LYP) =  -677.336629607     A.U. after   11 cycles
 SCF Done:  E(RB3LYP) =  -677.337438212     A.U. after   12 cycles
 SCF Done:  E(RB3LYP) =  -677.337504044     A.U. after   10 cycles
 SCF Done:  E(RB3LYP) =  -677.337520681     A.U. after   10 cycles
 SCF Done:  E(RB3LYP) =  -677.337524678     A.U. after    8 cycles
 SCF Done:  E(RB3LYP) =  -677.337525545     A.U. after    7 cycles
 SCF Done:  E(RB3LYP) =  -677.337525713     A.U. after    7 cycles
 Optimization completed.
    -- Stationary point found.
 Normal termination of Gaussian 16 at Mon May 22 10:19:27 2023.

 ----------------------------------------------------------------------
 #N Geom=AllCheck Guess=TCheck SCRF=Check GenChk RB3LYP/6-31G(2df,p) Fr
 eq
 ----------------------------------------------------------------------

 Structure from the checkpoint file:  "CdCCNCCCCC1dCCqdOrCqCrCC1.chk"
 -------------------
 Title Card Required
 -------------------
 Charge =  0 Multiplicity = 1

                         Standard orientation:
 ---------------------------------------------------------------------
 Center     Atomic      Atomic             Coordinates (Angstroms)
 Number     Number       Type             X           Y           Z
 ---------------------------------------------------------------------
      1          6           0        7.792461    0.555468   -0.124308
      2          6           0        6.773298   -0.286640   -0.258769
      3          6           0        5.432021    0.075062   -0.828265
      4          7           0        4.362710   -0.275343    0.104706
      5          6           0        3.027354    0.031564   -0.393217
      6          6           0        1.956332   -0.342087    0.631807
      7          6           0        0.532769   -0.074387    0.133715
      8          6           0       -0.542539   -0.463982    1.169879
      9          6           0       -1.945818   -0.169583    0.705523
     10          6           0       -2.755354   -1.134809    0.236553
     11          6           0       -4.140759   -0.903328   -0.213250
     12          8           0       -4.808443   -1.801863   -0.691248
     13          6           0       -4.706450    0.506590   -0.005744
     14          6           0       -5.909820    0.773369   -0.909741
     15          6           0       -3.592098    1.553682   -0.150837
     16          6           0       -2.416163    1.263044    0.786262
     17          1           0        8.745705    0.241569    0.287841
     18          1           0        7.716650    1.595200   -0.431329
     19          1           0        6.870622   -1.321123    0.065681
     20          1           0        5.258800   -0.500529   -1.749865
     21          1           0        5.426145    1.141390   -1.122518
     22          1           0        4.519153    0.217072    0.979740
     23          1           0        2.871464   -0.548954   -1.312833
     24          1           0        2.909362    1.095622   -0.679291
     25          1           0        2.129199    0.224086    1.558514
     26          1           0        2.073497   -1.400886    0.891705
     27          1           0        0.351339   -0.637121   -0.790428
     28          1           0        0.430075    0.986567   -0.127767
     29          1           0       -0.348115    0.083210    2.102965
     30          1           0       -0.445596   -1.530659    1.399198
     31          1           0       -2.420194   -2.166966    0.173562
     32          1           0       -5.044226    0.525082    1.044237
     33          1           0       -5.605597    0.811824   -1.961299
     34          1           0       -6.380741    1.728414   -0.656968
     35          1           0       -6.648002   -0.024482   -0.811733
     36          1           0       -3.991362    2.555487    0.042216
     37          1           0       -3.234385    1.551819   -1.189085
     38          1           0       -2.705466    1.469730    1.828958
     39          1           0       -1.581152    1.942180    0.577889
 ---------------------------------------------------------------------

 SCF Done:  E(RB3LYP) =  -677.337525713     A.U. after    1 cycles

 The electronic state is 1-A.
 Alpha  occ. eigenvalues --  -19.11164 -14.31394 -10.25170 -10.21175 -10.20870
 Alpha  occ. eigenvalues --  -10.20698 -10.19770 -10.19543 -10.19278 -10.18991
 Alpha  occ. eigenvalues --  -10.18958 -10.18601 -10.18593 -10.17909 -10.17847
 Alpha  occ. eigenvalues --  -10.16835  -1.02067  -0.90548  -0.84926  -0.80728
 Alpha  occ. eigenvalues --   -0.78426  -0.76643  -0.73179  -0.72012  -0.67477
 Alpha  occ. eigenvalues --   -0.65051  -0.62033  -0.60859  -0.59365  -0.55870
 Alpha  occ. eigenvalues --   -0.55451  -0.51385  -0.49897  -0.47977  -0.47175
 Alpha  occ. eigenvalues --   -0.46272  -0.45546  -0.43832  -0.43662  -0.43312
 Alpha  occ. eigenvalues --   -0.43076  -0.41339  -0.40077  -0.39828  -0.39338
 Alpha  occ. eigenvalues --   -0.38664  -0.37673  -0.37255  -0.36323  -0.35933
 Alpha  occ. eigenvalues --   -0.35087  -0.34703  -0.33625  -0.33351  -0.33220
 Alpha  occ. eigenvalues --   -0.32361  -0.32130  -0.26235  -0.25560  -0.23029
 Alpha  occ. eigenvalues --   -0.22521
 Alpha virt. eigenvalues --   -0.04094   0.01565   0.05840   0.07728   0.09310
 Alpha virt. eigenvalues --    0.10090   0.10601   0.11548   0.12077   0.12424
 Alpha virt. eigenvalues --    0.12658   0.13112   0.14050   0.14793   0.15577

 Mulliken charges:
               1
     1  C   -0.314572
     2  C    0.017256
     3  C   -0.167405
     4  N   -0.299017
     5  C   -0.122778
     6  C   -0.194257
     7  C   -0.177735
     8  C   -0.304053
     9  C    0.314925
    10  C   -0.250965
    11  C    0.380831
    12  O   -0.345936
    13  C   -0.091322
    14  C   -0.399814
    15  C   -0.217610
    16  C   -0.315514
    17  H    0.113535
    18  H    0.103635
    19  H    0.097184
    20  H    0.109639
    21  H    0.078009
    22  H    0.211409
    23  H    0.102619
    24  H    0.072934
    25  H    0.089679
    26  H    0.110868
    27  H    0.108839
    28  H    0.100392
    29  H    0.103315
    30  H    0.111028
    31  H    0.092760
    32  H    0.094830
    33  H    0.117203
    34  H    0.103419
    35  H    0.137018
    36  H    0.098338
    37  H    0.104658
    38  H    0.118461
    39  H    0.108193
 Sum of Mulliken charges =  -0.00000

 Dipole moment (field-independent basis, Debye):
    X=              2.4025    Y=              3.2257    Z=              1.5037  Tot=              4.2940
 Quadrupole moment (field-independent basis, Debye-Ang):
   XX=           -114.6160   YY=           -101.9993   ZZ=            -98.3531
   XY=            -10.0365   XZ=             -5.1800   YZ=             -1.0633

  Exact polarizability: 228.664  12.464 146.400  16.367   3.895 122.082
 Approx polarizability: 262.748  35.433 238.655  26.428  17.152 196.584

                      1                      2                      3
                      A                      A                      A
 Frequencies --     21.3728                25.5203                36.8831
 Red. masses --      4.1832                 3.3061                 2.5072
 Frc consts  --      0.0011                 0.0013                 0.0020
 IR Inten    --      0.6845                 0.2086                 0.0517

                      4                      5                      6
                      A                      A                      A
 Frequencies --     54.2017                68.0523                85.5077
 Red. masses --      3.8317                 3.1219                 2.4801
 Frc consts  --      0.0066                 0.0085                 0.0107
 IR Inten    --      0.5656                 0.7922                 0.6355

                      7                      8                      9
                      A                      A                      A
 Frequencies --    102.4439               118.2358               149.7354
 Red. masses --      3.0272                 2.3538                 2.3553
 Frc consts  --      0.0187                 0.0194                 0.0311
 IR Inten    --      0.9920                 0.2489                 1.5697

                     10                     11                     12
                      A                      A                      A
 Frequencies --    157.8461               171.2947               195.5465
 Red. masses --      2.4425                 3.7519                 1.1417
 Frc consts  --      0.0359                 0.0649                 0.0257
 IR Inten    --      1.3594                 0.4287                 0.0328

                     13                     14                     15
                      A                      A                      A
 Frequencies --    203.9424               214.3564               273.3989
 Red. masses --      3.2842                 2.0695                 2.3958
 Frc consts  --      0.0805                 0.0560                 0.1055
 IR Inten    --      0.1083                 0.3594                 0.8897

                     16                     17                     18
                      A                      A                      A
 Frequencies --    303.1037               314.2803               360.5110
 Red. masses --      2.9127                 2.9963                 2.3447
 Frc consts  --      0.1577                 0.1744                 0.1795
 IR Inten    --      4.3411                 5.4471                 0.4651

                     19                     20                     21
                      A                      A                      A
 Frequencies --    368.6034               418.1457               448.3174
 Red. masses --      3.2619                 2.9748                 3.5481
 Frc consts  --      0.2611                 0.3065                 0.4202
 IR Inten    --      0.3500                 3.9937                 0.9248

                     22                     23                     24
                      A                      A                      A
 Frequencies --    474.1429               484.6053               526.6298
 Red. masses --      2.4787                 3.2129                 3.8376
 Frc consts  --      0.3283                 0.4446                 0.6271
 IR Inten    --      0.2126                 2.6755                 5.9821

                     25                     26                     27
                      A                      A                      A
 Frequencies --    583.9446               660.2593               663.9035
 Red. masses --      2.9260                 1.9759                 2.4668
 Frc consts  --      0.5878                 0.5075                 0.6406
 IR Inten    --      3.1558                 4.2043                 0.5304

                     28                     29                     30
                      A                      A                      A
 Frequencies --    683.0614               741.2461               746.8137
 Red. masses --      3.5231                 1.0889                 2.3673
 Frc consts  --      0.9685                 0.3525                 0.7779
 IR Inten    --      2.1368                 1.9946                 3.2258

                     31                     32                     33
                      A                      A                      A
 Frequencies --    789.1563               797.7246               833.1382
 Red. masses --      1.1903                 1.3072                 1.9741
 Frc consts  --      0.4367                 0.4901                 0.8073
 IR Inten    --     28.7358                44.1101                 3.0281

                     34                     35                     36
                      A                      A                      A
 Frequencies --    862.9042               919.9475               928.1511
 Red. masses --      2.1425                 1.4942                 1.3557
 Frc consts  --      0.9399                 0.7450                 0.6881
 IR Inten    --      0.9907                 6.8108                 7.6630

                     37                     38                     39
                      A                      A                      A
 Frequencies --    932.1962               955.0324               956.7357
 Red. masses --      1.4958                 1.4288                 1.3150
 Frc consts  --      0.7659                 0.7678                 0.7092
 IR Inten    --      0.8404                21.0737                 9.2067

                     40                     41                     42
                      A                      A                      A
 Frequencies --    961.2952               966.3473              1011.0076
 Red. masses --      1.7724                 2.0762                 3.2415
 Frc consts  --      0.9650                 1.1423                 1.9521
 IR Inten    --      1.7524                14.5784                 4.5234

                     43                     44                     45
                      A                      A                      A
 Frequencies --   1027.8616              1035.1166              1042.8992
 Red. masses --      2.6385                 2.6708                 1.1205
 Frc consts  --      1.6424                 1.6861                 0.7180
 IR Inten    --      1.1574                 1.2600                15.5111

                     46                     47                     48
                      A                      A                      A
 Frequencies --   1060.9964              1068.2439              1092.0318
 Red. masses --      2.3840                 1.9313                 1.9783
 Frc consts  --      1.5812                 1.2985                 1.3900
 IR Inten    --      1.5879                 4.6012                19.2657

                     49                     50                     51
                      A                      A                      A
 Frequencies --   1110.0634              1116.0620              1134.2620
 Red. masses --      2.0242                 1.8583                 1.7330
 Frc consts  --      1.4696                 1.3638                 1.3137
 IR Inten    --      6.1055                 7.3487                 0.9715

                     52                     53                     54
                      A                      A                      A
 Frequencies --   1140.6175              1150.4039              1163.1262
 Red. masses --      1.6680                 3.2449                 2.2076
 Frc consts  --      1.2786                 2.5302                 1.7597
 IR Inten    --     10.0023                56.3052                 0.1768

                     55                     56                     57
                      A                      A                      A
 Frequencies --   1199.0265              1201.7359              1222.9756
 Red. masses --      1.7019                 1.6596                 2.0241
 Frc consts  --      1.4416                 1.4121                 1.7837
 IR Inten    --      1.7289                 3.4561               102.0450

                     58                     59                     60
                      A                      A                      A
 Frequencies --   1245.4825              1254.3481              1263.8688
 Red. masses --      1.2547                 1.3118                 1.3160
 Frc consts  --      1.1467                 1.2161                 1.2385
 IR Inten    --      5.1424                18.2698                 2.1828

                     61                     62                     63
                      A                      A                      A
 Frequencies --   1293.1115              1311.3875              1313.2458
 Red. masses --      1.3393                 1.2974                 1.2641
 Frc consts  --      1.3195                 1.3146                 1.2845
 IR Inten    --      1.7579                 5.4829                 1.0160

                     64                     65                     66
                      A                      A                      A
 Frequencies --   1319.6315              1321.2387              1329.7292
 Red. masses --      1.2499                 1.0917                 1.2697
 Frc consts  --      1.2825                 1.1228                 1.3227
 IR Inten    --      2.7616                 0.2640                15.2737

                     67                     68                     69
                      A                      A                      A
 Frequencies --   1337.7891              1350.7399              1359.3930
 Red. masses --      1.2984                 1.4806                 1.3528
 Frc consts  --      1.3691                 1.5916                 1.4729
 IR Inten    --      0.2054                19.5279                10.2602

                     70                     71                     72
                      A                      A                      A
 Frequencies --   1380.6729              1385.4989              1395.8321
 Red. masses --      2.0055                 1.5259                 1.7012
 Frc consts  --      2.2525                 1.7258                 1.9528
 IR Inten    --     25.5173                 0.6580                 6.1365

                     73                     74                     75
                      A                      A                      A
 Frequencies --   1409.4126              1418.7340              1459.8804
 Red. masses --      1.2562                 1.4646                 1.2192
 Frc consts  --      1.4703                 1.7368                 1.5310
 IR Inten    --      4.6089                 3.8596                 4.3636

                     76                     77                     78
                      A                      A                      A
 Frequencies --   1468.3207              1481.3504              1487.7987
 Red. masses --      1.0882                 1.0872                 1.0905
 Frc consts  --      1.3823                 1.4057                 1.4222
 IR Inten    --      4.9516                 0.8888                 0.5627

                     79                     80                     81
                      A                      A                      A
 Frequencies --   1489.1898              1490.2542              1493.6447
 Red. masses --      1.0637                 1.2140                 1.0703
 Frc consts  --      1.3899                 1.5885                 1.4069
 IR Inten    --      8.3946                40.5708                 5.2686

                     82                     83                     84
                      A                      A                      A
 Frequencies --   1499.4187              1499.7955              1505.6980
 Red. masses --      1.0864                 1.0619                 1.0962
 Frc consts  --      1.4391                 1.4073                 1.4643
 IR Inten    --      3.7950                 7.5421                 1.0041

                     85                     86                     87
                      A                      A                      A
 Frequencies --   1522.6834              1686.9317              1719.4047
 Red. masses --      1.0907                 7.3631                 4.8786
 Frc consts  --      1.4900                12.3455                 8.4978
 IR Inten    --      2.5249                67.0621                 4.9962

                     88                     89                     90
                      A                      A                      A
 Frequencies --   1763.3528              2903.0407              2925.9326
 Red. masses --     11.7771                 1.0729                 1.0710
 Frc consts  --     21.5759                 5.3273                 5.4021
 IR Inten    --    240.6212                59.7566                77.5272

                     91                     92                     93
                      A                      A                      A
 Frequencies --   2968.8622              2988.4117              3003.8096
 Red. masses --      1.0798                 1.0706                 1.0681
 Frc consts  --      5.6074                 5.6330                 5.6782
 IR Inten    --     13.2012                11.4565                10.7467

                     94                     95                     96
                      A                      A                      A
 Frequencies --   3005.4095              3009.9114              3020.6223
 Red. masses --      1.0854                 1.0625                 1.0641
 Frc consts  --      5.7761                 5.6714                 5.7205
 IR Inten    --     19.3971                16.5993                35.4328

                     97                     98                     99
                      A                      A                      A
 Frequencies --   3021.1577              3027.1889              3039.4500
 Red. masses --      1.0655                 1.0763                 1.0378
 Frc consts  --      5.7297                 5.8110                 5.6490
 IR Inten    --      1.8686                59.4970                31.6519

                    100                    101                    102
                      A                      A                      A
 Frequencies --   3048.0919              3052.7947              3064.1952
 Red. masses --      1.0925                 1.0882                 1.0985
 Frc consts  --      5.9802                 5.9749                 6.0770
 IR Inten    --     16.7367                23.7488                 7.1451

                    103                    104                    105
                      A                      A                      A
 Frequencies --   3067.0914              3081.0511              3102.2752
 Red. masses --      1.1019                 1.1028                 1.1014
 Frc consts  --      6.1074                 6.1681                 6.2454
 IR Inten    --     30.4319                68.7193                31.2591

                    106                    107                    108
                      A                      A                      A
 Frequencies --   3136.3493              3138.2577              3151.7610
 Red. masses --      1.0992                 1.0597                 1.0913
 Frc consts  --      6.3705                 6.1489                 6.3872
 IR Inten    --     10.3162                12.3714                 6.8347

                    109                    110                    111
                      A                      A                      A
 Frequencies --   3163.7376              3223.0676              3500.0318
 Red. masses --      1.0904                 1.1141                 1.0735
 Frc consts  --      6.4302                 6.8186                 7.7479
 IR Inten    --     10.6196                16.8075                 0.3663

 - Thermochemistry -
 -------------------
 Temperature   298.150 Kelvin.  Pressure   1.00000 Atm.
 Atom     1 has atomic number  6 and mass  12.00000

 Molecular mass:   221.17796 amu.
 Principal axes and moments of inertia in atomic units:
                           1         2         3
     Eigenvalues --   988.41233********************
           X            0.99998  -0.00617   0.00008
           Y            0.00617   0.99904  -0.04346
           Z            0.00019   0.04346   0.99906
 This molecule is an asymmetric top.
 Rotational symmetry number  1.
 Warning -- assumption of classical behavior for rotation
           may cause significant error
 Rotational temperatures (Kelvin)      0.08763     0.00570     0.00559
 Rotational constants (GHZ):           1.82590     0.11883     0.11642
 Zero-point vibrational energy     910569.3 (Joules/Mol)
                                  217.63129 (Kcal/Mol)
 Warning -- explicit consideration of  25 degrees of freedom as
           vibrations may cause significant error
 Vibrational temperatures:     30.75    36.72    53.07    77.98    97.91
          (Kelvin)            123.03   147.39   170.11   215.44   227.11
                              246.45   281.35   293.43   308.41   393.36
                              436.10   452.18   518.69   530.34   601.62
                              645.03   682.19   697.24   757.70   840.17
                              949.97   955.21   982.77  1066.49  1074.50
                             1135.42  1147.75  1198.70  1241.53  1323.60
                             1335.40  1341.22  1374.08  1376.53  1383.09
                             1390.36  1454.61  1478.86  1489.30  1500.50
                             1526.54  1536.96  1571.19  1597.13  1605.76
                             1631.95  1641.09  1655.17  1673.48  1725.13
                             1729.03  1759.59  1791.97  1804.73  1818.43
                             1860.50  1886.79  1889.47  1898.66  1900.97
                             1913.18  1924.78  1943.41  1955.86  1986.48
                             1993.42  2008.29  2027.83  2041.24  2100.44
                             2112.59  2131.33  2140.61  2142.61  2144.14
                             2149.02  2157.33  2157.87  2166.36  2190.80
                             2427.12  2473.84  2537.07  4176.83  4209.76
                             4271.53  4299.66  4321.81  4324.11  4330.59
                             4346.00  4346.77  4355.45  4373.09  4385.52
                             4392.29  4408.69  4412.86  4432.95  4463.48
                             4512.51  4515.25  4534.68  4551.91  4637.28
                             5035.77

 Zero-point correction=                           0.346818 (Hartree/Particle)
 Thermal correction to Energy=                    0.364835
 Thermal correction to Enthalpy=                  0.365779
 Thermal correction to Gibbs Free Energy=         0.298084
 Sum of electronic and zero-point Energies=           -676.990708
 Sum of electronic and thermal Energies=              -676.972691
 Sum of electronic and thermal Enthalpies=            -676.971746
 Sum of electronic and thermal Free Energies=         -677.039442

                     E (Thermal)             CV                S
                      KCal/Mol        Cal/Mol-Kelvin    Cal/Mol-Kelvin
 Total                  228.937             66.002            142.477
 Electronic               0.000              0.000              0.000
 Translational            0.889              2.981             42.084
 Rotational               0.889              2.981             33.809
 Vibrational            227.160             60.040             66.584
 Vibration     1          0.593              1.985              6.502
 Vibration     2          0.593              1.985              6.150
 Vibration     3          0.594              1.982              5.420
 Vibration     4          0.596              1.976              4.658
 Vibration     5          0.598              1.969              4.209
 Vibration     6          0.601              1.959              3.760
 Vibration     7          0.605              1.947              3.407
 Vibration     8          0.608              1.934              3.129
 Vibration     9          0.618              1.903              2.676
 Vibration    10          0.621              1.894              2.575
 Vibration    11          0.626              1.878              2.421
 Vibration    12          0.636              1.846              2.175
 Vibration    13          0.640              1.834              2.097
 Vibration    14          0.644              1.819              2.006
 Vibration    15          0.676              1.722              1.575
 Vibration    16          0.695              1.668              1.400
 Vibration    17          0.702              1.646              1.340
 Vibration    18          0.735              1.554              1.120
 Vibration    19          0.741              1.537              1.086
 Vibration    20          0.781              1.431              0.898
 Vibration    21          0.807              1.365              0.801
 Vibration    22          0.831              1.307              0.726
 Vibration    23          0.841              1.284              0.698
 Vibration    24          0.882              1.191              0.595
 Vibration    25          0.941              1.066              0.478

                           ! Non-Optimized Parameters !
 Normal termination of Gaussian 16 at Mon May 22 13:16:35 2023.
