 Gaussian 16, Revision A.03,
 Gaussian 16:  ES64L-G16RevA.03 25-Dec-2016

 -----------------------------
 # opt freq b3lyp/6-31g(2df,p)
 -----------------------------

 -------------------
 Title Card Required
 -------------------
 Symbolic Z-matrix:
 Charge =  0 Multiplicity = 1

 SCF Done:  E(RB3LYP) =  -541.943182681     A.U. after   15 cycles
 SCF Done:  E(RB3LYP) =  -541.974143857     A.U. after   13 cycles
 SCF Done:  E(RB3LYP) =  -541.993879403     A.U. after   13 cycles
 SCF Done:  E(RB3LYP) =  -542.005224774     A.U. after   12 cycles
 SCF Done:  E(RB3LYP) =  -542.009457548     A.U. after   11 cycles
 SCF Done:  E(RB3LYP) =  -542.011506517     A.U. after   12 cycles
 SCF Done:  E(RB3LYP) =  -542.012675080     A.U. after   12 cycles
 SCF Done:  E(RB3LYP) =  -542.013612879     A.U. after   12 cycles
 SCF Done:  E(RB3LYP) =  -542.014931510     A.U. after   12 cycles
 SCF Done:  E(RB3LYP) =  -542.014885613     A.U. after   11 cycles
 SCF Done:  E(RB3LYP) =  -542.017538884     A.U. after   12 cycles
 SCF Done:  E(RB3LYP) =  -542.017645481     A.U. after   11 cycles
 SCF Done:  E(RB3LYP) =  -542.017704107     A.U. after    9 cycles
 SCF Done:  E(RB3LYP) =  -542.017780486     A.U. after   10 cycles
 SCF Done:  E(RB3LYP) =  -542.017798441     A.U. after    9 cycles
 SCF Done:  E(RB3LYP) =  -542.017799056     A.U. after    7 cycles
 SCF Done:  E(RB3LYP) =  -542.017799275     A.U. after    7 cycles
 SCF Done:  E(RB3LYP) =  -542.017799317     A.U. after    6 cycles
 SCF Done:  E(RB3LYP) =  -542.017799350     A.U. after    6 cycles
 Optimization completed.
    -- Stationary point found.
 Normal termination of Gaussian 16 at Sat May 27 23:51:28 2023.

 ----------------------------------------------------------------------
 #N Geom=AllCheck Guess=TCheck SCRF=Check GenChk RB3LYP/6-31G(2df,p) Fr
 eq
 ----------------------------------------------------------------------

 Structure from the checkpoint file:  "CdCC12CdCCCCCCOC1dC2.chk"
 -------------------
 Title Card Required
 -------------------
 Charge =  0 Multiplicity = 1

                         Standard orientation:
 ---------------------------------------------------------------------
 Center     Atomic      Atomic             Coordinates (Angstroms)
 Number     Number       Type             X           Y           Z
 ---------------------------------------------------------------------
      1          6           0       -3.897762   -0.505679   -0.622411
      2          6           0       -2.622383   -0.808262   -0.849232
      3          6           0       -1.479946   -0.562152    0.088118
      4          6           0       -0.229768   -1.329598   -0.222987
      5          6           0        0.824251   -1.487395    0.578750
      6          6           0        2.197667   -1.855633    0.099498
      7          6           0        3.141804   -0.620684    0.041249
      8          6           0        2.569915    0.585384   -0.738496
      9          6           0        1.652690    1.507241    0.109148
     10          6           0        0.353359    1.964969   -0.582804
     11          8           0       -0.754243    2.014013    0.354810
     12          6           0       -1.244351    0.821990    0.662869
     13          6           0       -1.757463   -0.017036    1.497666
     14          1           0       -4.669131   -0.707691   -1.356974
     15          1           0       -4.213988   -0.039003    0.305792
     16          1           0       -2.355364   -1.279788   -1.794915
     17          1           0       -0.139384   -1.651471   -1.261896
     18          1           0        0.740878   -1.177457    1.620443
     19          1           0        2.128982   -2.289167   -0.905988
     20          1           0        2.661771   -2.613593    0.743577
     21          1           0        4.083923   -0.941480   -0.418729
     22          1           0        3.395347   -0.303558    1.061144
     23          1           0        2.017530    0.209443   -1.608630
     24          1           0        3.400096    1.172765   -1.144962
     25          1           0        2.214123    2.384182    0.447965
     26          1           0        1.354739    0.980362    1.017294
     27          1           0        0.080255    1.291276   -1.401371
     28          1           0        0.423007    2.980430   -0.976761
     29          1           0       -2.136914   -0.286222    2.467315
 ---------------------------------------------------------------------

 SCF Done:  E(RB3LYP) =  -542.017799350     A.U. after    1 cycles

 The electronic state is 1-A.
 Alpha  occ. eigenvalues --  -19.18533 -10.24570 -10.24389 -10.20855 -10.18575
 Alpha  occ. eigenvalues --  -10.18527 -10.18425 -10.18293 -10.18265 -10.17505
 Alpha  occ. eigenvalues --  -10.17315 -10.17028 -10.16298  -1.07554  -0.87648
 Alpha  occ. eigenvalues --   -0.81336  -0.77225  -0.75385  -0.73928  -0.68349
 Alpha  occ. eigenvalues --   -0.65033  -0.60841  -0.57799  -0.55714  -0.54084
 Alpha  occ. eigenvalues --   -0.53433  -0.49822  -0.48869  -0.47250  -0.45553
 Alpha  occ. eigenvalues --   -0.44916  -0.42988  -0.41965  -0.40247  -0.39235
 Alpha  occ. eigenvalues --   -0.38804  -0.36985  -0.36542  -0.34433  -0.34016
 Alpha  occ. eigenvalues --   -0.33485  -0.32884  -0.32253  -0.32111  -0.30676
 Alpha  occ. eigenvalues --   -0.24978  -0.22925  -0.21136
 Alpha virt. eigenvalues --    0.00771   0.02598   0.04530   0.08571   0.09763
 Alpha virt. eigenvalues --    0.09923   0.11547   0.12151   0.12895   0.14198
 Alpha virt. eigenvalues --    0.14692   0.14910   0.15765   0.16346   0.17150

 Mulliken charges:
               1
     1  C   -0.345750
     2  C   -0.041806
     3  C    0.160548
     4  C   -0.105163
     5  C   -0.097389
     6  C   -0.237268
     7  C   -0.190501
     8  C   -0.190999
     9  C   -0.185218
    10  C   -0.095727
    11  O   -0.255575
    12  C    0.376033
    13  C   -0.409148
    14  H    0.105778
    15  H    0.099943
    16  H    0.075472
    17  H    0.072004
    18  H    0.080962
    19  H    0.095199
    20  H    0.095935
    21  H    0.095036
    22  H    0.098250
    23  H    0.096386
    24  H    0.097320
    25  H    0.099781
    26  H    0.123262
    27  H    0.121217
    28  H    0.119108
    29  H    0.142309
 Sum of Mulliken charges =  -0.00000

 Dipole moment (field-independent basis, Debye):
    X=              1.8639    Y=              0.3919    Z=             -0.5657  Tot=              1.9869
 Quadrupole moment (field-independent basis, Debye-Ang):
   XX=            -78.2195   YY=            -80.8546   ZZ=            -75.0559
   XY=              1.5038   XZ=             -0.8386   YZ=             -1.0186

  Exact polarizability: 163.997  -1.615 110.718   0.833   1.561 108.338
 Approx polarizability: 219.979  -2.824 171.044   1.314   0.103 183.129

                      1                      2                      3
                      A                      A                      A
 Frequencies --     51.8465                70.7314               101.6235
 Red. masses --      3.2833                 2.6825                 3.1455
 Frc consts  --      0.0052                 0.0079                 0.0191
 IR Inten    --      0.2652                 0.1521                 0.4443

                      4                      5                      6
                      A                      A                      A
 Frequencies --    143.2513               163.0011               199.5400
 Red. masses --      2.8418                 2.5141                 2.3889
 Frc consts  --      0.0344                 0.0394                 0.0560
 IR Inten    --      0.1759                 0.1637                 0.3975

                      7                      8                      9
                      A                      A                      A
 Frequencies --    223.6304               274.2880               280.6550
 Red. masses --      2.7765                 2.7584                 2.3191
 Frc consts  --      0.0818                 0.1223                 0.1076
 IR Inten    --      2.3703                 0.5161                 0.2499

                     10                     11                     12
                      A                      A                      A
 Frequencies --    297.3493               327.9663               357.7753
 Red. masses --      2.4079                 2.3768                 2.7912
 Frc consts  --      0.1254                 0.1506                 0.2105
 IR Inten    --      1.8910                 2.2368                 0.5186

                     13                     14                     15
                      A                      A                      A
 Frequencies --    371.8933               429.3073               462.5767
 Red. masses --      2.7334                 3.2736                 3.2446
 Frc consts  --      0.2227                 0.3555                 0.4091
 IR Inten    --      0.7165                 0.4743                 8.4580

                     16                     17                     18
                      A                      A                      A
 Frequencies --    488.7422               504.4856               584.5966
 Red. masses --      2.1870                 2.4927                 2.0574
 Frc consts  --      0.3078                 0.3738                 0.4143
 IR Inten    --     10.5923                 0.9722                 6.2149

                     19                     20                     21
                      A                      A                      A
 Frequencies --    620.6521               632.2026               686.7358
 Red. masses --      2.7974                 2.9844                 2.6280
 Frc consts  --      0.6349                 0.7028                 0.7302
 IR Inten    --     21.2701                 5.5678                32.5244

                     22                     23                     24
                      A                      A                      A
 Frequencies --    720.1476               756.8465               778.5697
 Red. masses --      1.4808                 2.5058                 2.8570
 Frc consts  --      0.4525                 0.8457                 1.0204
 IR Inten    --      5.3503                 1.4804                17.1779

                     25                     26                     27
                      A                      A                      A
 Frequencies --    843.6058               854.9942               874.3740
 Red. masses --      1.7770                 2.1122                 1.7918
 Frc consts  --      0.7451                 0.9097                 0.8071
 IR Inten    --      1.6051                 2.5289                 0.7431

                     28                     29                     30
                      A                      A                      A
 Frequencies --    907.3175               934.7549               945.7649
 Red. masses --      2.1922                 1.4126                 2.9871
 Frc consts  --      1.0633                 0.7272                 1.5742
 IR Inten    --      9.2982                24.9862                13.3280

                     31                     32                     33
                      A                      A                      A
 Frequencies --    979.5787               985.0201               992.2579
 Red. masses --      2.0674                 1.4974                 2.8004
 Frc consts  --      1.1688                 0.8560                 1.6245
 IR Inten    --      8.5245                12.9107                17.0094

                     34                     35                     36
                      A                      A                      A
 Frequencies --   1023.4024              1026.2929              1033.7614
 Red. masses --      2.7894                 1.1465                 1.3994
 Frc consts  --      1.7213                 0.7115                 0.8811
 IR Inten    --      7.1592                17.2549                49.6849

                     37                     38                     39
                      A                      A                      A
 Frequencies --   1040.9087              1070.0563              1076.9827
 Red. masses --      1.6015                 2.4354                 2.1110
 Frc consts  --      1.0224                 1.6430                 1.4426
 IR Inten    --     33.0931                 8.3229                13.4974

                     40                     41                     42
                      A                      A                      A
 Frequencies --   1102.9418              1118.0682              1132.9172
 Red. masses --      2.1790                 2.6003                 2.8771
 Frc consts  --      1.5618                 1.9152                 2.1757
 IR Inten    --      7.1946               118.2128                 3.3745

                     43                     44                     45
                      A                      A                      A
 Frequencies --   1187.4392              1220.8968              1224.8952
 Red. masses --      1.8907                 2.5692                 1.2900
 Frc consts  --      1.5707                 2.2564                 1.1403
 IR Inten    --      7.2455                 3.9713                13.5512

                     46                     47                     48
                      A                      A                      A
 Frequencies --   1266.2043              1294.6506              1308.0825
 Red. masses --      1.2995                 1.2298                 1.1148
 Frc consts  --      1.2275                 1.2145                 1.1238
 IR Inten    --     13.5032                 5.9424                 8.9648

                     49                     50                     51
                      A                      A                      A
 Frequencies --   1316.7067              1326.9481              1334.0094
 Red. masses --      1.2235                 1.3166                 1.2023
 Frc consts  --      1.2498                 1.3658                 1.2606
 IR Inten    --      0.8247                 1.7991                 2.0646

                     52                     53                     54
                      A                      A                      A
 Frequencies --   1346.7132              1361.8566              1373.5758
 Red. masses --      1.2558                 1.2872                 1.3633
 Frc consts  --      1.3419                 1.4066                 1.5154
 IR Inten    --      1.2443                 0.7569                 5.4596

                     55                     56                     57
                      A                      A                      A
 Frequencies --   1382.0637              1409.2267              1444.6392
 Red. masses --      1.3779                 1.2720                 1.2045
 Frc consts  --      1.5506                 1.4883                 1.4810
 IR Inten    --      0.9248                 5.2882                 6.5775

                     58                     59                     60
                      A                      A                      A
 Frequencies --   1481.2399              1487.8681              1489.6993
 Red. masses --      1.0931                 1.0826                 1.0692
 Frc consts  --      1.4130                 1.4121                 1.3979
 IR Inten    --      4.3326                 2.5856                 2.4219

                     61                     62                     63
                      A                      A                      A
 Frequencies --   1492.3871              1503.0160              1702.9232
 Red. masses --      1.0969                 1.0905                 5.0296
 Frc consts  --      1.4394                 1.4515                 8.5936
 IR Inten    --      1.3136                11.1651                11.4919

                     64                     65                     66
                      A                      A                      A
 Frequencies --   1722.5702              1891.2898              3012.8575
 Red. masses --      6.2139                 7.8391                 1.0594
 Frc consts  --     10.8634                16.5209                 5.6659
 IR Inten    --      3.2697               156.1764                26.5152

                     67                     68                     69
                      A                      A                      A
 Frequencies --   3020.5667              3027.1616              3047.8697
 Red. masses --      1.0629                 1.0626                 1.0792
 Frc consts  --      5.7138                 5.7370                 5.9069
 IR Inten    --     40.9653                15.1759                 4.1856

                     70                     71                     72
                      A                      A                      A
 Frequencies --   3051.5013              3054.3520              3066.0460
 Red. masses --      1.0923                 1.0676                 1.1014
 Frc consts  --      5.9924                 5.8680                 6.1006
 IR Inten    --     31.9439                24.9279                49.3894

                     73                     74                     75
                      A                      A                      A
 Frequencies --   3069.8805              3106.6698              3107.2787
 Red. masses --      1.0912                 1.0885                 1.0923
 Frc consts  --      6.0592                 6.1897                 6.2140
 IR Inten    --     56.4864                13.5324                 2.8949

                     76                     77                     78
                      A                      A                      A
 Frequencies --   3123.6205              3125.2791              3126.4040
 Red. masses --      1.0927                 1.0938                 1.0853
 Frc consts  --      6.2818                 6.2948                 6.2501
 IR Inten    --     14.1858                35.6349                43.0691

                     79                     80                     81
                      A                      A                      A
 Frequencies --   3147.1331              3229.3726              3283.3017
 Red. masses --      1.0668                 1.1142                 1.1178
 Frc consts  --      6.2253                 6.8464                 7.0998
 IR Inten    --      5.1309                12.5643                 3.9633

 - Thermochemistry -
 -------------------
 Temperature   298.150 Kelvin.  Pressure   1.00000 Atm.
 Atom     1 has atomic number  6 and mass  12.00000

 Molecular mass:   176.12012 amu.
 Principal axes and moments of inertia in atomic units:
                           1         2         3
     Eigenvalues --  1381.336473060.713293803.25328
           X            0.99999   0.00426   0.00271
           Y           -0.00424   0.99997  -0.00652
           Z           -0.00274   0.00651   0.99998
 This molecule is an asymmetric top.
 Rotational symmetry number  1.
 Warning -- assumption of classical behavior for rotation
           may cause significant error
 Rotational temperatures (Kelvin)      0.06270     0.02830     0.02277
 Rotational constants (GHZ):           1.30652     0.58965     0.47453
 Zero-point vibrational energy     655790.5 (Joules/Mol)
                                  156.73769 (Kcal/Mol)
 Warning -- explicit consideration of  19 degrees of freedom as
           vibrations may cause significant error
 Vibrational temperatures:     74.60   101.77   146.21   206.11   234.52
          (Kelvin)            287.09   321.75   394.64   403.80   427.82
                              471.87   514.76   535.07   617.68   665.54
                              703.19   725.84   841.10   892.98   909.60
                              988.06  1036.13  1088.93  1120.19  1213.76
                             1230.15  1258.03  1305.43  1344.90  1360.74
                             1409.40  1417.22  1427.64  1472.45  1476.61
                             1487.35  1497.64  1539.57  1549.54  1586.89
                             1608.65  1630.02  1708.46  1756.60  1762.35
                             1821.79  1862.71  1882.04  1894.45  1909.18
                             1919.34  1937.62  1959.41  1976.27  1988.48
                             2027.56  2078.51  2131.17  2140.71  2143.35
                             2147.21  2162.50  2450.13  2478.39  2721.14
                             4334.83  4345.92  4355.41  4385.20  4390.43
                             4394.53  4411.36  4416.87  4469.80  4470.68
                             4494.19  4496.58  4498.20  4528.02  4646.35
                             4723.94

 Zero-point correction=                           0.249777 (Hartree/Particle)
 Thermal correction to Energy=                    0.262474
 Thermal correction to Enthalpy=                  0.263418
 Thermal correction to Gibbs Free Energy=         0.211248
 Sum of electronic and zero-point Energies=           -541.768022
 Sum of electronic and thermal Energies=              -541.755325
 Sum of electronic and thermal Enthalpies=            -541.754381
 Sum of electronic and thermal Free Energies=         -541.806552

                     E (Thermal)             CV                S
                      KCal/Mol        Cal/Mol-Kelvin    Cal/Mol-Kelvin
 Total                  164.705             50.079            109.802
 Electronic               0.000              0.000              0.000
 Translational            0.889              2.981             41.405
 Rotational               0.889              2.981             31.153
 Vibrational            162.927             44.117             37.243
 Vibration     1          0.596              1.977              4.746
 Vibration     2          0.598              1.968              4.133
 Vibration     3          0.604              1.948              3.423
 Vibration     4          0.616              1.910              2.760
 Vibration     5          0.623              1.888              2.515
 Vibration     6          0.638              1.841              2.137
 Vibration     7          0.649              1.805              1.930
 Vibration     8          0.677              1.721              1.569
 Vibration     9          0.680              1.709              1.530
 Vibration    10          0.691              1.679              1.432
 Vibration    11          0.711              1.620              1.270
 Vibration    12          0.733              1.559              1.132
 Vibration    13          0.744              1.530              1.072
 Vibration    14          0.791              1.406              0.861
 Vibration    15          0.820              1.333              0.759
 Vibration    16          0.845              1.275              0.687
 Vibration    17          0.860              1.240              0.647
 Vibration    18          0.942              1.065              0.477
 Vibration    19          0.981              0.988              0.415

 Optimization completed.
    -- Stationary point found.
 Normal termination of Gaussian 16 at Sun May 28 01:39:41 2023.
