 Gaussian 16, Revision A.03,
 Gaussian 16:  ES64L-G16RevA.03 25-Dec-2016

 -----------------------------
 # opt freq b3lyp/6-31g(2df,p)
 -----------------------------

 -------------------
 Title Card Required
 -------------------
 Symbolic Z-matrix:
 Charge =  0 Multiplicity = 1

 SCF Done:  E(RB3LYP) =  -511.051117829     A.U. after   12 cycles
 SCF Done:  E(RB3LYP) =  -511.066644428     A.U. after   11 cycles
 SCF Done:  E(RB3LYP) =  -511.073182225     A.U. after   11 cycles
 SCF Done:  E(RB3LYP) =  -511.075173884     A.U. after   10 cycles
 SCF Done:  E(RB3LYP) =  -511.075560946     A.U. after   10 cycles
 SCF Done:  E(RB3LYP) =  -511.075697449     A.U. after   10 cycles
 SCF Done:  E(RB3LYP) =  -511.075739908     A.U. after    9 cycles
 SCF Done:  E(RB3LYP) =  -511.075792510     A.U. after    9 cycles
 SCF Done:  E(RB3LYP) =  -511.075798228     A.U. after    9 cycles
 SCF Done:  E(RB3LYP) =  -511.075851002     A.U. after    8 cycles
 SCF Done:  E(RB3LYP) =  -511.079444906     A.U. after   10 cycles
 SCF Done:  E(RB3LYP) =  -511.079875452     A.U. after   10 cycles
 SCF Done:  E(RB3LYP) =  -511.080550440     A.U. after    8 cycles
 SCF Done:  E(RB3LYP) =  -511.079795000     A.U. after   10 cycles
 SCF Done:  E(RB3LYP) =  -511.080582774     A.U. after   10 cycles
 SCF Done:  E(RB3LYP) =  -511.080593850     A.U. after    9 cycles
 SCF Done:  E(RB3LYP) =  -511.080602511     A.U. after    9 cycles
 SCF Done:  E(RB3LYP) =  -511.080602904     A.U. after    7 cycles
 SCF Done:  E(RB3LYP) =  -511.080602930     A.U. after    5 cycles
 Optimization completed.
    -- Stationary point found.
 Normal termination of Gaussian 16 at Tue May 23 16:01:07 2023.

 ----------------------------------------------------------------------
 #N Geom=AllCheck Guess=TCheck SCRF=Check GenChk RB3LYP/6-31G(2df,p) Fr
 eq
 ----------------------------------------------------------------------

 Structure from the checkpoint file:  "CdCCCCqCCCrCCCCC.chk"
 -------------------
 Title Card Required
 -------------------
 Charge =  0 Multiplicity = 1

                         Standard orientation:
 ---------------------------------------------------------------------
 Center     Atomic      Atomic             Coordinates (Angstroms)
 Number     Number       Type             X           Y           Z
 ---------------------------------------------------------------------
      1          6           0       -4.997664   -2.159707   -0.540115
      2          6           0       -4.201128   -1.494455    0.290556
      3          6           0       -3.112437   -0.543023   -0.117616
      4          6           0       -1.723251   -1.001470    0.363562
      5          6           0       -0.545913   -0.089609   -0.036248
      6          6           0       -0.692612    1.351163    0.521539
      7          6           0       -1.188334    2.390122   -0.493984
      8          6           0       -1.342903    3.789231    0.108048
      9          6           0        0.783510   -0.740599    0.399017
     10          6           0        2.033345   -0.146099   -0.261226
     11          6           0        3.336704   -0.800375    0.210630
     12          6           0        4.589091   -0.224299   -0.458902
     13          6           0        5.886136   -0.883035    0.018601
     14          1           0       -5.762658   -2.839777   -0.180318
     15          1           0       -4.918812   -2.046960   -1.618161
     16          1           0       -4.315968   -1.641275    1.365055
     17          1           0       -3.331660    0.449245    0.299362
     18          1           0       -3.109500   -0.432396   -1.209129
     19          1           0       -1.540795   -2.009435   -0.029413
     20          1           0       -1.738071   -1.101743    1.458622
     21          1           0       -0.534024   -0.029666   -1.135251
     22          1           0        0.272478    1.695750    0.912801
     23          1           0       -1.367833    1.339253    1.388489
     24          1           0       -2.145412    2.068220   -0.921775
     25          1           0       -0.482714    2.428351   -1.334463
     26          1           0       -2.072581    3.790532    0.925734
     27          1           0       -1.681554    4.512693   -0.640327
     28          1           0       -0.392613    4.152177    0.515878
     29          1           0        0.747749   -1.813992    0.169711
     30          1           0        0.876113   -0.669408    1.492547
     31          1           0        2.086561    0.933783   -0.069115
     32          1           0        1.947796   -0.253667   -1.351773
     33          1           0        3.290363   -1.882269    0.021972
     34          1           0        3.425237   -0.689522    1.300643
     35          1           0        4.635640    0.856502   -0.269572
     36          1           0        4.500550   -0.335911   -1.547829
     37          1           0        6.019431   -0.757519    1.099032
     38          1           0        6.761521   -0.451069   -0.476652
     39          1           0        5.883492   -1.958966   -0.189232
 ---------------------------------------------------------------------

 SCF Done:  E(RB3LYP) =  -511.080602930     A.U. after    1 cycles

 The electronic state is 1-A.
 Alpha  occ. eigenvalues --  -10.18105 -10.17982 -10.17965 -10.17555 -10.17525
 Alpha  occ. eigenvalues --  -10.17509 -10.17307 -10.17285 -10.17215 -10.17185
 Alpha  occ. eigenvalues --  -10.16981 -10.16938 -10.16925  -0.82109  -0.79466
 Alpha  occ. eigenvalues --   -0.78256  -0.75972  -0.73246  -0.69713  -0.66791
 Alpha  occ. eigenvalues --   -0.63697  -0.59296  -0.58255  -0.57090  -0.55515
 Alpha  occ. eigenvalues --   -0.54553  -0.47522  -0.47314  -0.45434  -0.44672
 Alpha  occ. eigenvalues --   -0.42983  -0.42403  -0.42081  -0.41016  -0.40302
 Alpha  occ. eigenvalues --   -0.39338  -0.38416  -0.37559  -0.36486  -0.35809
 Alpha  occ. eigenvalues --   -0.35095  -0.34563  -0.33899  -0.33029  -0.32879
 Alpha  occ. eigenvalues --   -0.32358  -0.31927  -0.31664  -0.31110  -0.29883
 Alpha  occ. eigenvalues --   -0.29399  -0.24875
 Alpha virt. eigenvalues --    0.02616   0.08429   0.09350   0.10196   0.10360
 Alpha virt. eigenvalues --    0.11233   0.12499   0.12934   0.13343   0.13855
 Alpha virt. eigenvalues --    0.14590   0.14966   0.15438   0.16236   0.16982

 Mulliken charges:
               1
     1  C   -0.321134
     2  C    0.035770
     3  C   -0.243969
     4  C   -0.185964
     5  C    0.018068
     6  C   -0.173237
     7  C   -0.166769
     8  C   -0.380797
     9  C   -0.203607
    10  C   -0.190108
    11  C   -0.155491
    12  C   -0.163999
    13  C   -0.379101
    14  H    0.107964
    15  H    0.099598
    16  H    0.083668
    17  H    0.107268
    18  H    0.095116
    19  H    0.095418
    20  H    0.090499
    21  H    0.063792
    22  H    0.089976
    23  H    0.086888
    24  H    0.099527
    25  H    0.094959
    26  H    0.112640
    27  H    0.110226
    28  H    0.112483
    29  H    0.086814
    30  H    0.088973
    31  H    0.094354
    32  H    0.089921
    33  H    0.090205
    34  H    0.089891
    35  H    0.092727
    36  H    0.092883
    37  H    0.112392
    38  H    0.109577
    39  H    0.112580
 Sum of Mulliken charges =  -0.00000

 Dipole moment (field-independent basis, Debye):
    X=              0.3672    Y=              0.2043    Z=              0.0476  Tot=              0.4229
 Quadrupole moment (field-independent basis, Debye-Ang):
   XX=            -89.4720   YY=            -87.5542   ZZ=            -84.7536
   XY=              0.2153   XZ=             -0.6786   YZ=              0.2015

  Exact polarizability: 174.304  10.658 140.493   4.840   1.900 122.859
 Approx polarizability: 199.356  14.454 191.699   8.496   7.414 198.348

                      1                      2                      3
                      A                      A                      A
 Frequencies --     31.7079                38.2451                46.0537
 Red. masses --      3.2856                 2.8583                 1.8242
 Frc consts  --      0.0019                 0.0025                 0.0023
 IR Inten    --      0.0062                 0.0163                 0.0160

                      4                      5                      6
                      A                      A                      A
 Frequencies --     56.8138                69.6367                86.4620
 Red. masses --      2.8836                 1.8711                 2.5806
 Frc consts  --      0.0055                 0.0053                 0.0114
 IR Inten    --      0.0102                 0.0390                 0.0192

                      7                      8                      9
                      A                      A                      A
 Frequencies --     99.6332               124.6101               137.7217
 Red. masses --      2.0131                 2.4278                 2.0492
 Frc consts  --      0.0118                 0.0222                 0.0229
 IR Inten    --      0.0160                 0.0331                 0.0096

                     10                     11                     12
                      A                      A                      A
 Frequencies --    144.3856               173.0019               207.9549
 Red. masses --      2.2164                 2.0963                 2.4489
 Frc consts  --      0.0272                 0.0370                 0.0624
 IR Inten    --      0.0170                 0.0110                 0.0359

                     13                     14                     15
                      A                      A                      A
 Frequencies --    223.5052               245.4600               247.7543
 Red. masses --      2.8011                 1.2537                 1.1652
 Frc consts  --      0.0824                 0.0445                 0.0421
 IR Inten    --      0.0085                 0.0091                 0.0011

                     16                     17                     18
                      A                      A                      A
 Frequencies --    258.0565               296.2721               344.4673
 Red. masses --      2.6558                 2.2596                 3.0097
 Frc consts  --      0.1042                 0.1169                 0.2104
 IR Inten    --      0.1179                 0.1365                 0.0596

                     19                     20                     21
                      A                      A                      A
 Frequencies --    418.4530               424.2092               440.2196
 Red. masses --      2.6464                 2.1721                 2.3221
 Frc consts  --      0.2730                 0.2303                 0.2651
 IR Inten    --      0.0474                 1.8672                 0.1842

                     22                     23                     24
                      A                      A                      A
 Frequencies --    505.3949               528.8980               660.8290
 Red. masses --      2.4555                 2.5986                 1.5656
 Frc consts  --      0.3695                 0.4283                 0.4028
 IR Inten    --      0.7824                 0.2338                 5.8583

                     25                     26                     27
                      A                      A                      A
 Frequencies --    731.1563               734.8404               754.9991
 Red. masses --      1.0715                 1.1039                 1.1387
 Frc consts  --      0.3375                 0.3512                 0.3824
 IR Inten    --      3.1296                 4.4846                 0.1607

                     28                     29                     30
                      A                      A                      A
 Frequencies --    773.9283               829.8284               863.7744
 Red. masses --      1.2493                 1.3654                 1.2961
 Frc consts  --      0.4409                 0.5540                 0.5697
 IR Inten    --      1.7452                 0.8209                 0.1111

                     31                     32                     33
                      A                      A                      A
 Frequencies --    887.9033               896.6995               924.1426
 Red. masses --      1.5838                 2.0146                 1.9978
 Frc consts  --      0.7356                 0.9544                 1.0053
 IR Inten    --      0.3962                 1.6354                 0.8416

                     34                     35                     36
                      A                      A                      A
 Frequencies --    941.4534               945.6045               968.3788
 Red. masses --      1.7108                 1.4552                 1.6497
 Frc consts  --      0.8934                 0.7666                 0.9115
 IR Inten    --     12.3022                19.3116                 0.0502

                     37                     38                     39
                      A                      A                      A
 Frequencies --    983.1139              1005.6890              1019.0075
 Red. masses --      2.3590                 1.6182                 2.9556
 Frc consts  --      1.3434                 0.9643                 1.8082
 IR Inten    --      0.8129                 0.9604                 0.3390

                     40                     41                     42
                      A                      A                      A
 Frequencies --   1043.2694              1044.4591              1053.4757
 Red. masses --      1.5831                 1.3784                 2.5265
 Frc consts  --      1.0152                 0.8860                 1.6520
 IR Inten    --      3.3553                 5.9252                 0.4132

                     43                     44                     45
                      A                      A                      A
 Frequencies --   1061.1653              1068.1577              1075.6510
 Red. masses --      2.7781                 2.1702                 1.4668
 Frc consts  --      1.8432                 1.4589                 0.9999
 IR Inten    --      0.2127                 0.3074                 0.4193

                     46                     47                     48
                      A                      A                      A
 Frequencies --   1088.5207              1100.1440              1143.0544
 Red. masses --      1.6138                 1.9545                 2.5218
 Frc consts  --      1.1266                 1.3937                 1.9413
 IR Inten    --      1.3355                 2.0400                 1.2980

                     49                     50                     51
                      A                      A                      A
 Frequencies --   1173.0534              1183.5076              1225.3916
 Red. masses --      1.9457                 2.1703                 1.5627
 Frc consts  --      1.5775                 1.7911                 1.3825
 IR Inten    --      2.2856                 0.1651                 5.0034

                     52                     53                     54
                      A                      A                      A
 Frequencies --   1232.2775              1252.1694              1272.9868
 Red. masses --      1.4900                 1.2889                 1.2752
 Frc consts  --      1.3330                 1.1907                 1.2175
 IR Inten    --      0.7432                 2.4569                 0.8173

                     55                     56                     57
                      A                      A                      A
 Frequencies --   1280.7642              1288.3779              1308.4369
 Red. masses --      1.2948                 1.2902                 1.1957
 Frc consts  --      1.2514                 1.2618                 1.2060
 IR Inten    --      1.4366                 0.8332                 0.6961

                     58                     59                     60
                      A                      A                      A
 Frequencies --   1320.0389              1321.5774              1330.0212
 Red. masses --      1.2601                 1.1531                 1.0645
 Frc consts  --      1.2937                 1.1866                 1.1095
 IR Inten    --      2.0091                 0.7758                 0.8152

                     61                     62                     63
                      A                      A                      A
 Frequencies --   1333.4617              1334.0596              1336.6458
 Red. masses --      1.1222                 1.1493                 1.2479
 Frc consts  --      1.1756                 1.2051                 1.3136
 IR Inten    --      0.0257                 0.3822                 1.8328

                     64                     65                     66
                      A                      A                      A
 Frequencies --   1359.9601              1376.7623              1383.3910
 Red. masses --      1.3516                 1.3230                 1.4773
 Frc consts  --      1.4728                 1.4775                 1.6658
 IR Inten    --      2.1469                 1.1182                 0.6115

                     67                     68                     69
                      A                      A                      A
 Frequencies --   1394.0076              1397.9304              1403.0198
 Red. masses --      1.5004                 1.5535                 1.4969
 Frc consts  --      1.7178                 1.7887                 1.7360
 IR Inten    --      0.3228                 1.5908                 2.1195

                     70                     71                     72
                      A                      A                      A
 Frequencies --   1412.3836              1413.2839              1455.2970
 Red. masses --      1.2369                 1.2571                 1.1632
 Frc consts  --      1.4537                 1.4794                 1.4515
 IR Inten    --      0.6433                 0.7805                 0.9504

                     73                     74                     75
                      A                      A                      A
 Frequencies --   1475.4228              1481.6993              1483.4602
 Red. masses --      1.0942                 1.0814                 1.0714
 Frc consts  --      1.4033                 1.3988                 1.3891
 IR Inten    --      1.1142                 0.4353                 0.2751

                     76                     77                     78
                      A                      A                      A
 Frequencies --   1487.7369              1491.2538              1496.3791
 Red. masses --      1.0650                 1.0729                 1.0699
 Frc consts  --      1.3888                 1.4058                 1.4115
 IR Inten    --      2.2954                 0.3650                 2.8963

                     79                     80                     81
                      A                      A                      A
 Frequencies --   1498.2712              1499.2836              1499.7741
 Red. masses --      1.0894                 1.0406                 1.0404
 Frc consts  --      1.4408                 1.3781                 1.3788
 IR Inten    --      1.8737                 5.0353                 4.6789

                     82                     83                     84
                      A                      A                      A
 Frequencies --   1504.4710              1511.8231              1514.7886
 Red. masses --      1.0810                 1.0848                 1.0929
 Frc consts  --      1.4416                 1.4608                 1.4775
 IR Inten    --      0.6589                 4.1139                 2.1337

                     85                     86                     87
                      A                      A                      A
 Frequencies --   1717.6517              2982.1855              2997.1232
 Red. masses --      4.8430                 1.0800                 1.0593
 Frc consts  --      8.4185                 5.6589                 5.6064
 IR Inten    --     13.0165                 3.1145                 0.2596

                     88                     89                     90
                      A                      A                      A
 Frequencies --   2999.7633              3002.5136              3007.0555
 Red. masses --      1.0579                 1.0608                 1.0614
 Frc consts  --      5.6090                 5.6347                 5.6546
 IR Inten    --      1.6055                 1.5119                 1.5606

                     91                     92                     93
                      A                      A                      A
 Frequencies --   3010.1329              3012.5604              3016.1023
 Red. masses --      1.0614                 1.0622                 1.0620
 Frc consts  --      5.6662                 5.6797                 5.6918
 IR Inten    --      8.3026                29.6775               100.8009

                     94                     95                     96
                      A                      A                      A
 Frequencies --   3021.7041              3022.3697              3027.3645
 Red. masses --      1.0940                 1.0625                 1.0380
 Frc consts  --      5.8856                 5.7186                 5.6052
 IR Inten    --     12.7145                43.3443                44.0844

                     97                     98                     99
                      A                      A                      A
 Frequencies --   3027.7712              3029.3547              3037.2309
 Red. masses --      1.0360                 1.0994                 1.0951
 Frc consts  --      5.5959                 5.9445                 5.9519
 IR Inten    --     40.6690                 4.6983                 9.0117

                    100                    101                    102
                      A                      A                      A
 Frequencies --   3041.3450              3046.1384              3058.7194
 Red. masses --      1.0967                 1.1020                 1.1026
 Frc consts  --      5.9767                 6.0248                 6.0776
 IR Inten    --      5.0988                 2.8534                17.0554

                    103                    104                    105
                      A                      A                      A
 Frequencies --   3062.7207              3064.4660              3093.6244
 Red. masses --      1.1021                 1.1027                 1.1021
 Frc consts  --      6.0911                 6.1011                 6.2145
 IR Inten    --     58.8768               107.5719                59.3007

                    106                    107                    108
                      A                      A                      A
 Frequencies --   3093.8720              3099.1971              3099.2841
 Red. masses --      1.1020                 1.1009                 1.1008
 Frc consts  --      6.2150                 6.2303                 6.2298
 IR Inten    --     61.3467                25.7558                51.6883

                    109                    110                    111
                      A                      A                      A
 Frequencies --   3122.7862              3140.2395              3220.5601
 Red. masses --      1.0811                 1.0687                 1.1141
 Frc consts  --      6.2115                 6.2091                 6.8083
 IR Inten    --     24.5715                 5.7544                18.6823

 - Thermochemistry -
 -------------------
 Temperature   298.150 Kelvin.  Pressure   1.00000 Atm.
 Atom     1 has atomic number  6 and mass  12.00000

 Molecular mass:   182.20345 amu.
 Principal axes and moments of inertia in atomic units:
                           1         2         3
     Eigenvalues --  1902.068436871.509938454.04884
           X            0.99997  -0.00802   0.00063
           Y            0.00803   0.99997  -0.00041
           Z           -0.00063   0.00042   1.00000
 This molecule is an asymmetric top.
 Rotational symmetry number  1.
 Warning -- assumption of classical behavior for rotation
           may cause significant error
 Rotational temperatures (Kelvin)      0.04554     0.01260     0.01025
 Rotational constants (GHZ):           0.94883     0.26264     0.21348
 Zero-point vibrational energy     954232.2 (Joules/Mol)
                                  228.06697 (Kcal/Mol)
 Warning -- explicit consideration of  23 degrees of freedom as
           vibrations may cause significant error
 Vibrational temperatures:     45.62    55.03    66.26    81.74   100.19
          (Kelvin)            124.40   143.35   179.29   198.15   207.74
                              248.91   299.20   321.57   353.16   356.46
                              371.29   426.27   495.61   602.06   610.34
                              633.38   727.15   760.97   950.79  1051.97
                             1057.27  1086.28  1113.51  1193.94  1242.78
                             1277.49  1290.15  1329.64  1354.54  1360.51
                             1393.28  1414.48  1446.96  1466.12  1501.03
                             1502.74  1515.72  1526.78  1536.84  1547.62
                             1566.14  1582.86  1644.60  1687.76  1702.80
                             1763.07  1772.97  1801.59  1831.54  1842.73
                             1853.69  1882.55  1899.24  1901.46  1913.60
                             1918.55  1919.41  1923.14  1956.68  1980.85
                             1990.39  2005.67  2011.31  2018.63  2032.10
                             2033.40  2093.85  2122.80  2131.83  2134.37
                             2140.52  2145.58  2152.96  2155.68  2157.13
                             2157.84  2164.60  2175.18  2179.44  2471.32
                             4290.70  4312.19  4315.99  4319.95  4326.48
                             4330.91  4334.40  4339.50  4347.56  4348.52
                             4355.70  4356.29  4358.57  4369.90  4375.82
                             4382.71  4400.82  4406.57  4409.08  4451.04
                             4451.39  4459.05  4459.18  4492.99  4518.10
                             4633.67

 Zero-point correction=                           0.363448 (Hartree/Particle)
 Thermal correction to Energy=                    0.380786
 Thermal correction to Enthalpy=                  0.381730
 Thermal correction to Gibbs Free Energy=         0.316472
 Sum of electronic and zero-point Energies=           -510.717155
 Sum of electronic and thermal Energies=              -510.699817
 Sum of electronic and thermal Enthalpies=            -510.698873
 Sum of electronic and thermal Free Energies=         -510.764131

                     E (Thermal)             CV                S
                      KCal/Mol        Cal/Mol-Kelvin    Cal/Mol-Kelvin
 Total                  238.947             62.201            137.348
 Electronic               0.000              0.000              0.000
 Translational            0.889              2.981             41.506
 Rotational               0.889              2.981             33.068
 Vibrational            237.169             56.240             62.773
 Vibration     1          0.594              1.983              5.720
 Vibration     2          0.594              1.982              5.348
 Vibration     3          0.595              1.979              4.980
 Vibration     4          0.596              1.975              4.565
 Vibration     5          0.598              1.969              4.164
 Vibration     6          0.601              1.959              3.739
 Vibration     7          0.604              1.949              3.461
 Vibration     8          0.610              1.928              3.028
 Vibration     9          0.614              1.916              2.835
 Vibration    10          0.616              1.909              2.745
 Vibration    11          0.627              1.876              2.403
 Vibration    12          0.641              1.829              2.062
 Vibration    13          0.649              1.805              1.931
 Vibration    14          0.660              1.770              1.763
 Vibration    15          0.661              1.766              1.747
 Vibration    16          0.667              1.749              1.675
 Vibration    17          0.690              1.681              1.438
 Vibration    18          0.723              1.587              1.191
 Vibration    19          0.781              1.430              0.897
 Vibration    20          0.786              1.418              0.878
 Vibration    21          0.800              1.382              0.826
 Vibration    22          0.861              1.238              0.645
 Vibration    23          0.884              1.186              0.590

                           ! Non-Optimized Parameters !
 Normal termination of Gaussian 16 at Tue May 23 17:56:56 2023.
