 Gaussian 16, Revision A.03,
 Gaussian 16:  ES64L-G16RevA.03 25-Dec-2016

 -----------------------------
 # opt freq b3lyp/6-31g(2df,p)
 -----------------------------

 -------------------
 Title Card Required
 -------------------
 Symbolic Z-matrix:
 Charge =  0 Multiplicity = 1

 SCF Done:  E(RB3LYP) =  -582.859668953     A.U. after   13 cycles
 SCF Done:  E(RB3LYP) =  -582.868287888     A.U. after   12 cycles
 SCF Done:  E(RB3LYP) =  -582.872333444     A.U. after   11 cycles
 SCF Done:  E(RB3LYP) =  -582.873873548     A.U. after   11 cycles
 SCF Done:  E(RB3LYP) =  -582.875053587     A.U. after   11 cycles
 SCF Done:  E(RB3LYP) =  -582.875844076     A.U. after   11 cycles
 SCF Done:  E(RB3LYP) =  -582.876391692     A.U. after   10 cycles
 SCF Done:  E(RB3LYP) =  -582.876815407     A.U. after   11 cycles
 SCF Done:  E(RB3LYP) =  -582.876843522     A.U. after   10 cycles
 SCF Done:  E(RB3LYP) =  -582.876615548     A.U. after   11 cycles
 SCF Done:  E(RB3LYP) =  -582.876895275     A.U. after   10 cycles
 SCF Done:  E(RB3LYP) =  -582.876903255     A.U. after    9 cycles
 SCF Done:  E(RB3LYP) =  -582.876905717     A.U. after    9 cycles
 SCF Done:  E(RB3LYP) =  -582.876905654     A.U. after    7 cycles
 SCF Done:  E(RB3LYP) =  -582.876906067     A.U. after    7 cycles
 SCF Done:  E(RB3LYP) =  -582.876906087     A.U. after    6 cycles
 Optimization completed.
    -- Stationary point found.
 Normal termination of Gaussian 16 at Tue May 23 12:39:19 2023.

 ----------------------------------------------------------------------
 #N Geom=AllCheck Guess=TCheck SCRF=Check GenChk RB3LYP/6-31G(2df,p) Fr
 eq
 ----------------------------------------------------------------------

 Structure from the checkpoint file:  "CdCCqCrCqCCCrOCCCO.chk"
 -------------------
 Title Card Required
 -------------------
 Charge =  0 Multiplicity = 1

                         Standard orientation:
 ---------------------------------------------------------------------
 Center     Atomic      Atomic             Coordinates (Angstroms)
 Number     Number       Type             X           Y           Z
 ---------------------------------------------------------------------
      1          6           0        3.996587   -1.280331   -0.587005
      2          6           0        2.951552   -1.263547    0.235322
      3          6           0        1.512627   -1.425628   -0.173310
      4          6           0        0.928850   -2.702429    0.459437
      5          6           0        0.648928   -0.191106    0.180356
      6          6           0        1.183757    1.134882   -0.401993
      7          6           0        2.074052    1.948117    0.546401
      8          6           0        2.559488    3.258703   -0.079058
      9          8           0       -0.655052   -0.475720   -0.325722
     10          6           0       -1.710556    0.183706    0.339892
     11          6           0       -3.024124   -0.232233   -0.310912
     12          6           0       -4.239558    0.448605    0.319315
     13          8           0       -5.466075    0.015078   -0.245766
     14          1           0        5.014441   -1.190379   -0.222032
     15          1           0        3.875091   -1.389817   -1.661195
     16          1           0        3.124698   -1.164626    1.307990
     17          1           0        1.469848   -1.525777   -1.265780
     18          1           0        0.982650   -2.655750    1.553897
     19          1           0        1.491007   -3.583551    0.137254
     20          1           0       -0.117231   -2.824237    0.173454
     21          1           0        0.590582   -0.106828    1.280027
     22          1           0        0.322079    1.750253   -0.686515
     23          1           0        1.726880    0.927269   -1.332491
     24          1           0        2.939321    1.348505    0.848035
     25          1           0        1.514332    2.165525    1.466229
     26          1           0        3.157483    3.069033   -0.977260
     27          1           0        3.180154    3.828852    0.619310
     28          1           0        1.716947    3.895221   -0.372540
     29          1           0       -1.592035    1.278973    0.284479
     30          1           0       -1.710427   -0.083174    1.410842
     31          1           0       -3.140875   -1.318721   -0.238072
     32          1           0       -2.975527    0.013551   -1.380134
     33          1           0       -4.135391    1.544467    0.253995
     34          1           0       -4.303843    0.198085    1.384263
     35          1           0       -5.450779    0.235840   -1.182527
 ---------------------------------------------------------------------

 SCF Done:  E(RB3LYP) =  -582.876906087     A.U. after    1 cycles

 The electronic state is 1-A.
 Alpha  occ. eigenvalues --  -19.13593 -19.13273 -10.22916 -10.22879 -10.22735
 Alpha  occ. eigenvalues --  -10.18745 -10.18534 -10.18045 -10.17741 -10.17554
 Alpha  occ. eigenvalues --  -10.17376 -10.17142 -10.16789  -1.02955  -1.01390
 Alpha  occ. eigenvalues --   -0.81948  -0.78134  -0.77423  -0.73235  -0.70513
 Alpha  occ. eigenvalues --   -0.66563  -0.63212  -0.60071  -0.59323  -0.57611
 Alpha  occ. eigenvalues --   -0.55099  -0.50931  -0.48569  -0.47744  -0.46710
 Alpha  occ. eigenvalues --   -0.45478  -0.44356  -0.43461  -0.42542  -0.41448
 Alpha  occ. eigenvalues --   -0.40397  -0.39655  -0.38030  -0.37529  -0.37362
 Alpha  occ. eigenvalues --   -0.36346  -0.35275  -0.34053  -0.33361  -0.32929
 Alpha  occ. eigenvalues --   -0.32815  -0.32336  -0.31624  -0.30495  -0.26669
 Alpha  occ. eigenvalues --   -0.25915  -0.24587
 Alpha virt. eigenvalues --    0.01749   0.07708   0.08607   0.09549   0.10308
 Alpha virt. eigenvalues --    0.11238   0.11372   0.12581   0.13367   0.14183
 Alpha virt. eigenvalues --    0.14773   0.15070   0.15512   0.16638   0.16947

 Mulliken charges:
               1
     1  C   -0.339649
     2  C    0.040108
     3  C   -0.034975
     4  C   -0.403224
     5  C    0.120866
     6  C   -0.193397
     7  C   -0.167939
     8  C   -0.380114
     9  O   -0.263301
    10  C   -0.067144
    11  C   -0.216043
    12  C   -0.054945
    13  O   -0.418282
    14  H    0.110759
    15  H    0.103918
    16  H    0.085272
    17  H    0.080862
    18  H    0.106340
    19  H    0.113935
    20  H    0.130692
    21  H    0.057173
    22  H    0.095548
    23  H    0.098077
    24  H    0.103550
    25  H    0.089889
    26  H    0.116333
    27  H    0.109971
    28  H    0.111108
    29  H    0.085450
    30  H    0.087786
    31  H    0.116143
    32  H    0.096688
    33  H    0.085780
    34  H    0.112179
    35  H    0.280584
 Sum of Mulliken charges =  -0.00000

 Dipole moment (field-independent basis, Debye):
    X=              1.0857    Y=              1.1103    Z=             -0.1307  Tot=              1.5584
 Quadrupole moment (field-independent basis, Debye-Ang):
   XX=            -91.7661   YY=            -84.3284   ZZ=            -79.1378
   XY=             -3.6750   XZ=              4.6394   YZ=             -0.6102

  Exact polarizability: 158.130   0.809 121.838  -5.196   0.736 111.006
 Approx polarizability: 193.988   0.546 160.921 -10.419   1.925 179.804

                      1                      2                      3
                      A                      A                      A
 Frequencies --     32.8543                40.3923                48.1512
 Red. masses --      4.2218                 3.5093                 1.7856
 Frc consts  --      0.0027                 0.0034                 0.0024
 IR Inten    --      0.3612                 0.0281                 2.3975

                      4                      5                      6
                      A                      A                      A
 Frequencies --     62.2075                69.9331               100.3474
 Red. masses --      2.2099                 2.4755                 2.6942
 Frc consts  --      0.0050                 0.0071                 0.0160
 IR Inten    --      0.0504                 0.8612                 0.5702

                      7                      8                      9
                      A                      A                      A
 Frequencies --    110.1235               123.3330               142.2609
 Red. masses --      3.0432                 2.8194                 2.1913
 Frc consts  --      0.0217                 0.0253                 0.0261
 IR Inten    --      0.3640                 1.9236                 2.0423

                     10                     11                     12
                      A                      A                      A
 Frequencies --    174.0007               215.1509               235.9141
 Red. masses --      3.1656                 1.3499                 1.5055
 Frc consts  --      0.0565                 0.0368                 0.0494
 IR Inten    --      0.4235                 0.6017                 0.1488

                     13                     14                     15
                      A                      A                      A
 Frequencies --    242.2744               253.3256               269.2795
 Red. masses --      2.4391                 1.4552                 2.5113
 Frc consts  --      0.0844                 0.0550                 0.1073
 IR Inten    --      4.9289                 0.2227                 0.3722

                     16                     17                     18
                      A                      A                      A
 Frequencies --    301.0080               317.4452               321.5930
 Red. masses --      1.5431                 1.6793                 2.8643
 Frc consts  --      0.0824                 0.0997                 0.1745
 IR Inten    --     55.2593                51.2139                 0.1735

                     19                     20                     21
                      A                      A                      A
 Frequencies --    350.6012               407.4879               449.2561
 Red. masses --      2.6113                 3.2298                 3.3399
 Frc consts  --      0.1891                 0.3160                 0.3972
 IR Inten    --      6.8349                 9.1684                 3.0700

                     22                     23                     24
                      A                      A                      A
 Frequencies --    519.7505               537.7294               559.4093
 Red. masses --      2.9983                 3.0573                 3.3151
 Frc consts  --      0.4772                 0.5209                 0.6112
 IR Inten    --      2.4949                 3.5453                 4.0003

                     25                     26                     27
                      A                      A                      A
 Frequencies --    696.9621               733.2776               771.2621
 Red. masses --      1.6163                 1.1808                 1.0790
 Frc consts  --      0.4626                 0.3741                 0.3782
 IR Inten    --      5.4339                 8.6366                 1.0981

                     28                     29                     30
                      A                      A                      A
 Frequencies --    833.0558               879.9929               880.8529
 Red. masses --      1.5970                 1.2493                 1.3995
 Frc consts  --      0.6530                 0.5700                 0.6398
 IR Inten    --      0.9750                 0.3490                 6.6713

                     31                     32                     33
                      A                      A                      A
 Frequencies --    908.6883               927.4531               949.9887
 Red. masses --      1.7578                 1.7749                 1.3588
 Frc consts  --      0.8552                 0.8995                 0.7225
 IR Inten    --      4.8760                 4.1870                34.7424

                     34                     35                     36
                      A                      A                      A
 Frequencies --    979.1993               991.3634              1022.6893
 Red. masses --      3.0752                 1.3428                 3.2805
 Frc consts  --      1.7373                 0.7775                 2.0215
 IR Inten    --      3.1884                 2.5126                26.9378

                     37                     38                     39
                      A                      A                      A
 Frequencies --   1033.2146              1049.4127              1059.5732
 Red. masses --      2.3154                 1.1732                 1.5341
 Frc consts  --      1.4563                 0.7612                 1.0148
 IR Inten    --     36.4923                13.5110                 1.2291

                     40                     41                     42
                      A                      A                      A
 Frequencies --   1061.9681              1076.0288              1078.0898
 Red. masses --      2.6631                 2.4658                 4.4661
 Frc consts  --      1.7696                 1.6821                 3.0584
 IR Inten    --      3.3849                68.0746               114.1251

                     43                     44                     45
                      A                      A                      A
 Frequencies --   1110.4192              1128.5070              1134.9557
 Red. masses --      2.2423                 2.4584                 2.1650
 Frc consts  --      1.6290                 1.8446                 1.6431
 IR Inten    --      7.7658                20.7251                23.0247

                     46                     47                     48
                      A                      A                      A
 Frequencies --   1135.1461              1184.4851              1199.1717
 Red. masses --      3.8610                 1.9846                 2.2686
 Frc consts  --      2.9312                 1.6405                 1.9221
 IR Inten    --    126.4536                 4.2958                 6.8710

                     49                     50                     51
                      A                      A                      A
 Frequencies --   1214.1497              1253.8586              1278.3418
 Red. masses --      1.3843                 1.4020                 1.3092
 Frc consts  --      1.2023                 1.2987                 1.2606
 IR Inten    --     13.5580                 4.1919                 0.5629

                     52                     53                     54
                      A                      A                      A
 Frequencies --   1284.9891              1301.6261              1305.4548
 Red. masses --      1.3004                 1.1952                 1.2211
 Frc consts  --      1.2651                 1.1930                 1.2261
 IR Inten    --      9.2519                 9.1291                 6.6230

                     55                     56                     57
                      A                      A                      A
 Frequencies --   1312.6725              1323.9353              1330.3377
 Red. masses --      1.1432                 1.2389                 1.2455
 Frc consts  --      1.1606                 1.2795                 1.2987
 IR Inten    --      1.8180                 0.5056                 0.3744

                     58                     59                     60
                      A                      A                      A
 Frequencies --   1335.1680              1367.4980              1376.0230
 Red. masses --      1.1626                 1.2692                 1.3445
 Frc consts  --      1.2211                 1.3984                 1.4999
 IR Inten    --      3.3824                 8.6387                14.7821

                     61                     62                     63
                      A                      A                      A
 Frequencies --   1392.0171              1395.1374              1398.6401
 Red. masses --      1.4265                 1.2668                 1.2741
 Frc consts  --      1.6286                 1.4528                 1.4685
 IR Inten    --     18.8158                 5.6342                 6.1362

                     64                     65                     66
                      A                      A                      A
 Frequencies --   1411.9100              1427.2884              1442.7359
 Red. masses --      1.2328                 1.2942                 1.4305
 Frc consts  --      1.4480                 1.5534                 1.7544
 IR Inten    --      0.9380                53.8445                 3.6059

                     67                     68                     69
                      A                      A                      A
 Frequencies --   1460.3188              1481.6462              1492.1347
 Red. masses --      1.1892                 1.0762                 1.0599
 Frc consts  --      1.4942                 1.3920                 1.3903
 IR Inten    --      2.3115                 6.7320                 0.6073

                     70                     71                     72
                      A                      A                      A
 Frequencies --   1493.1084              1494.3919              1499.5631
 Red. masses --      1.0819                 1.0565                 1.0405
 Frc consts  --      1.4211                 1.3901                 1.3786
 IR Inten    --      1.1989                 3.9828                 4.9447

                     73                     74                     75
                      A                      A                      A
 Frequencies --   1504.2604              1508.8293              1513.2802
 Red. masses --      1.0501                 1.0796                 1.0887
 Frc consts  --      1.4000                 1.4481                 1.4689
 IR Inten    --      5.3872                 3.4184                 1.4506

                     76                     77                     78
                      A                      A                      A
 Frequencies --   1529.5370              1712.3032              2940.5022
 Red. masses --      1.0887                 4.8486                 1.0749
 Frc consts  --      1.5007                 8.3758                 5.4759
 IR Inten    --      2.9756                 6.6813                 9.9089

                     79                     80                     81
                      A                      A                      A
 Frequencies --   2951.5695              2966.0185              2975.6077
 Red. masses --      1.0607                 1.0739                 1.1006
 Frc consts  --      5.4443                 5.5663                 5.7414
 IR Inten    --     41.7743                54.0812                57.7710

                     82                     83                     84
                      A                      A                      A
 Frequencies --   3015.8204              3023.1339              3024.4661
 Red. masses --      1.0662                 1.0745                 1.0645
 Frc consts  --      5.7135                 5.7858                 5.7372
 IR Inten    --     10.9660                 0.3579                16.3116

                     85                     86                     87
                      A                      A                      A
 Frequencies --   3026.5806              3030.1677              3033.2034
 Red. masses --      1.0469                 1.0526                 1.0451
 Frc consts  --      5.6502                 5.6944                 5.6649
 IR Inten    --     21.0472                39.6895                45.6735

                     88                     89                     90
                      A                      A                      A
 Frequencies --   3056.9119              3060.1645              3073.9932
 Red. masses --      1.0948                 1.0874                 1.0989
 Frc consts  --      6.0278                 5.9995                 6.1181
 IR Inten    --     10.6856                24.1824                13.4243

                     91                     92                     93
                      A                      A                      A
 Frequencies --   3086.7367              3097.8852              3099.7054
 Red. masses --      1.1014                 1.1018                 1.0968
 Frc consts  --      6.1831                 6.2298                 6.2088
 IR Inten    --     45.1429                59.3630                32.4911

                     94                     95                     96
                      A                      A                      A
 Frequencies --   3100.4136              3116.8013              3137.4437
 Red. masses --      1.1007                 1.0827                 1.0999
 Frc consts  --      6.2337                 6.1967                 6.3791
 IR Inten    --     34.2016                21.8270                17.5791

                     97                     98                     99
                      A                      A                      A
 Frequencies --   3140.6504              3221.1998              3814.3606
 Red. masses --      1.0664                 1.1144                 1.0661
 Frc consts  --      6.1974                 6.8131                 9.1388
 IR Inten    --      4.1997                14.5145                16.0178

 - Thermochemistry -
 -------------------
 Temperature   298.150 Kelvin.  Pressure   1.00000 Atm.
 Atom     1 has atomic number  6 and mass  12.00000

 Molecular mass:   186.16198 amu.
 Principal axes and moments of inertia in atomic units:
                           1         2         3
     Eigenvalues --  1722.519795568.361536972.94952
           X            0.99998   0.00636  -0.00065
           Y           -0.00636   0.99997  -0.00379
           Z            0.00062   0.00380   0.99999
 This molecule is an asymmetric top.
 Rotational symmetry number  1.
 Warning -- assumption of classical behavior for rotation
           may cause significant error
 Rotational temperatures (Kelvin)      0.05028     0.01555     0.01242
 Rotational constants (GHZ):           1.04773     0.32411     0.25882
 Zero-point vibrational energy     828677.6 (Joules/Mol)
                                  198.05870 (Kcal/Mol)
 Warning -- explicit consideration of  24 degrees of freedom as
           vibrations may cause significant error
 Vibrational temperatures:     47.27    58.12    69.28    89.50   100.62
          (Kelvin)            144.38   158.44   177.45   204.68   250.35
                              309.55   339.43   348.58   364.48   387.43
                              433.08   456.73   462.70   504.44   586.28
                              646.38   747.80   773.67   804.87  1002.77
                             1055.02  1109.67  1198.58  1266.11  1267.35
                             1307.40  1334.40  1366.82  1408.85  1426.35
                             1471.42  1486.57  1509.87  1524.49  1527.94
                             1548.17  1551.13  1597.65  1623.67  1632.95
                             1633.22  1704.21  1725.34  1746.89  1804.02
                             1839.25  1848.81  1872.75  1878.26  1888.64
                             1904.85  1914.06  1921.01  1967.52  1979.79
                             2002.80  2007.29  2012.33  2031.42  2053.55
                             2075.78  2101.07  2131.76  2146.85  2148.25
                             2150.10  2157.54  2164.30  2170.87  2177.27
                             2200.66  2463.62  4230.73  4246.65  4267.44
                             4281.24  4339.09  4349.62  4351.53  4354.57
                             4359.74  4364.10  4398.21  4402.89  4422.79
                             4441.13  4457.17  4459.78  4460.80  4484.38
                             4514.08  4518.70  4634.59  5488.01

 Zero-point correction=                           0.315627 (Hartree/Particle)
 Thermal correction to Energy=                    0.332512
 Thermal correction to Enthalpy=                  0.333456
 Thermal correction to Gibbs Free Energy=         0.269689
 Sum of electronic and zero-point Energies=           -582.561279
 Sum of electronic and thermal Energies=              -582.544394
 Sum of electronic and thermal Enthalpies=            -582.543450
 Sum of electronic and thermal Free Energies=         -582.607218

                     E (Thermal)             CV                S
                      KCal/Mol        Cal/Mol-Kelvin    Cal/Mol-Kelvin
 Total                  208.654             60.133            134.210
 Electronic               0.000              0.000              0.000
 Translational            0.889              2.981             41.570
 Rotational               0.889              2.981             32.570
 Vibrational            206.877             54.172             60.070
 Vibration     1          0.594              1.983              5.649
 Vibration     2          0.594              1.981              5.240
 Vibration     3          0.595              1.978              4.892
 Vibration     4          0.597              1.972              4.386
 Vibration     5          0.598              1.968              4.155
 Vibration     6          0.604              1.949              3.448
 Vibration     7          0.606              1.941              3.267
 Vibration     8          0.610              1.930              3.047
 Vibration     9          0.616              1.911              2.773
 Vibration    10          0.627              1.874              2.392
 Vibration    11          0.645              1.818              2.000
 Vibration    12          0.655              1.786              1.833
 Vibration    13          0.658              1.776              1.786
 Vibration    14          0.664              1.757              1.707
 Vibration    15          0.674              1.730              1.601
 Vibration    16          0.693              1.672              1.411
 Vibration    17          0.704              1.640              1.323
 Vibration    18          0.707              1.632              1.302
 Vibration    19          0.728              1.574              1.163
 Vibration    20          0.772              1.454              0.936
 Vibration    21          0.808              1.363              0.798
 Vibration    22          0.875              1.206              0.611
 Vibration    23          0.893              1.167              0.570
 Vibration    24          0.915              1.119              0.525

 Optimization completed.
    -- Stationary point found.
 Normal termination of Gaussian 16 at Tue May 23 14:22:02 2023.
