 Gaussian 16, Revision A.03,
 Gaussian 16:  ES64L-G16RevA.03 25-Dec-2016

 -----------------------------
 # opt freq b3lyp/6-31g(2df,p)
 -----------------------------

 -------------------
 Title Card Required
 -------------------
 Symbolic Z-matrix:
 Charge =  0 Multiplicity = 1

 SCF Done:  E(RB3LYP) =  -704.230048728     A.U. after   12 cycles
 SCF Done:  E(RB3LYP) =  -704.240509077     A.U. after   11 cycles
 SCF Done:  E(RB3LYP) =  -704.241818492     A.U. after   10 cycles
 SCF Done:  E(RB3LYP) =  -704.242006294     A.U. after    9 cycles
 SCF Done:  E(RB3LYP) =  -704.242019834     A.U. after    8 cycles
 SCF Done:  E(RB3LYP) =  -704.242021036     A.U. after    7 cycles
 SCF Done:  E(RB3LYP) =  -704.242021262     A.U. after    6 cycles
 SCF Done:  E(RB3LYP) =  -704.242021334     A.U. after    5 cycles
 SCF Done:  E(RB3LYP) =  -704.242021385     A.U. after    5 cycles
 Optimization completed.
    -- Stationary point found.
 Normal termination of Gaussian 16 at Mon May 22 08:15:40 2023.

 ----------------------------------------------------------------------
 #N Geom=AllCheck Guess=TCheck SCRF=Check GenChk RB3LYP/6-31G(2df,p) Fr
 eq
 ----------------------------------------------------------------------

 Structure from the checkpoint file:  "CdCCOCCCCCCCqCrCCCCC.chk"
 -------------------
 Title Card Required
 -------------------
 Charge =  0 Multiplicity = 1

                         Standard orientation:
 ---------------------------------------------------------------------
 Center     Atomic      Atomic             Coordinates (Angstroms)
 Number     Number       Type             X           Y           Z
 ---------------------------------------------------------------------
      1          6           0       -9.577401   -0.644228   -0.017914
      2          6           0       -8.276675   -0.807278    0.191319
      3          6           0       -7.189841    0.092418   -0.335577
      4          8           0       -5.946125   -0.410992    0.100031
      5          6           0       -4.848247    0.360192   -0.338033
      6          6           0       -3.565088   -0.269787    0.185894
      7          6           0       -2.309463    0.498993   -0.237181
      8          6           0       -1.012622   -0.128398    0.285840
      9          6           0        0.248067    0.636391   -0.133897
     10          6           0        1.539042    0.000949    0.397036
     11          6           0        2.847814    0.662636   -0.077743
     12          6           0        2.975719    2.107131    0.429313
     13          6           0        4.054830   -0.201375    0.337841
     14          6           0        5.405221    0.223372   -0.252339
     15          6           0        6.545567   -0.736285    0.106650
     16          6           0        7.901702   -0.321492   -0.474225
     17          6           0        9.034159   -1.286239   -0.112119
     18          1           0      -10.308381   -1.331877    0.392374
     19          1           0       -9.969858    0.180860   -0.606619
     20          1           0       -7.909314   -1.641358    0.784238
     21          1           0       -7.331619    1.127500    0.022947
     22          1           0       -7.220464    0.137204   -1.438797
     23          1           0       -4.942558    1.399472    0.023984
     24          1           0       -4.830909    0.408226   -1.441412
     25          1           0       -3.512810   -1.304778   -0.173572
     26          1           0       -3.624184   -0.322690    1.279910
     27          1           0       -2.378006    1.536942    0.117495
     28          1           0       -2.266641    0.556809   -1.333853
     29          1           0       -0.944007   -1.166523   -0.067676
     30          1           0       -1.054861   -0.185950    1.382381
     31          1           0        0.165041    1.673762    0.213550
     32          1           0        0.293032    0.685963   -1.231223
     33          1           0        1.554893   -1.055478    0.095913
     34          1           0        1.517309   -0.001055    1.496791
     35          1           0        2.824217    0.690515   -1.178251
     36          1           0        3.003388    2.131643    1.525937
     37          1           0        2.135106    2.726683    0.104447
     38          1           0        3.888551    2.585365    0.063399
     39          1           0        3.857149   -1.240072    0.039422
     40          1           0        4.125543   -0.213197    1.435500
     41          1           0        5.669318    1.231209    0.091615
     42          1           0        5.318196    0.288833   -1.346328
     43          1           0        6.295074   -1.747365   -0.244392
     44          1           0        6.627702   -0.810336    1.200330
     45          1           0        8.152929    0.687600   -0.121099
     46          1           0        7.819224   -0.246562   -1.566791
     47          1           0        9.163520   -1.354988    0.973882
     48          1           0        9.988420   -0.963927   -0.540720
     49          1           0        8.827285   -2.296500   -0.482834
 ---------------------------------------------------------------------

 SCF Done:  E(RB3LYP) =  -704.242021385     A.U. after    1 cycles

 The electronic state is 1-A.
 Alpha  occ. eigenvalues --  -19.13609 -10.22881 -10.22323 -10.18373 -10.18009
 Alpha  occ. eigenvalues --  -10.17836 -10.17570 -10.17539 -10.17461 -10.17372
 Alpha  occ. eigenvalues --  -10.17319 -10.17237 -10.17201 -10.17160 -10.17089
 Alpha  occ. eigenvalues --  -10.16891 -10.16697  -1.03137  -0.81685  -0.80246
 Alpha  occ. eigenvalues --   -0.78860  -0.77820  -0.75313  -0.72864  -0.69903
 Alpha  occ. eigenvalues --   -0.67097  -0.66153  -0.62868  -0.60121  -0.58277
 Alpha  occ. eigenvalues --   -0.57446  -0.56813  -0.55432  -0.54966  -0.49056
 Alpha  occ. eigenvalues --   -0.48892  -0.47442  -0.46765  -0.45280  -0.44970
 Alpha  occ. eigenvalues --   -0.44042  -0.42997  -0.42425  -0.42076  -0.40886
 Alpha  occ. eigenvalues --   -0.40845  -0.39638  -0.39188  -0.38304  -0.37656
 Alpha  occ. eigenvalues --   -0.36794  -0.35816  -0.35710  -0.34466  -0.34101
 Alpha  occ. eigenvalues --   -0.33874  -0.33121  -0.32545  -0.32454  -0.32170
 Alpha  occ. eigenvalues --   -0.31953  -0.31561  -0.31391  -0.31221  -0.30653
 Alpha  occ. eigenvalues --   -0.28609  -0.26499  -0.24301
 Alpha virt. eigenvalues --    0.01777   0.08440   0.08934   0.09463   0.09785
 Alpha virt. eigenvalues --    0.10796   0.11482   0.11695   0.12147   0.12208
 Alpha virt. eigenvalues --    0.13071   0.13477   0.14217   0.14398   0.15121

 Mulliken charges:
               1
     1  C   -0.321626
     2  C    0.005423
     3  C   -0.086079
     4  O   -0.250579
     5  C   -0.051132
     6  C   -0.199154
     7  C   -0.184552
     8  C   -0.177788
     9  C   -0.195989
    10  C   -0.180352
    11  C    0.023618
    12  C   -0.389908
    13  C   -0.180996
    14  C   -0.192665
    15  C   -0.156093
    16  C   -0.163826
    17  C   -0.379033
    18  H    0.113802
    19  H    0.100836
    20  H    0.107750
    21  H    0.098278
    22  H    0.098272
    23  H    0.082270
    24  H    0.082252
    25  H    0.104137
    26  H    0.104179
    27  H    0.093077
    28  H    0.093017
    29  H    0.092906
    30  H    0.093380
    31  H    0.095458
    32  H    0.089633
    33  H    0.086766
    34  H    0.088125
    35  H    0.064741
    36  H    0.108199
    37  H    0.112965
    38  H    0.113819
    39  H    0.086275
    40  H    0.087671
    41  H    0.095045
    42  H    0.089049
    43  H    0.089480
    44  H    0.089978
    45  H    0.092653
    46  H    0.092590
    47  H    0.112373
    48  H    0.109391
    49  H    0.112363
 Sum of Mulliken charges =  -0.00000

 Dipole moment (field-independent basis, Debye):
    X=              0.4424    Y=              0.8222    Z=             -0.5703  Tot=              1.0941
 Quadrupole moment (field-independent basis, Debye-Ang):
   XX=           -114.3289   YY=           -111.3578   ZZ=           -110.5363
   XY=             -4.3882   XZ=              3.1054   YZ=             -0.1429

  Exact polarizability: 256.982  -1.378 155.575   0.691  -4.875 144.831
 Approx polarizability: 267.108  -0.546 234.896   3.105  -5.315 231.089

 ******    1 imaginary frequencies (negative Signs) ******

                      1                      2                      3
                      A                      A                      A
 Frequencies --   -112.8827                14.6978                22.4839
 Red. masses --      1.9672                 3.6603                 2.6330
 Frc consts  --      0.0148                 0.0005                 0.0008
 IR Inten    --      1.9784                 0.0162                 0.3500

                      4                      5                      6
                      A                      A                      A
 Frequencies --     26.9477                37.7669                49.1222
 Red. masses --      2.4001                 2.5097                 2.1771
 Frc consts  --      0.0010                 0.0021                 0.0031
 IR Inten    --      0.2136                 0.2748                 0.2056

                      7                      8                      9
                      A                      A                      A
 Frequencies --     60.7922                66.4490                78.1341
 Red. masses --      3.1173                 3.1964                 1.8967
 Frc consts  --      0.0068                 0.0083                 0.0068
 IR Inten    --      0.0490                 0.4498                 0.1901

                     10                     11                     12
                      A                      A                      A
 Frequencies --    106.6106               107.3743               121.3162
 Red. masses --      3.4992                 3.1366                 1.7829
 Frc consts  --      0.0234                 0.0213                 0.0155
 IR Inten    --      0.3671                 1.0920                 0.0780

                     13                     14                     15
                      A                      A                      A
 Frequencies --    129.2991               136.8595               148.8539
 Red. masses --      1.8678                 2.2525                 3.9215
 Frc consts  --      0.0184                 0.0249                 0.0512
 IR Inten    --      0.2422                 0.0802                 0.0247

                     16                     17                     18
                      A                      A                      A
 Frequencies --    155.3913               162.6193               177.0471
 Red. masses --      1.9196                 2.2654                 3.4661
 Frc consts  --      0.0273                 0.0353                 0.0640
 IR Inten    --      0.1029                 1.1971                 0.0416

                     19                     20                     21
                      A                      A                      A
 Frequencies --    238.1696               241.7715               248.8217
 Red. masses --      1.2766                 2.6712                 1.1298
 Frc consts  --      0.0427                 0.0920                 0.0412
 IR Inten    --      0.0004                 0.2480                 0.0017

                     22                     23                     24
                      A                      A                      A
 Frequencies --    267.0289               312.4270               352.8678
 Red. masses --      3.1279                 3.2622                 2.8716
 Frc consts  --      0.1314                 0.1876                 0.2107
 IR Inten    --      0.0114                 1.5159                 0.2276

                     25                     26                     27
                      A                      A                      A
 Frequencies --    382.3881               415.2175               424.1660
 Red. masses --      2.6223                 3.0394                 2.3155
 Frc consts  --      0.2259                 0.3087                 0.2454
 IR Inten    --      0.6126                 0.4807                 0.0816

                     28                     29                     30
                      A                      A                      A
 Frequencies --    478.3991               496.1252               535.6851
 Red. masses --      2.9480                 3.2238                 2.6345
 Frc consts  --      0.3975                 0.4675                 0.4454
 IR Inten    --      0.6440                 0.4549                 0.2389

                     31                     32                     33
                      A                      A                      A
 Frequencies --    547.8118               572.1380               731.5275
 Red. masses --      3.4233                 1.3667                 1.0709
 Frc consts  --      0.6053                 0.2636                 0.3377
 IR Inten    --      2.4240                 5.7071                 0.3791

                     34                     35                     36
                      A                      A                      A
 Frequencies --    733.5663               748.0348               756.5485
 Red. masses --      1.0706                 1.1108                 1.1525
 Frc consts  --      0.3394                 0.3662                 0.3887
 IR Inten    --      6.5404                 0.1392                 0.0834

                     37                     38                     39
                      A                      A                      A
 Frequencies --    794.4749               827.9451               854.5374
 Red. masses --      1.2286                 1.5764                 1.5499
 Frc consts  --      0.4569                 0.6367                 0.6668
 IR Inten    --      0.4795                 0.7814                 0.5462

                     40                     41                     42
                      A                      A                      A
 Frequencies --    882.2772               900.9016               922.8650
 Red. masses --      1.3058                 1.9328                 1.7671
 Frc consts  --      0.5989                 0.9243                 0.8867
 IR Inten    --      0.2333                 2.3974                 2.4502

                     43                     44                     45
                      A                      A                      A
 Frequencies --    937.4919               939.2252               949.0510
 Red. masses --      1.6662                 1.3327                 1.3656
 Frc consts  --      0.8628                 0.6927                 0.7247
 IR Inten    --      1.8913                28.7598                 0.4012

                     46                     47                     48
                      A                      A                      A
 Frequencies --    972.6069               998.9064              1009.6772
 Red. masses --      1.3449                 3.3709                 4.2648
 Frc consts  --      0.7496                 1.9818                 2.5616
 IR Inten    --      0.7354                 4.9547                 7.7497

                     49                     50                     51
                      A                      A                      A
 Frequencies --   1013.5146              1023.3741              1028.0745
 Red. masses --      4.0593                 1.1486                 1.1717
 Frc consts  --      2.4568                 0.7087                 0.7297
 IR Inten    --      0.0060                 3.4940                 1.1573

                     52                     53                     54
                      A                      A                      A
 Frequencies --   1036.5327              1050.5572              1052.9645
 Red. masses --      3.0528                 1.5751                 2.6605
 Frc consts  --      1.9325                 1.0242                 1.7380
 IR Inten    --      6.0787                 9.1140                 4.1547

                     55                     56                     57
                      A                      A                      A
 Frequencies --   1066.2029              1067.2947              1069.5371
 Red. masses --      2.4262                 1.4215                 2.4017
 Frc consts  --      1.6250                 0.9540                 1.6187
 IR Inten    --      0.1839                 0.2453                 0.1676

                     58                     59                     60
                      A                      A                      A
 Frequencies --   1069.8466              1087.5184              1108.5191
 Red. masses --      1.8935                 2.5944                 2.4692
 Frc consts  --      1.2769                 1.8078                 1.7877
 IR Inten    --      0.2203                 0.7657                 0.4092

                     61                     62                     63
                      A                      A                      A
 Frequencies --   1146.8271              1159.7379              1168.7993
 Red. masses --      2.4751                 3.3238                 5.0551
 Frc consts  --      1.9179                 2.6339                 4.0688
 IR Inten    --      1.0170                63.1238               208.1352

                     64                     65                     66
                      A                      A                      A
 Frequencies --   1177.3907              1197.4347              1210.3923
 Red. masses --      1.8413                 1.7778                 1.6158
 Frc consts  --      1.5039                 1.5019                 1.3947
 IR Inten    --     11.9479                 1.6051                 1.1456

                     67                     68                     69
                      A                      A                      A
 Frequencies --   1230.8499              1243.0462              1247.7064
 Red. masses --      1.4035                 1.3764                 1.1389
 Frc consts  --      1.2528                 1.2530                 1.0447
 IR Inten    --      3.5604                 1.0269                 4.0562

                     70                     71                     72
                      A                      A                      A
 Frequencies --   1257.9332              1266.1989              1289.6245
 Red. masses --      1.3013                 1.3181                 1.2944
 Frc consts  --      1.2133                 1.2451                 1.2684
 IR Inten    --      2.6831                 0.4565                 1.8294

                     73                     74                     75
                      A                      A                      A
 Frequencies --   1300.3611              1303.5597              1308.6535
 Red. masses --      1.2426                 1.2222                 1.2979
 Frc consts  --      1.2380                 1.2236                 1.3096
 IR Inten    --      2.3608                 1.2374                 0.2019

                     76                     77                     78
                      A                      A                      A
 Frequencies --   1314.9679              1322.1682              1331.0992
 Red. masses --      1.0941                 1.2347                 1.0611
 Frc consts  --      1.1146                 1.2717                 1.1077
 IR Inten    --      0.2918                 0.3154                 0.3826

                     79                     80                     81
                      A                      A                      A
 Frequencies --   1332.4923              1333.7851              1335.5425
 Red. masses --      1.1177                 1.1010                 1.1376
 Frc consts  --      1.1692                 1.1540                 1.1955
 IR Inten    --      0.0565                 0.2275                 0.0019

                     82                     83                     84
                      A                      A                      A
 Frequencies --   1349.8610              1367.2575              1378.0957
 Red. masses --      1.3270                 1.3202                 1.3532
 Frc consts  --      1.4247                 1.4541                 1.5142
 IR Inten    --     10.4800                17.7873                50.2793

                     85                     86                     87
                      A                      A                      A
 Frequencies --   1381.3377              1392.6364              1396.1302
 Red. masses --      1.3262                 1.5160                 1.5310
 Frc consts  --      1.4910                 1.7323                 1.7582
 IR Inten    --      2.7579                 0.1117                 0.8755

                     88                     89                     90
                      A                      A                      A
 Frequencies --   1400.7988              1403.3120              1413.2492
 Red. masses --      1.5521                 1.5760                 1.2485
 Frc consts  --      1.7944                 1.8286                 1.4692
 IR Inten    --      0.1268                 0.1538                 0.4129

                     91                     92                     93
                      A                      A                      A
 Frequencies --   1414.9702              1435.6662              1463.5058
 Red. masses --      1.3013                 1.3776                 1.2783
 Frc consts  --      1.5351                 1.6729                 1.6131
 IR Inten    --      7.6320                20.7957                 3.7040

                     94                     95                     96
                      A                      A                      A
 Frequencies --   1474.2739              1483.3188              1483.5509
 Red. masses --      1.0781                 1.0705                 1.0773
 Frc consts  --      1.3806                 1.3877                 1.3970
 IR Inten    --      0.4376                 0.3205                 0.0232

                     97                     98                     99
                      A                      A                      A
 Frequencies --   1483.8699              1488.7594              1491.4666
 Red. masses --      1.0733                 1.0817                 1.0749
 Frc consts  --      1.3924                 1.4126                 1.4087
 IR Inten    --      0.0085                 0.0439                 0.2505

                    100                    101                    102
                      A                      A                      A
 Frequencies --   1498.2352              1498.5558              1499.9620
 Red. masses --      1.0862                 1.0653                 1.0404
 Frc consts  --      1.4365                 1.4096                 1.3791
 IR Inten    --      1.7867                 1.4712                 4.7977

                    103                    104                    105
                      A                      A                      A
 Frequencies --   1503.4206              1504.7575              1509.2710
 Red. masses --      1.0759                 1.0862                 1.0571
 Frc consts  --      1.4327                 1.4491                 1.4188
 IR Inten    --      1.2349                 7.6529                 4.3248

                    106                    107                    108
                      A                      A                      A
 Frequencies --   1513.5198              1514.6948              1533.0563
 Red. masses --      1.0952                 1.0895                 1.0952
 Frc consts  --      1.4781                 1.4727                 1.5165
 IR Inten    --      1.1422                 6.7867                 1.1420

                    109                    110                    111
                      A                      A                      A
 Frequencies --   1720.4748              2933.5147              2945.7218
 Red. masses --      5.0618                 1.0538                 1.0543
 Frc consts  --      8.8277                 5.3431                 5.3899
 IR Inten    --      2.8920                11.8923                69.6160

                    112                    113                    114
                      A                      A                      A
 Frequencies --   2954.9176              2963.9019              2980.8431
 Red. masses --      1.1035                 1.1051                 1.0801
 Frc consts  --      5.6771                 5.7200                 5.6546
 IR Inten    --     69.6331                30.9828                 6.5289

                    115                    116                    117
                      A                      A                      A
 Frequencies --   2993.5759              2998.6167              2999.7613
 Red. masses --      1.0589                 1.0593                 1.0588
 Frc consts  --      5.5911                 5.6119                 5.6138
 IR Inten    --      0.1215                 5.1547                 7.3204

                    118                    119                    120
                      A                      A                      A
 Frequencies --   3001.5014              3003.5829              3007.7750
 Red. masses --      1.0584                 1.0603                 1.0617
 Frc consts  --      5.6178                 5.6359                 5.6592
 IR Inten    --      0.0634                 1.1775                 5.4777

                    121                    122                    123
                      A                      A                      A
 Frequencies --   3013.4742              3015.7075              3023.4715
 Red. masses --      1.0635                 1.0637                 1.0922
 Frc consts  --      5.6900                 5.6997                 5.8827
 IR Inten    --     44.9641               121.4658                 6.3824

                    124                    125                    126
                      A                      A                      A
 Frequencies --   3023.7622              3025.5873              3027.7288
 Red. masses --      1.0948                 1.0991                 1.0359
 Frc consts  --      5.8974                 5.9278                 5.5951
 IR Inten    --      4.9615                 1.0360                42.4956

                    127                    128                    129
                      A                      A                      A
 Frequencies --   3028.4552              3030.5432              3031.9457
 Red. masses --      1.0448                 1.0595                 1.0947
 Frc consts  --      5.6458                 5.7333                 5.9289
 IR Inten    --     16.1014                45.4210                19.1361

                    130                    131                    132
                      A                      A                      A
 Frequencies --   3041.8354              3046.1688              3062.3527
 Red. masses --      1.1025                 1.1027                 1.1043
 Frc consts  --      6.0105                 6.0284                 6.1016
 IR Inten    --      0.9368                 1.9993                 0.7677

                    133                    134                    135
                      A                      A                      A
 Frequencies --   3065.2687              3075.9849              3093.8626
 Red. masses --      1.1031                 1.1049                 1.1020
 Frc consts  --      6.1065                 6.1593                 6.2149
 IR Inten    --    139.4966               106.6848                61.2453

                    136                    137                    138
                      A                      A                      A
 Frequencies --   3096.9890              3099.1273              3110.9835
 Red. masses --      1.0952                 1.1009                 1.1003
 Frc consts  --      6.1889                 6.2301                 6.2742
 IR Inten    --     30.4664                42.1074                43.9453

                    139                    140                    141
                      A                      A                      A
 Frequencies --   3140.5349              3165.7299              3225.6080
 Red. masses --      1.0608                 1.0916                 1.1132
 Frc consts  --      6.1644                 6.4453                 6.8241
 IR Inten    --     10.1347                 2.5159                13.4425

 - Thermochemistry -
 -------------------
 Temperature   298.150 Kelvin.  Pressure   1.00000 Atm.
 Atom     1 has atomic number  6 and mass  12.00000

 Molecular mass:   240.24532 amu.
 Principal axes and moments of inertia in atomic units:
                           1         2         3
     Eigenvalues --   746.65954********************
           X            1.00000  -0.00261   0.00079
           Y            0.00262   0.99989  -0.01489
           Z           -0.00075   0.01489   0.99989
 This molecule is an asymmetric top.
 Rotational symmetry number  1.
 Warning -- assumption of classical behavior for rotation
           may cause significant error
 Rotational temperatures (Kelvin)      0.11600     0.00313     0.00308
 Rotational constants (GHZ):           2.41709     0.06514     0.06412
    1 imaginary frequencies ignored.
 Zero-point vibrational energy    1187017.1 (Joules/Mol)
                                  283.70390 (Kcal/Mol)
 Warning -- explicit consideration of  31 degrees of freedom as
           vibrations may cause significant error
 Vibrational temperatures:     21.15    32.35    38.77    54.34    70.68
          (Kelvin)             87.47    95.61   112.42   153.39   154.49
                              174.55   186.03   196.91   214.17   223.57
                              233.97   254.73   342.67   347.86   358.00
                              384.20   449.51   507.70   550.17   597.41
                              610.28   688.31   713.81   770.73   788.18
                              823.18  1052.50  1055.44  1076.26  1088.50
                             1143.07  1191.23  1229.49  1269.40  1296.20
                             1327.80  1348.84  1351.34  1365.47  1399.36
                             1437.20  1452.70  1458.22  1472.41  1479.17
                             1491.34  1511.52  1514.98  1534.03  1535.60
                             1538.83  1539.27  1564.70  1594.91  1650.03
                             1668.60  1681.64  1694.00  1722.84  1741.48
                             1770.92  1788.47  1795.17  1809.89  1821.78
                             1855.48  1870.93  1875.53  1882.86  1891.95
                             1902.31  1915.15  1917.16  1919.02  1921.55
                             1942.15  1967.18  1982.77  1987.44  2003.69
                             2008.72  2015.44  2019.05  2033.35  2035.83
                             2065.60  2105.66  2121.15  2134.16  2134.50
                             2134.96  2141.99  2145.89  2155.63  2156.09
                             2158.11  2163.09  2165.01  2171.50  2177.62
                             2179.31  2205.73  2475.38  4220.67  4238.24
                             4251.47  4264.39  4288.77  4307.09  4314.34
                             4315.99  4318.49  4321.49  4327.52  4335.72
                             4338.93  4350.10  4350.52  4353.15  4356.23
                             4357.27  4360.28  4362.29  4376.52  4382.76
                             4406.04  4410.24  4425.66  4451.38  4455.88
                             4458.95  4476.01  4518.53  4554.78  4640.93

 Zero-point correction=                           0.452111 (Hartree/Particle)
 Thermal correction to Energy=                    0.474183
 Thermal correction to Enthalpy=                  0.475127
 Thermal correction to Gibbs Free Energy=         0.396619
 Sum of electronic and zero-point Energies=           -703.789910
 Sum of electronic and thermal Energies=              -703.767839
 Sum of electronic and thermal Enthalpies=            -703.766894
 Sum of electronic and thermal Free Energies=         -703.845403

                     E (Thermal)             CV                S
                      KCal/Mol        Cal/Mol-Kelvin    Cal/Mol-Kelvin
 Total                  297.554             78.314            165.235
 Electronic               0.000              0.000              0.000
 Translational            0.889              2.981             42.331
 Rotational               0.889              2.981             34.720
 Vibrational            295.777             72.352             88.184
 Vibration     1          0.593              1.986              7.246
 Vibration     2          0.593              1.985              6.402
 Vibration     3          0.593              1.984              6.042
 Vibration     4          0.594              1.982              5.373
 Vibration     5          0.595              1.978              4.852
 Vibration     6          0.597              1.973              4.431
 Vibration     7          0.598              1.970              4.256
 Vibration     8          0.599              1.964              3.937
 Vibration     9          0.605              1.944              3.330
 Vibration    10          0.606              1.943              3.316
 Vibration    11          0.609              1.931              3.079
 Vibration    12          0.612              1.924              2.956
 Vibration    13          0.614              1.917              2.847
 Vibration    14          0.618              1.904              2.687
 Vibration    15          0.620              1.897              2.605
 Vibration    16          0.623              1.888              2.519
 Vibration    17          0.628              1.871              2.359
 Vibration    18          0.656              1.782              1.817
 Vibration    19          0.658              1.776              1.790
 Vibration    20          0.662              1.765              1.739
 Vibration    21          0.672              1.734              1.615
 Vibration    22          0.701              1.650              1.349
 Vibration    23          0.729              1.569              1.153
 Vibration    24          0.752              1.508              1.030
 Vibration    25          0.779              1.437              0.908
 Vibration    26          0.786              1.418              0.878
 Vibration    27          0.835              1.298              0.714
 Vibration    28          0.852              1.259              0.668
 Vibration    29          0.891              1.171              0.575
 Vibration    30          0.903              1.144              0.549
 Vibration    31          0.928              1.092              0.500

                           ! Non-Optimized Parameters !
 Normal termination of Gaussian 16 at Mon May 22 11:56:57 2023.
