 Gaussian 16, Revision A.03,
 Gaussian 16:  ES64L-G16RevA.03 25-Dec-2016

 -----------------------------
 # opt freq b3lyp/6-31g(2df,p)
 -----------------------------

 -------------------
 Title Card Required
 -------------------
 Symbolic Z-matrix:
 Charge =  0 Multiplicity = 1

 SCF Done:  E(RB3LYP) =  -831.087464515     A.U. after   14 cycles
 SCF Done:  E(RB3LYP) =  -831.113139766     A.U. after   14 cycles
 SCF Done:  E(RB3LYP) =  -831.121430721     A.U. after   13 cycles
 SCF Done:  E(RB3LYP) =  -831.124627033     A.U. after   13 cycles
 SCF Done:  E(RB3LYP) =  -831.126556325     A.U. after   12 cycles
 SCF Done:  E(RB3LYP) =  -831.127435537     A.U. after   12 cycles
 SCF Done:  E(RB3LYP) =  -831.128426407     A.U. after   11 cycles
 SCF Done:  E(RB3LYP) =  -831.128907068     A.U. after   12 cycles
 SCF Done:  E(RB3LYP) =  -831.129146721     A.U. after   12 cycles
 SCF Done:  E(RB3LYP) =  -831.129283406     A.U. after   12 cycles
 SCF Done:  E(RB3LYP) =  -831.132605044     A.U. after   12 cycles
 SCF Done:  E(RB3LYP) =  -831.132665738     A.U. after   12 cycles
 SCF Done:  E(RB3LYP) =  -831.132665221     A.U. after    9 cycles
 SCF Done:  E(RB3LYP) =  -831.132669201     A.U. after   10 cycles
 SCF Done:  E(RB3LYP) =  -831.132668479     A.U. after    9 cycles
 SCF Done:  E(RB3LYP) =  -831.132669770     A.U. after    9 cycles
 SCF Done:  E(RB3LYP) =  -831.132669812     A.U. after    6 cycles
 SCF Done:  E(RB3LYP) =  -831.132669833     A.U. after    7 cycles
 SCF Done:  E(RB3LYP) =  -831.132669843     A.U. after    5 cycles
 Optimization completed.
    -- Stationary point found.
 Normal termination of Gaussian 16 at Wed May 24 16:24:04 2023.

 ----------------------------------------------------------------------
 #N Geom=AllCheck Guess=TCheck SCRF=Check GenChk RB3LYP/6-31G(2df,p) Fr
 eq
 ----------------------------------------------------------------------

 Structure from the checkpoint file:  "CdCCCCCqdOrCNqCrC1qCrCqdOrC1CCCC.chk"
 -------------------
 Title Card Required
 -------------------
 Charge =  0 Multiplicity = 1

                         Standard orientation:
 ---------------------------------------------------------------------
 Center     Atomic      Atomic             Coordinates (Angstroms)
 Number     Number       Type             X           Y           Z
 ---------------------------------------------------------------------
      1          6           0       -7.384377    1.224861   -0.683699
      2          6           0       -6.490312    0.819814    0.212410
      3          6           0       -5.030906    1.175709    0.207744
      4          6           0       -4.120751   -0.060913    0.113937
      5          6           0       -2.634429    0.295601    0.146775
      6          6           0       -1.712300   -0.919618    0.164689
      7          8           0       -2.116072   -2.031286    0.409878
      8          6           0       -0.243931   -0.615477   -0.150782
      9          7           0        0.668568   -1.717918    0.062750
     10          6           0        0.549561   -2.778323   -0.932650
     11          6           0        2.004715   -1.310494    0.427058
     12          6           0        2.169916   -0.991788    1.903938
     13          6           0        3.181984   -1.881644   -0.271358
     14          8           0        3.951410   -2.797630   -0.337074
     15          6           0        2.881299   -0.496452   -0.654476
     16          6           0        3.795332    0.681362   -0.359166
     17          6           0        3.056077    2.024022   -0.283865
     18          6           0        3.988056    3.213681   -0.029350
     19          6           0        3.248939    4.552457    0.043616
     20          1           0       -8.426220    0.927376   -0.629253
     21          1           0       -7.109862    1.876327   -1.509143
     22          1           0       -6.809721    0.164305    1.022842
     23          1           0       -4.785872    1.721544    1.131332
     24          1           0       -4.821187    1.861203   -0.622983
     25          1           0       -4.344615   -0.611547   -0.806611
     26          1           0       -4.337371   -0.752073    0.935026
     27          1           0       -2.402493    0.885167    1.047245
     28          1           0       -2.359288    0.943321   -0.696442
     29          1           0        0.053824    0.233564    0.474746
     30          1           0       -0.217613   -0.229796   -1.192075
     31          1           0       -0.470949   -3.162953   -0.914862
     32          1           0        1.231059   -3.592949   -0.680068
     33          1           0        0.775864   -2.442038   -1.962043
     34          1           0        1.893102   -1.867653    2.496964
     35          1           0        1.522539   -0.160674    2.207199
     36          1           0        3.198860   -0.719627    2.153522
     37          1           0        2.337637   -0.414798   -1.597823
     38          1           0        4.563432    0.730640   -1.142574
     39          1           0        4.339406    0.506789    0.576396
     40          1           0        2.297976    1.978664    0.509781
     41          1           0        2.504803    2.186417   -1.220628
     42          1           0        4.745318    3.254718   -0.823312
     43          1           0        4.539492    3.047205    0.905477
     44          1           0        2.716284    4.762346   -0.890676
     45          1           0        3.940328    5.381046    0.225155
     46          1           0        2.509360    4.553443    0.852198
 ---------------------------------------------------------------------

 SCF Done:  E(RB3LYP) =  -831.132669843     A.U. after    1 cycles

 The electronic state is 1-A.
 Alpha  occ. eigenvalues --  -19.14702 -19.13565 -14.33511 -10.27388 -10.27384
 Alpha  occ. eigenvalues --  -10.23058 -10.22442 -10.19905 -10.19888 -10.19810
 Alpha  occ. eigenvalues --  -10.19589 -10.18956 -10.18817 -10.18738 -10.18730
 Alpha  occ. eigenvalues --  -10.18665 -10.18647 -10.17905 -10.17516  -1.05038
 Alpha  occ. eigenvalues --   -1.04675  -0.94064  -0.84997  -0.81428  -0.80114
 Alpha  occ. eigenvalues --   -0.77487  -0.74528  -0.73634  -0.71940  -0.69301
 Alpha  occ. eigenvalues --   -0.66099  -0.64557  -0.60839  -0.58729  -0.56257
 Alpha  occ. eigenvalues --   -0.55572  -0.53251  -0.52676  -0.49204  -0.48848
 Alpha  occ. eigenvalues --   -0.48058  -0.47414  -0.47046  -0.45599  -0.45324
 Alpha  occ. eigenvalues --   -0.44619  -0.43501  -0.43202  -0.42693  -0.41997
 Alpha  occ. eigenvalues --   -0.41241  -0.40990  -0.40807  -0.39893  -0.39419
 Alpha  occ. eigenvalues --   -0.38508  -0.37545  -0.37385  -0.36606  -0.36472
 Alpha  occ. eigenvalues --   -0.36013  -0.35562  -0.35023  -0.34350  -0.33682
 Alpha  occ. eigenvalues --   -0.33540  -0.33354  -0.33173  -0.30449  -0.25733
 Alpha  occ. eigenvalues --   -0.25044  -0.22892  -0.21176
 Alpha virt. eigenvalues --   -0.03105  -0.01641   0.02053   0.05768   0.08050
 Alpha virt. eigenvalues --    0.09140   0.09322   0.09996   0.11037   0.11504
 Alpha virt. eigenvalues --    0.12134   0.12630   0.13477   0.13656   0.13948

 Mulliken charges:
               1
     1  C   -0.318407
     2  C    0.033410
     3  C   -0.237573
     4  C   -0.167631
     5  C   -0.302032
     6  C    0.360584
     7  O   -0.290168
     8  C   -0.264350
     9  N   -0.096482
    10  C   -0.361888
    11  C    0.140162
    12  C   -0.440718
    13  C    0.378164
    14  O   -0.309878
    15  C   -0.205518
    16  C   -0.230325
    17  C   -0.153140
    18  C   -0.164690
    19  C   -0.381310
    20  H    0.111632
    21  H    0.100638
    22  H    0.088716
    23  H    0.101839
    24  H    0.095457
    25  H    0.111847
    26  H    0.120469
    27  H    0.124707
    28  H    0.114367
    29  H    0.124962
    30  H    0.100791
    31  H    0.151616
    32  H    0.147841
    33  H    0.089441
    34  H    0.141155
    35  H    0.115199
    36  H    0.124108
    37  H    0.108432
    38  H    0.111467
    39  H    0.104715
    40  H    0.093417
    41  H    0.091724
    42  H    0.098547
    43  H    0.097365
    44  H    0.113880
    45  H    0.114815
    46  H    0.112643
 Sum of Mulliken charges =  -0.00000

 Dipole moment (field-independent basis, Debye):
    X=             -0.6626    Y=              4.4224    Z=             -0.3267  Tot=              4.4836
 Quadrupole moment (field-independent basis, Debye-Ang):
   XX=           -128.0015   YY=           -129.8821   ZZ=           -113.8255
   XY=              7.7952   XZ=              2.2300   YZ=              0.5362

  Exact polarizability: 224.735  -4.949 186.691   4.669  -5.441 150.922
 Approx polarizability: 276.946  -7.146 267.156   5.805 -14.187 244.610

                      1                      2                      3
                      A                      A                      A
 Frequencies --     16.7978                18.9117                23.5620
 Red. masses --      3.3053                 4.2236                 2.7051
 Frc consts  --      0.0005                 0.0009                 0.0009
 IR Inten    --      0.3289                 0.0445                 0.4780

                      4                      5                      6
                      A                      A                      A
 Frequencies --     40.2153                50.8553                56.3270
 Red. masses --      2.6149                 3.8259                 2.8803
 Frc consts  --      0.0025                 0.0058                 0.0054
 IR Inten    --      0.7791                 0.3445                 1.4683

                      7                      8                      9
                      A                      A                      A
 Frequencies --     61.0992                73.9073                76.5097
 Red. masses --      3.1080                 2.4324                 2.7408
 Frc consts  --      0.0068                 0.0078                 0.0095
 IR Inten    --      0.4334                 1.1642                 0.6268

                     10                     11                     12
                      A                      A                      A
 Frequencies --     98.5744               112.0214               123.0722
 Red. masses --      4.0887                 2.4384                 2.3515
 Frc consts  --      0.0234                 0.0180                 0.0210
 IR Inten    --      2.1333                 1.0646                 0.3271

                     13                     14                     15
                      A                      A                      A
 Frequencies --    128.1933               152.4739               172.6615
 Red. masses --      2.7202                 3.2410                 1.4579
 Frc consts  --      0.0263                 0.0444                 0.0256
 IR Inten    --      0.3655                 1.4954                 0.0536

                     16                     17                     18
                      A                      A                      A
 Frequencies --    188.4482               196.0867               212.2208
 Red. masses --      3.2620                 2.4186                 2.1825
 Frc consts  --      0.0683                 0.0548                 0.0579
 IR Inten    --      0.6604                 3.3461                 0.3655

                     19                     20                     21
                      A                      A                      A
 Frequencies --    221.3684               245.0777               254.9285
 Red. masses --      2.1531                 1.2452                 1.3113
 Frc consts  --      0.0622                 0.0441                 0.0502
 IR Inten    --      1.0162                 0.2808                 0.1803

                     22                     23                     24
                      A                      A                      A
 Frequencies --    268.9155               287.6105               308.4952
 Red. masses --      2.2936                 3.0049                 4.2408
 Frc consts  --      0.0977                 0.1464                 0.2378
 IR Inten    --      0.7188                 5.7872                 3.3336

                     25                     26                     27
                      A                      A                      A
 Frequencies --    321.3242               394.4819               397.3282
 Red. masses --      2.7054                 2.8373                 2.9219
 Frc consts  --      0.1646                 0.2601                 0.2718
 IR Inten    --      1.0342                 0.6683                 1.0248

                     28                     29                     30
                      A                      A                      A
 Frequencies --    408.7797               434.7115               450.0910
 Red. masses --      2.6195                 2.1613                 3.8971
 Frc consts  --      0.2579                 0.2406                 0.4652
 IR Inten    --      3.4675                 5.4946                 3.2351

                     31                     32                     33
                      A                      A                      A
 Frequencies --    467.8468               486.9293               560.8977
 Red. masses --      2.2392                 3.0818                 2.7722
 Frc consts  --      0.2888                 0.4305                 0.5139
 IR Inten    --      1.1076                 0.1744                 7.4230

                     34                     35                     36
                      A                      A                      A
 Frequencies --    626.8904               654.5128               689.3835
 Red. masses --      3.4991                 1.7570                 3.5391
 Frc consts  --      0.8102                 0.4435                 0.9910
 IR Inten    --     10.4165                 9.0590                 5.1065

                     37                     38                     39
                      A                      A                      A
 Frequencies --    719.9186               732.4256               747.7377
 Red. masses --      1.2299                 1.2452                 2.7614
 Frc consts  --      0.3756                 0.3936                 0.9097
 IR Inten    --      6.4294                 1.4250                 2.0738

                     40                     41                     42
                      A                      A                      A
 Frequencies --    764.7131               795.8927               799.1389
 Red. masses --      3.9775                 1.3267                 1.4498
 Frc consts  --      1.3704                 0.4951                 0.5455
 IR Inten    --     27.2561                 0.3121                 1.8965

                     43                     44                     45
                      A                      A                      A
 Frequencies --    867.9895               885.7224               896.0774
 Red. masses --      3.6500                 2.4697                 2.1425
 Frc consts  --      1.6202                 1.1415                 1.0136
 IR Inten    --      9.3350                 6.4916                26.7987

                     46                     47                     48
                      A                      A                      A
 Frequencies --    915.8567               934.1698               944.7992
 Red. masses --      1.5621                 1.7072                 1.7802
 Frc consts  --      0.7720                 0.8778                 0.9362
 IR Inten    --      4.1952                 6.3424                 6.0583

                     49                     50                     51
                      A                      A                      A
 Frequencies --    949.5661               953.9934               979.1429
 Red. masses --      1.4274                 1.5673                 2.1272
 Frc consts  --      0.7583                 0.8404                 1.2016
 IR Inten    --     22.9568                10.6523                25.2766

                     52                     53                     54
                      A                      A                      A
 Frequencies --    993.9397              1015.3660              1032.7195
 Red. masses --      2.4547                 3.7872                 1.3901
 Frc consts  --      1.4288                 2.3004                 0.8735
 IR Inten    --     61.4492                 8.3847                27.2527

                     55                     56                     57
                      A                      A                      A
 Frequencies --   1039.3495              1049.2149              1054.0275
 Red. masses --      2.1819                 1.4193                 2.3244
 Frc consts  --      1.3887                 0.9205                 1.5215
 IR Inten    --      8.9897                 3.4823                 6.0522

                     58                     59                     60
                      A                      A                      A
 Frequencies --   1064.0309              1073.9196              1083.0825
 Red. masses --      2.4305                 1.5929                 1.6763
 Frc consts  --      1.6213                 1.0824                 1.1585
 IR Inten    --      0.4854                 2.3827                27.5627

                     61                     62                     63
                      A                      A                      A
 Frequencies --   1091.2813              1119.2685              1128.5259
 Red. masses --      1.9445                 1.4970                 2.2578
 Frc consts  --      1.3644                 1.1049                 1.6942
 IR Inten    --     26.3995                18.2021                 3.3789

                     64                     65                     66
                      A                      A                      A
 Frequencies --   1151.5361              1157.3662              1172.0630
 Red. masses --      1.4403                 2.2508                 2.1184
 Frc consts  --      1.1252                 1.7764                 1.7146
 IR Inten    --     13.8059                30.1659                11.8558

                     67                     68                     69
                      A                      A                      A
 Frequencies --   1201.4326              1209.1954              1232.0683
 Red. masses --      1.9024                 2.8086                 1.8801
 Frc consts  --      1.6179                 2.4196                 1.6815
 IR Inten    --     24.0872                 5.4112                34.4567

                     70                     71                     72
                      A                      A                      A
 Frequencies --   1234.3984              1264.1112              1266.8129
 Red. masses --      1.5966                 1.3643                 1.4125
 Frc consts  --      1.4334                 1.2845                 1.3355
 IR Inten    --     11.5044                 6.8725                 1.2475

                     73                     74                     75
                      A                      A                      A
 Frequencies --   1285.0434              1294.5916              1304.9088
 Red. masses --      2.5816                 1.3306                 1.3363
 Frc consts  --      2.5117                 1.3139                 1.3407
 IR Inten    --     18.5749                 4.9836                 6.2048

                     76                     77                     78
                      A                      A                      A
 Frequencies --   1320.2988              1327.4937              1329.5513
 Red. masses --      1.1158                 1.2557                 1.0624
 Frc consts  --      1.1460                 1.3038                 1.1065
 IR Inten    --      1.4982                 5.8154                 0.6472

                     79                     80                     81
                      A                      A                      A
 Frequencies --   1335.5210              1343.8570              1353.7028
 Red. masses --      1.3046                 1.5914                 1.4751
 Frc consts  --      1.3710                 1.6933                 1.5926
 IR Inten    --      1.2757                11.2159                18.4258

                     82                     83                     84
                      A                      A                      A
 Frequencies --   1371.7866              1383.9626              1393.3919
 Red. masses --      1.4885                 1.4911                 1.6762
 Frc consts  --      1.6503                 1.6827                 1.9174
 IR Inten    --      4.1477                10.3766                18.2006

                     85                     86                     87
                      A                      A                      A
 Frequencies --   1395.3982              1408.3700              1413.4796
 Red. masses --      1.6013                 1.2272                 1.2374
 Frc consts  --      1.8371                 1.4341                 1.4566
 IR Inten    --      6.9635                 5.8119                 1.2578

                     88                     89                     90
                      A                      A                      A
 Frequencies --   1443.8850              1453.1826              1455.9135
 Red. masses --      1.1071                 1.1086                 1.1595
 Frc consts  --      1.3598                 1.3794                 1.4481
 IR Inten    --      2.9343                 8.7048                 1.0192

                     91                     92                     93
                      A                      A                      A
 Frequencies --   1465.9792              1476.9448              1479.4690
 Red. masses --      1.1502                 1.0746                 1.1033
 Frc consts  --      1.4565                 1.3811                 1.4229
 IR Inten    --      2.8601                 3.0130                 1.3458

                     94                     95                     96
                      A                      A                      A
 Frequencies --   1483.9858              1486.2676              1490.0593
 Red. masses --      1.0678                 1.0566                 1.0561
 Frc consts  --      1.3854                 1.3752                 1.3816
 IR Inten    --      0.3124                 2.2948                 7.1179

                     97                     98                     99
                      A                      A                      A
 Frequencies --   1494.2796              1499.2509              1499.7856
 Red. masses --      1.0665                 1.0690                 1.0963
 Frc consts  --      1.4031                 1.4158                 1.4530
 IR Inten    --     15.3236                 2.9832                 6.3414

                    100                    101                    102
                      A                      A                      A
 Frequencies --   1500.0803              1511.6284              1517.8480
 Red. masses --      1.0404                 1.0863                 1.0486
 Frc consts  --      1.3793                 1.4625                 1.4234
 IR Inten    --      5.3603                 3.9457                 6.4944

                    103                    104                    105
                      A                      A                      A
 Frequencies --   1718.7789              1815.2854              1926.0280
 Red. masses --      4.8454                11.1272                12.7155
 Frc consts  --      8.4337                21.6036                27.7914
 IR Inten    --     10.0489               108.1842               321.4439

                    106                    107                    108
                      A                      A                      A
 Frequencies --   2882.4995              2926.6244              2994.0854
 Red. masses --      1.0722                 1.0617                 1.0642
 Frc consts  --      5.2491                 5.3578                 5.6208
 IR Inten    --     44.3914                70.0709                18.8483

                    109                    110                    111
                      A                      A                      A
 Frequencies --   3001.3684              3004.2190              3014.3499
 Red. masses --      1.0648                 1.0578                 1.0604
 Frc consts  --      5.6513                 5.6250                 5.6768
 IR Inten    --     18.6119                 5.3587                 5.1446

                    112                    113                    114
                      A                      A                      A
 Frequencies --   3021.3605              3028.9158              3029.9759
 Red. masses --      1.0672                 1.0446                 1.0789
 Frc consts  --      5.7397                 5.6465                 5.8360
 IR Inten    --     57.3694                24.7894                15.4687

                    115                    116                    117
                      A                      A                      A
 Frequencies --   3030.4378              3039.7033              3045.0053
 Red. masses --      1.0443                 1.0921                 1.0949
 Frc consts  --      5.6507                 5.9451                 5.9814
 IR Inten    --     20.7904                13.0746                 9.1103

                    118                    119                    120
                      A                      A                      A
 Frequencies --   3047.8423              3048.9464              3064.4795
 Red. masses --      1.0608                 1.0998                 1.0843
 Frc consts  --      5.8060                 6.0239                 5.9993
 IR Inten    --     18.4371                 5.3941                10.3004

                    121                    122                    123
                      A                      A                      A
 Frequencies --   3066.3784              3091.5822              3092.3643
 Red. masses --      1.1006                 1.1029                 1.0855
 Frc consts  --      6.0975                 6.2111                 6.1158
 IR Inten    --     45.1292                24.8986                 5.9015

                    124                    125                    126
                      A                      A                      A
 Frequencies --   3095.0491              3098.0250              3098.9369
 Red. masses --      1.1017                 1.0915                 1.0730
 Frc consts  --      6.2180                 6.1723                 6.0714
 IR Inten    --     60.9979                15.2982                25.1192

                    127                    128                    129
                      A                      A                      A
 Frequencies --   3102.5197              3122.6255              3127.4785
 Red. masses --      1.1008                 1.1017                 1.0793
 Frc consts  --      6.2430                 6.3292                 6.2199
 IR Inten    --     39.2150                17.6414                23.1928

                    130                    131                    132
                      A                      A                      A
 Frequencies --   3141.4288              3148.6321              3222.2453
 Red. masses --      1.0708                 1.1036                 1.1140
 Frc consts  --      6.2261                 6.4465                 6.8150
 IR Inten    --      4.9479                 6.3713                17.3075

 - Thermochemistry -
 -------------------
 Temperature   298.150 Kelvin.  Pressure   1.00000 Atm.
 Atom     1 has atomic number  6 and mass  12.00000

 Molecular mass:   265.20418 amu.
 Principal axes and moments of inertia in atomic units:
                           1         2         3
     Eigenvalues --  4118.46545********************
           X            0.99986   0.01653   0.00329
           Y           -0.01653   0.99986   0.00114
           Z           -0.00327  -0.00120   0.99999
 This molecule is an asymmetric top.
 Rotational symmetry number  1.
 Warning -- assumption of classical behavior for rotation
           may cause significant error
 Rotational temperatures (Kelvin)      0.02103     0.00678     0.00539
 Rotational constants (GHZ):           0.43821     0.14125     0.11239
 Zero-point vibrational energy    1054923.6 (Joules/Mol)
                                  252.13279 (Kcal/Mol)
 Warning -- explicit consideration of  33 degrees of freedom as
           vibrations may cause significant error
 Vibrational temperatures:     24.17    27.21    33.90    57.86    73.17
          (Kelvin)             81.04    87.91   106.34   110.08   141.83
                              161.17   177.07   184.44   219.38   248.42
                              271.13   282.13   305.34   318.50   352.61
                              366.79   386.91   413.81   443.86   462.31
                              567.57   571.67   588.14   625.45   647.58
                              673.13   700.58   807.01   901.96   941.70
                              991.87  1035.80  1053.80  1075.83  1100.25
                             1145.11  1149.78  1248.84  1274.36  1289.26
                             1317.71  1344.06  1359.36  1366.21  1372.58
                             1408.77  1430.06  1460.89  1485.85  1495.39
                             1509.59  1516.51  1530.90  1545.13  1558.31
                             1570.11  1610.38  1623.70  1656.80  1665.19
                             1686.34  1728.59  1739.76  1772.67  1776.02
                             1818.77  1822.66  1848.89  1862.63  1877.47
                             1899.62  1909.97  1912.93  1921.52  1933.51
                             1947.68  1973.70  1991.21  2004.78  2007.67
                             2026.33  2033.68  2077.43  2090.81  2094.73
                             2109.22  2124.99  2128.63  2135.12  2138.41
                             2143.86  2149.94  2157.09  2157.86  2158.28
                             2174.90  2183.84  2472.94  2611.79  2771.12
                             4147.27  4210.76  4307.82  4318.30  4322.40
                             4336.98  4347.06  4357.93  4359.46  4360.12
                             4373.46  4381.08  4385.17  4386.75  4409.10
                             4411.83  4448.10  4449.22  4453.09  4457.37
                             4458.68  4463.83  4492.76  4499.74  4519.82
                             4530.18  4636.09

 Zero-point correction=                           0.401799 (Hartree/Particle)
 Thermal correction to Energy=                    0.425417
 Thermal correction to Enthalpy=                  0.426361
 Thermal correction to Gibbs Free Energy=         0.344555
 Sum of electronic and zero-point Energies=           -830.730871
 Sum of electronic and thermal Energies=              -830.707253
 Sum of electronic and thermal Enthalpies=            -830.706309
 Sum of electronic and thermal Free Energies=         -830.788114

                     E (Thermal)             CV                S
                      KCal/Mol        Cal/Mol-Kelvin    Cal/Mol-Kelvin
 Total                  266.953             83.759            172.174
 Electronic               0.000              0.000              0.000
 Translational            0.889              2.981             42.625
 Rotational               0.889              2.981             35.090
 Vibrational            265.176             77.797             94.459
 Vibration     1          0.593              1.986              6.981
 Vibration     2          0.593              1.986              6.745
 Vibration     3          0.593              1.985              6.309
 Vibration     4          0.594              1.981              5.248
 Vibration     5          0.595              1.977              4.784
 Vibration     6          0.596              1.975              4.582
 Vibration     7          0.597              1.973              4.421
 Vibration     8          0.599              1.966              4.046
 Vibration     9          0.599              1.965              3.978
 Vibration    10          0.604              1.950              3.482
 Vibration    11          0.607              1.940              3.234
 Vibration    12          0.610              1.930              3.052
 Vibration    13          0.611              1.925              2.973
 Vibration    14          0.619              1.900              2.641
 Vibration    15          0.626              1.876              2.406
 Vibration    16          0.633              1.856              2.243
 Vibration    17          0.636              1.845              2.170
 Vibration    18          0.643              1.822              2.024
 Vibration    19          0.648              1.809              1.948
 Vibration    20          0.660              1.771              1.766
 Vibration    21          0.665              1.754              1.696
 Vibration    22          0.673              1.730              1.603
 Vibration    23          0.685              1.697              1.488
 Vibration    24          0.698              1.658              1.370
 Vibration    25          0.707              1.633              1.303
 Vibration    26          0.761              1.482              0.983
 Vibration    27          0.764              1.476              0.973
 Vibration    28          0.773              1.451              0.931
 Vibration    29          0.795              1.395              0.843
 Vibration    30          0.809              1.361              0.795
 Vibration    31          0.825              1.321              0.744
 Vibration    32          0.843              1.279              0.692
 Vibration    33          0.917              1.116              0.522

 Optimization completed.
    -- Stationary point found.
 Normal termination of Gaussian 16 at Wed May 24 22:49:46 2023.
