 Gaussian 16, Revision A.03,
 Gaussian 16:  ES64L-G16RevA.03 25-Dec-2016

 -----------------------------
 # opt freq b3lyp/6-31g(2df,p)
 -----------------------------

 -------------------
 Title Card Required
 -------------------
 Symbolic Z-matrix:
 Charge =  0 Multiplicity = 1

 SCF Done:  E(RB3LYP) =  -587.194508451     A.U. after   13 cycles
 SCF Done:  E(RB3LYP) =  -587.229881874     A.U. after   10 cycles
 SCF Done:  E(RB3LYP) =  -587.246133118     A.U. after   11 cycles
 SCF Done:  E(RB3LYP) =  -587.249854360     A.U. after   10 cycles
 SCF Done:  E(RB3LYP) =  -587.252321147     A.U. after   10 cycles
 SCF Done:  E(RB3LYP) =  -587.252840743     A.U. after   10 cycles
 SCF Done:  E(RB3LYP) =  -587.253071963     A.U. after    9 cycles
 SCF Done:  E(RB3LYP) =  -587.253194233     A.U. after    9 cycles
 SCF Done:  E(RB3LYP) =  -587.253250636     A.U. after    9 cycles
 SCF Done:  E(RB3LYP) =  -587.253251518     A.U. after    9 cycles
 SCF Done:  E(RB3LYP) =  -587.256356126     A.U. after   10 cycles
 SCF Done:  E(RB3LYP) =  -587.256423659     A.U. after    9 cycles
 SCF Done:  E(RB3LYP) =  -587.256485726     A.U. after   10 cycles
 SCF Done:  E(RB3LYP) =  -587.256505987     A.U. after    9 cycles
 SCF Done:  E(RB3LYP) =  -587.256512089     A.U. after    8 cycles
 SCF Done:  E(RB3LYP) =  -587.256514145     A.U. after    8 cycles
 SCF Done:  E(RB3LYP) =  -587.256515495     A.U. after    8 cycles
 SCF Done:  E(RB3LYP) =  -587.256515837     A.U. after    7 cycles
 SCF Done:  E(RB3LYP) =  -587.256515884     A.U. after    5 cycles
 Optimization completed.
    -- Stationary point found.
 Normal termination of Gaussian 16 at Mon May 22 10:55:37 2023.

 ----------------------------------------------------------------------
 #N Geom=AllCheck Guess=TCheck SCRF=Check GenChk RB3LYP/6-31G(2df,p) Fr
 eq
 ----------------------------------------------------------------------

 Structure from the checkpoint file:  "CdCCCCCC1CC2CCCCCC12.chk"
 -------------------
 Title Card Required
 -------------------
 Charge =  0 Multiplicity = 1

                         Standard orientation:
 ---------------------------------------------------------------------
 Center     Atomic      Atomic             Coordinates (Angstroms)
 Number     Number       Type             X           Y           Z
 ---------------------------------------------------------------------
      1          6           0       -6.484274   -0.946226   -0.030385
      2          6           0       -5.377140   -0.684540    0.657307
      3          6           0       -4.340360    0.336599    0.286574
      4          6           0       -2.948953   -0.278479    0.051179
      5          6           0       -1.876697    0.764913   -0.279284
      6          6           0       -0.490490    0.155904   -0.527978
      7          6           0        0.570081    1.209292   -0.856071
      8          6           0        1.086366    2.057683    0.344908
      9          6           0        2.420819    1.253191    0.350344
     10          6           0        2.493296    0.248526    1.501832
     11          6           0        3.722797   -0.669333    1.523000
     12          6           0        3.997162   -1.436579    0.210390
     13          6           0        2.746519   -1.782548   -0.620381
     14          6           0        2.375739   -0.674475   -1.622493
     15          6           0        2.045932    0.732263   -1.084001
     16          1           0       -7.192182   -1.704348    0.287891
     17          1           0       -6.730132   -0.406805   -0.941276
     18          1           0       -5.171388   -1.253020    1.564957
     19          1           0       -4.259148    1.082577    1.091081
     20          1           0       -4.661131    0.880454   -0.610500
     21          1           0       -3.015386   -1.012433   -0.762412
     22          1           0       -2.647164   -0.842652    0.944440
     23          1           0       -1.817274    1.494477    0.539814
     24          1           0       -2.184198    1.334069   -1.167755
     25          1           0       -0.563228   -0.557334   -1.360242
     26          1           0       -0.195668   -0.433626    0.349099
     27          1           0        0.189572    1.810525   -1.690424
     28          1           0        0.499538    2.003319    1.267875
     29          1           0        1.221243    3.112130    0.090029
     30          1           0        3.327107    1.869799    0.367428
     31          1           0        1.585884   -0.365235    1.511167
     32          1           0        2.465896    0.816006    2.442184
     33          1           0        3.584902   -1.388372    2.340229
     34          1           0        4.613463   -0.085578    1.787323
     35          1           0        4.546950   -2.352704    0.453791
     36          1           0        4.672805   -0.848984   -0.424180
     37          1           0        1.902493   -2.026026    0.035541
     38          1           0        2.941486   -2.692436   -1.200362
     39          1           0        1.536618   -1.014944   -2.242898
     40          1           0        3.224950   -0.585599   -2.312478
     41          1           0        2.479195    1.449593   -1.789961
 ---------------------------------------------------------------------

 SCF Done:  E(RB3LYP) =  -587.256515884     A.U. after    1 cycles

 The electronic state is 1-A.
 Alpha  occ. eigenvalues --  -10.18094 -10.18005 -10.17698 -10.17605 -10.17528
 Alpha  occ. eigenvalues --  -10.17501 -10.17462 -10.17287 -10.17211 -10.17182
 Alpha  occ. eigenvalues --  -10.17163 -10.17121 -10.17084 -10.16946 -10.16910
 Alpha  occ. eigenvalues --   -0.84662  -0.80522  -0.78996  -0.76586  -0.75341
 Alpha  occ. eigenvalues --   -0.71581  -0.68336  -0.65881  -0.63901  -0.60527
 Alpha  occ. eigenvalues --   -0.58519  -0.56866  -0.54730  -0.54172  -0.50947
 Alpha  occ. eigenvalues --   -0.48417  -0.47079  -0.45928  -0.45323  -0.44128
 Alpha  occ. eigenvalues --   -0.43104  -0.42548  -0.41959  -0.39894  -0.39346
 Alpha  occ. eigenvalues --   -0.38550  -0.37514  -0.37085  -0.36430  -0.35800
 Alpha  occ. eigenvalues --   -0.35492  -0.33892  -0.33386  -0.32478  -0.32434
 Alpha  occ. eigenvalues --   -0.32044  -0.31676  -0.30414  -0.29218  -0.28488
 Alpha  occ. eigenvalues --   -0.27307  -0.27123  -0.24897
 Alpha virt. eigenvalues --    0.02614   0.07456   0.08738   0.09213   0.10600
 Alpha virt. eigenvalues --    0.11133   0.12047   0.12746   0.12857   0.13002
 Alpha virt. eigenvalues --    0.13943   0.14421   0.14754   0.15167   0.15653

 Mulliken charges:
               1
     1  C   -0.319517
     2  C    0.034047
     3  C   -0.230338
     4  C   -0.174244
     5  C   -0.176616
     6  C   -0.209127
     7  C   -0.004978
     8  C   -0.250033
     9  C   -0.009424
    10  C   -0.194565
    11  C   -0.204469
    12  C   -0.174607
    13  C   -0.195052
    14  C   -0.232101
    15  C    0.014906
    16  H    0.107920
    17  H    0.099954
    18  H    0.083133
    19  H    0.101526
    20  H    0.096104
    21  H    0.099091
    22  H    0.092015
    23  H    0.096044
    24  H    0.091925
    25  H    0.092843
    26  H    0.095471
    27  H    0.057141
    28  H    0.087931
    29  H    0.091757
    30  H    0.056444
    31  H    0.096992
    32  H    0.087165
    33  H    0.090579
    34  H    0.091634
    35  H    0.089419
    36  H    0.091104
    37  H    0.092910
    38  H    0.087164
    39  H    0.090958
    40  H    0.089592
    41  H    0.069302
 Sum of Mulliken charges =  -0.00000

 Dipole moment (field-independent basis, Debye):
    X=              0.4744    Y=              0.1147    Z=             -0.0407  Tot=              0.4898
 Quadrupole moment (field-independent basis, Debye-Ang):
   XX=            -99.9238   YY=            -96.4041   ZZ=            -95.1135
   XY=              0.3127   XZ=              0.0830   YZ=             -1.1832

  Exact polarizability: 193.223   3.339 142.326   8.707  -0.381 140.342
 Approx polarizability: 234.190   9.000 209.076  12.774  -1.008 216.906

                      1                      2                      3
                      A                      A                      A
 Frequencies --     31.8980                37.6646                44.5947
 Red. masses --      3.4228                 2.9181                 2.2143
 Frc consts  --      0.0021                 0.0024                 0.0026
 IR Inten    --      0.0165                 0.0137                 0.0203

                      4                      5                      6
                      A                      A                      A
 Frequencies --     70.6156                82.8162               105.8873
 Red. masses --      2.6137                 2.8626                 2.4397
 Frc consts  --      0.0077                 0.0116                 0.0161
 IR Inten    --      0.0026                 0.0248                 0.0063

                      7                      8                      9
                      A                      A                      A
 Frequencies --    132.4658               146.2780               154.0739
 Red. masses --      1.9900                 2.2993                 2.5536
 Frc consts  --      0.0206                 0.0290                 0.0357
 IR Inten    --      0.0182                 0.0662                 0.0052

                     10                     11                     12
                      A                      A                      A
 Frequencies --    204.4237               216.0433               274.1133
 Red. masses --      2.3321                 2.4866                 2.5113
 Frc consts  --      0.0574                 0.0684                 0.1112
 IR Inten    --      0.1048                 0.0937                 0.0726

                     13                     14                     15
                      A                      A                      A
 Frequencies --    310.5812               318.5978               348.3973
 Red. masses --      2.6679                 2.7016                 2.4629
 Frc consts  --      0.1516                 0.1616                 0.1761
 IR Inten    --      0.2446                 0.1085                 0.1274

                     16                     17                     18
                      A                      A                      A
 Frequencies --    362.9153               368.7804               417.2086
 Red. masses --      2.6941                 2.3962                 2.1339
 Frc consts  --      0.2091                 0.1920                 0.2188
 IR Inten    --      0.1387                 0.3072                 1.4184

                     19                     20                     21
                      A                      A                      A
 Frequencies --    449.8510               486.6696               521.0420
 Red. masses --      2.1015                 2.4566                 1.9467
 Frc consts  --      0.2506                 0.3428                 0.3114
 IR Inten    --      1.0424                 0.3688                 0.5407

                     22                     23                     24
                      A                      A                      A
 Frequencies --    609.4574               655.7782               676.5053
 Red. masses --      2.6653                 1.5734                 2.1143
 Frc consts  --      0.5833                 0.3986                 0.5701
 IR Inten    --      0.3260                 8.2880                 0.0282

                     25                     26                     27
                      A                      A                      A
 Frequencies --    735.0009               755.8203               769.0994
 Red. masses --      1.1000                 1.5664                 1.6179
 Frc consts  --      0.3501                 0.5272                 0.5639
 IR Inten    --      2.6824                 1.3764                 0.0411

                     28                     29                     30
                      A                      A                      A
 Frequencies --    783.0216               812.9115               827.8337
 Red. masses --      1.7712                 2.1574                 2.3180
 Frc consts  --      0.6398                 0.8400                 0.9359
 IR Inten    --      0.7072                 0.9501                 0.6110

                     31                     32                     33
                      A                      A                      A
 Frequencies --    834.6689               876.9292               892.0044
 Red. masses --      2.1271                 1.9271                 1.7772
 Frc consts  --      0.8731                 0.8732                 0.8332
 IR Inten    --      0.1239                 3.5690                 0.6647

                     34                     35                     36
                      A                      A                      A
 Frequencies --    922.1590               937.2418               942.5626
 Red. masses --      1.7756                 2.0432                 2.3266
 Frc consts  --      0.8896                 1.0575                 1.2178
 IR Inten    --      0.5958                 2.5715                 0.5477

                     37                     38                     39
                      A                      A                      A
 Frequencies --    945.9187               974.9785               986.0751
 Red. masses --      1.3958                 2.1223                 1.7009
 Frc consts  --      0.7359                 1.1886                 0.9744
 IR Inten    --     28.7725                 0.4604                 0.1328

                     40                     41                     42
                      A                      A                      A
 Frequencies --    998.2723              1015.9611              1027.6098
 Red. masses --      1.8157                 2.0527                 3.0340
 Frc consts  --      1.0661                 1.2483                 1.8877
 IR Inten    --      1.9028                 1.0527                 0.4096

                     43                     44                     45
                      A                      A                      A
 Frequencies --   1032.9838              1042.5532              1045.5168
 Red. masses --      1.6386                 1.2817                 1.6169
 Frc consts  --      1.0302                 0.8208                 1.0413
 IR Inten    --      0.9783                 3.6666                 3.5791

                     46                     47                     48
                      A                      A                      A
 Frequencies --   1056.8223              1062.3773              1080.0375
 Red. masses --      1.6084                 2.2145                 1.8803
 Frc consts  --      1.0584                 1.4726                 1.2923
 IR Inten    --      1.8084                 1.2036                 2.0999

                     49                     50                     51
                      A                      A                      A
 Frequencies --   1089.6615              1121.8882              1135.8255
 Red. masses --      1.7471                 1.9417                 1.4370
 Frc consts  --      1.2222                 1.4399                 1.0922
 IR Inten    --      1.0103                 0.0757                 0.2506

                     52                     53                     54
                      A                      A                      A
 Frequencies --   1147.1244              1176.4432              1200.7938
 Red. masses --      1.8128                 2.0226                 1.4054
 Frc consts  --      1.4055                 1.6493                 1.1939
 IR Inten    --      0.1868                 0.5705                 0.6517

                     55                     56                     57
                      A                      A                      A
 Frequencies --   1201.9109              1215.4447              1228.0063
 Red. masses --      1.7776                 1.5629                 1.2691
 Frc consts  --      1.5130                 1.3603                 1.1276
 IR Inten    --      0.1848                 0.8948                 0.6686

                     58                     59                     60
                      A                      A                      A
 Frequencies --   1234.1108              1248.4262              1268.2344
 Red. masses --      1.3938                 1.3857                 1.3252
 Frc consts  --      1.2507                 1.2725                 1.2558
 IR Inten    --      1.5983                 3.1027                 0.1477

                     61                     62                     63
                      A                      A                      A
 Frequencies --   1271.8562              1279.6973              1289.0844
 Red. masses --      1.3695                 1.4134                 1.3195
 Frc consts  --      1.3052                 1.3638                 1.2919
 IR Inten    --      0.1213                 1.2756                 0.1172

                     64                     65                     66
                      A                      A                      A
 Frequencies --   1309.8260              1313.2942              1318.0086
 Red. masses --      1.2289                 1.3013                 1.2548
 Frc consts  --      1.2422                 1.3224                 1.2842
 IR Inten    --      0.1339                 0.8316                 0.9834

                     67                     68                     69
                      A                      A                      A
 Frequencies --   1326.0229              1330.5453              1335.0997
 Red. masses --      1.1440                 1.2253                 1.1701
 Frc consts  --      1.1852                 1.2781                 1.2289
 IR Inten    --      0.3102                 1.4931                 0.7199

                     70                     71                     72
                      A                      A                      A
 Frequencies --   1344.9406              1360.2818              1365.5617
 Red. masses --      1.3013                 1.3212                 1.3599
 Frc consts  --      1.3868                 1.4404                 1.4941
 IR Inten    --      1.8085                 3.3454                 3.0408

                     73                     74                     75
                      A                      A                      A
 Frequencies --   1377.4346              1381.2800              1387.7893
 Red. masses --      1.3575                 1.3303                 1.4366
 Frc consts  --      1.5175                 1.4954                 1.6302
 IR Inten    --      0.9613                 2.8777                 0.3993

                     76                     77                     78
                      A                      A                      A
 Frequencies --   1392.8897              1398.7395              1398.8925
 Red. masses --      1.4933                 1.4928                 1.3512
 Frc consts  --      1.7069                 1.7207                 1.5579
 IR Inten    --      1.8025                 2.7964                10.9982

                     79                     80                     81
                      A                      A                      A
 Frequencies --   1408.8942              1455.2206              1477.1232
 Red. masses --      1.4820                 1.1639                 1.0896
 Frc consts  --      1.7332                 1.4522                 1.4007
 IR Inten    --      0.4703                 0.7764                 1.2077

                     82                     83                     84
                      A                      A                      A
 Frequencies --   1479.7147              1481.2365              1483.6949
 Red. masses --      1.0943                 1.0848                 1.0781
 Frc consts  --      1.4117                 1.4023                 1.3983
 IR Inten    --      1.2655                 0.3778                 1.0971

                     85                     86                     87
                      A                      A                      A
 Frequencies --   1487.7791              1490.6709              1492.2114
 Red. masses --      1.0952                 1.0875                 1.1006
 Frc consts  --      1.4283                 1.4238                 1.4439
 IR Inten    --      1.1363                 3.5783                 1.3854

                     88                     89                     90
                      A                      A                      A
 Frequencies --   1504.0367              1508.7247              1509.2258
 Red. masses --      1.0869                 1.0894                 1.1001
 Frc consts  --      1.4486                 1.4611                 1.4763
 IR Inten    --      6.5500                 1.4974                 3.4805

                     91                     92                     93
                      A                      A                      A
 Frequencies --   1717.8895              2996.8933              3002.8948
 Red. masses --      4.8467                 1.0634                 1.0654
 Frc consts  --      8.4272                 5.6273                 5.6604
 IR Inten    --     11.9249                12.9027                 7.3606

                     94                     95                     96
                      A                      A                      A
 Frequencies --   3004.0199              3008.9669              3009.8330
 Red. masses --      1.0640                 1.0629                 1.0639
 Frc consts  --      5.6571                 5.6702                 5.6787
 IR Inten    --      3.9363                 6.4298                 6.4476

                     97                     98                     99
                      A                      A                      A
 Frequencies --   3014.0563              3016.3765              3017.6411
 Red. masses --      1.0743                 1.0645                 1.0672
 Frc consts  --      5.7500                 5.7063                 5.7258
 IR Inten    --      7.8347                36.3282                60.4423

                    100                    101                    102
                      A                      A                      A
 Frequencies --   3020.8570              3023.5874              3025.0004
 Red. masses --      1.0841                 1.0662                 1.0710
 Frc consts  --      5.8287                 5.7430                 5.7743
 IR Inten    --     26.6538                20.3303                54.1325

                    103                    104                    105
                      A                      A                      A
 Frequencies --   3029.2666              3034.3826              3040.4345
 Red. masses --      1.0946                 1.0754                 1.0907
 Frc consts  --      5.9182                 5.8341                 5.9404
 IR Inten    --      3.5797                33.4609                26.7693

                    106                    107                    108
                      A                      A                      A
 Frequencies --   3042.4493              3044.8347              3047.0418
 Red. masses --      1.0952                 1.0837                 1.0806
 Frc consts  --      5.9728                 5.9198                 5.9111
 IR Inten    --     32.3850                 3.5890                60.2115

                    109                    110                    111
                      A                      A                      A
 Frequencies --   3054.8676              3060.3767              3063.5973
 Red. masses --      1.0999                 1.0996                 1.0998
 Frc consts  --      6.0477                 6.0680                 6.0817
 IR Inten    --     33.4971                42.1820                55.1320

                    112                    113                    114
                      A                      A                      A
 Frequencies --   3068.4802              3076.5847              3096.1623
 Red. masses --      1.1034                 1.0960                 1.1047
 Frc consts  --      6.1213                 6.1125                 6.2396
 IR Inten    --     97.4029                87.6741                53.6402

                    115                    116                    117
                      A                      A                      A
 Frequencies --   3122.6763              3140.1532              3220.4825
 Red. masses --      1.0811                 1.0686                 1.1141
 Frc consts  --      6.2112                 6.2085                 6.8080
 IR Inten    --     25.5791                 5.7427                18.3653

 - Thermochemistry -
 -------------------
 Temperature   298.150 Kelvin.  Pressure   1.00000 Atm.
 Atom     1 has atomic number  6 and mass  12.00000

 Molecular mass:   206.20345 amu.
 Principal axes and moments of inertia in atomic units:
                           1         2         3
     Eigenvalues --  1524.576828755.642559028.18009
           X            0.99999  -0.00298   0.00207
           Y            0.00297   0.99998   0.00472
           Z           -0.00208  -0.00471   0.99999
 This molecule is an asymmetric top.
 Rotational symmetry number  1.
 Warning -- assumption of classical behavior for rotation
           may cause significant error
 Rotational temperatures (Kelvin)      0.05681     0.00989     0.00959
 Rotational constants (GHZ):           1.18377     0.20612     0.19990
 Zero-point vibrational energy     996563.9 (Joules/Mol)
                                  238.18449 (Kcal/Mol)
 Warning -- explicit consideration of  22 degrees of freedom as
           vibrations may cause significant error
 Vibrational temperatures:     45.89    54.19    64.16   101.60   119.15
          (Kelvin)            152.35   190.59   210.46   221.68   294.12
                              310.84   394.39   446.86   458.39   501.27
                              522.15   530.59   600.27   647.24   700.21
                              749.66   876.87   943.52   973.34  1057.50
                             1087.46  1106.56  1126.59  1169.60  1191.07
                             1200.90  1261.71  1283.40  1326.78  1348.48
                             1356.14  1360.97  1402.78  1418.74  1436.29
                             1461.74  1478.50  1486.23  1500.00  1504.27
                             1520.53  1528.52  1553.93  1567.78  1614.15
                             1634.20  1650.46  1692.64  1727.67  1729.28
                             1748.75  1766.83  1775.61  1796.21  1824.71
                             1829.92  1841.20  1854.70  1884.55  1889.54
                             1896.32  1907.85  1914.36  1920.91  1935.07
                             1957.14  1964.74  1981.82  1987.35  1996.72
                             2004.06  2012.47  2012.69  2027.08  2093.74
                             2125.25  2128.98  2131.17  2134.71  2140.58
                             2144.74  2146.96  2163.97  2170.72  2171.44
                             2471.66  4311.86  4320.50  4322.11  4329.23
                             4330.48  4336.55  4339.89  4341.71  4346.34
                             4350.27  4352.30  4358.44  4365.80  4374.51
                             4377.41  4380.84  4384.01  4395.27  4403.20
                             4407.83  4414.86  4426.52  4454.69  4492.83
                             4517.98  4633.56

 Zero-point correction=                           0.379571 (Hartree/Particle)
 Thermal correction to Energy=                    0.395733
 Thermal correction to Enthalpy=                  0.396677
 Thermal correction to Gibbs Free Energy=         0.334491
 Sum of electronic and zero-point Energies=           -586.876945
 Sum of electronic and thermal Energies=              -586.860783
 Sum of electronic and thermal Enthalpies=            -586.859839
 Sum of electronic and thermal Free Energies=         -586.922025

                     E (Thermal)             CV                S
                      KCal/Mol        Cal/Mol-Kelvin    Cal/Mol-Kelvin
 Total                  248.326             62.190            130.881
 Electronic               0.000              0.000              0.000
 Translational            0.889              2.981             41.875
 Rotational               0.889              2.981             33.155
 Vibrational            246.549             56.229             55.852
 Vibration     1          0.594              1.983              5.708
 Vibration     2          0.594              1.982              5.378
 Vibration     3          0.595              1.980              5.044
 Vibration     4          0.598              1.968              4.136
 Vibration     5          0.600              1.961              3.823
 Vibration     6          0.605              1.945              3.343
 Vibration     7          0.613              1.921              2.910
 Vibration     8          0.617              1.907              2.720
 Vibration     9          0.620              1.898              2.621
 Vibration    10          0.640              1.834              2.093
 Vibration    11          0.645              1.817              1.992
 Vibration    12          0.676              1.721              1.570
 Vibration    13          0.699              1.654              1.359
 Vibration    14          0.705              1.638              1.317
 Vibration    15          0.726              1.579              1.173
 Vibration    16          0.737              1.549              1.110
 Vibration    17          0.741              1.536              1.085
 Vibration    18          0.780              1.433              0.902
 Vibration    19          0.809              1.361              0.796
 Vibration    20          0.843              1.280              0.692
 Vibration    21          0.876              1.203              0.608
 Vibration    22          0.968              1.012              0.434

 Optimization completed.
    -- Stationary point found.
 Normal termination of Gaussian 16 at Mon May 22 14:24:59 2023.
