 Gaussian 16, Revision A.03,
 Gaussian 16:  ES64L-G16RevA.03 25-Dec-2016

 -----------------------------
 # opt freq b3lyp/6-31g(2df,p)
 -----------------------------

 -------------------
 Title Card Required
 -------------------
 Symbolic Z-matrix:
 Charge =  0 Multiplicity = 1

 SCF Done:  E(RB3LYP) =  -597.301328156     A.U. after   16 cycles
 SCF Done:  E(RB3LYP) =  -597.333273523     A.U. after   13 cycles
 SCF Done:  E(RB3LYP) =  -597.339033685     A.U. after   12 cycles
 SCF Done:  E(RB3LYP) =  -597.339387400     A.U. after   11 cycles
 SCF Done:  E(RB3LYP) =  -597.339531331     A.U. after   11 cycles
 SCF Done:  E(RB3LYP) =  -597.339610466     A.U. after   10 cycles
 SCF Done:  E(RB3LYP) =  -597.339677819     A.U. after   11 cycles
 SCF Done:  E(RB3LYP) =  -597.339686328     A.U. after   11 cycles
 SCF Done:  E(RB3LYP) =  -597.339700257     A.U. after    8 cycles
 SCF Done:  E(RB3LYP) =  -597.339763453     A.U. after   10 cycles
 SCF Done:  E(RB3LYP) =  -597.347225366     A.U. after   11 cycles
 SCF Done:  E(RB3LYP) =  -597.347284001     A.U. after   10 cycles
 SCF Done:  E(RB3LYP) =  -597.347299924     A.U. after   10 cycles
 SCF Done:  E(RB3LYP) =  -597.347304463     A.U. after    9 cycles
 SCF Done:  E(RB3LYP) =  -597.347306195     A.U. after    9 cycles
 SCF Done:  E(RB3LYP) =  -597.347306508     A.U. after    8 cycles
 SCF Done:  E(RB3LYP) =  -597.347306618     A.U. after    8 cycles
 SCF Done:  E(RB3LYP) =  -597.347306644     A.U. after    7 cycles
 SCF Done:  E(RB3LYP) =  -597.347306652     A.U. after    6 cycles
 Optimization completed.
    -- Stationary point found.
 Normal termination of Gaussian 16 at Sun May 28 13:08:00 2023.

 ----------------------------------------------------------------------
 #N Geom=AllCheck Guess=TCheck SCRF=Check GenChk RB3LYP/6-31G(2df,p) Fr
 eq
 ----------------------------------------------------------------------

 Structure from the checkpoint file:  "CdCCCCqdNrCqOrCCC1dCCdC1.chk"
 -------------------
 Title Card Required
 -------------------
 Charge =  0 Multiplicity = 1

                         Standard orientation:
 ---------------------------------------------------------------------
 Center     Atomic      Atomic             Coordinates (Angstroms)
 Number     Number       Type             X           Y           Z
 ---------------------------------------------------------------------
      1          6           0       -6.062034   -0.632521   -0.764234
      2          6           0       -5.137348    0.121885   -0.179617
      3          6           0       -3.862648   -0.386203    0.432986
      4          6           0       -2.618244    0.202549   -0.245771
      5          6           0       -1.283271   -0.199337    0.353822
      6          7           0       -1.081555   -1.045167    1.281652
      7          6           0       -0.090679    0.577205   -0.208140
      8          8           0       -0.173512    1.924471    0.278411
      9          6           0        1.266670   -0.060325    0.080421
     10          6           0        2.430133    0.738418   -0.541282
     11          6           0        3.754135    0.132404   -0.271777
     12          6           0        4.890431    0.487581    0.332345
     13          6           0        5.521209   -0.907969   -0.013448
     14          6           0        4.395872   -1.282441   -0.618843
     15          1           0       -6.962015   -0.205091   -1.193202
     16          1           0       -5.958086   -1.711972   -0.833595
     17          1           0       -5.281723    1.201280   -0.133387
     18          1           0       -3.841888   -1.481185    0.376282
     19          1           0       -3.840826   -0.121958    1.500192
     20          1           0       -2.659118    1.298985   -0.238728
     21          1           0       -2.611602   -0.078105   -1.308454
     22          1           0       -1.958203   -1.457910    1.608771
     23          1           0       -0.220924    0.680977   -1.293474
     24          1           0       -0.054452    1.880799    1.234968
     25          1           0        1.262852   -1.086811   -0.302580
     26          1           0        1.402283   -0.148509    1.163522
     27          1           0        2.410447    1.767439   -0.167614
     28          1           0        2.269516    0.796818   -1.629915
     29          1           0        5.239062    1.376014    0.841162
     30          1           0        6.483207   -1.366913    0.170963
     31          1           0        4.055092   -2.170934   -1.132542
 ---------------------------------------------------------------------

 SCF Done:  E(RB3LYP) =  -597.347306652     A.U. after    1 cycles

 The electronic state is 1-A.
 Alpha  occ. eigenvalues --  -19.14518 -14.31436 -10.23629 -10.23233 -10.19732
 Alpha  occ. eigenvalues --  -10.19585 -10.19282 -10.18819 -10.18479 -10.18353
 Alpha  occ. eigenvalues --  -10.18029 -10.17996 -10.17866 -10.17491  -1.02493
 Alpha  occ. eigenvalues --   -0.90658  -0.85312  -0.80774  -0.78217  -0.74556
 Alpha  occ. eigenvalues --   -0.71219  -0.66464  -0.63787  -0.60388  -0.57468
 Alpha  occ. eigenvalues --   -0.56463  -0.55496  -0.49926  -0.48598  -0.48164
 Alpha  occ. eigenvalues --   -0.47856  -0.46909  -0.46142  -0.45026  -0.42505
 Alpha  occ. eigenvalues --   -0.41907  -0.40390  -0.38739  -0.38387  -0.37281
 Alpha  occ. eigenvalues --   -0.36288  -0.35353  -0.34593  -0.33581  -0.32803
 Alpha  occ. eigenvalues --   -0.32221  -0.30604  -0.29284  -0.28806  -0.26640
 Alpha  occ. eigenvalues --   -0.24905  -0.17319
 Alpha virt. eigenvalues --   -0.03721  -0.00221   0.01521   0.07767   0.09289
 Alpha virt. eigenvalues --    0.09993   0.11086   0.11248   0.11798   0.12472
 Alpha virt. eigenvalues --    0.13177   0.14080   0.14969   0.15165   0.15280

 Mulliken charges:
               1
     1  C   -0.317670
     2  C    0.025387
     3  C   -0.263382
     4  C   -0.253860
     5  C    0.264678
     6  N   -0.465360
     7  C    0.068834
     8  O   -0.434274
     9  C   -0.197898
    10  C   -0.354376
    11  C    0.349057
    12  C   -0.286419
    13  C   -0.099647
    14  C   -0.179210
    15  H    0.114191
    16  H    0.103992
    17  H    0.091339
    18  H    0.106669
    19  H    0.113492
    20  H    0.135057
    21  H    0.123757
    22  H    0.220249
    23  H    0.086125
    24  H    0.284685
    25  H    0.109134
    26  H    0.116963
    27  H    0.116248
    28  H    0.102183
    29  H    0.104655
    30  H    0.108631
    31  H    0.106769
 Sum of Mulliken charges =  -0.00000

 Dipole moment (field-independent basis, Debye):
    X=             -1.7183    Y=              0.0008    Z=             -0.1728  Tot=              1.7269
 Quadrupole moment (field-independent basis, Debye-Ang):
   XX=            -81.3720   YY=            -85.3153   ZZ=            -83.9179
   XY=              0.7522   XZ=              1.1904   YZ=              4.6661

  Exact polarizability: 188.033   4.062 119.948  18.916   3.635 102.050
 Approx polarizability: 225.449  13.054 191.868  37.164   5.358 173.699

                      1                      2                      3
                      A                      A                      A
 Frequencies --     14.3453                40.4723                47.7554
 Red. masses --      4.7786                 3.1024                 3.5239
 Frc consts  --      0.0006                 0.0030                 0.0047
 IR Inten    --      0.4710                 0.0261                 1.0295

                      4                      5                      6
                      A                      A                      A
 Frequencies --     54.7070                64.9091                83.2332
 Red. masses --      3.9231                 2.9969                 3.3703
 Frc consts  --      0.0069                 0.0074                 0.0138
 IR Inten    --      0.6961                 0.2341                 1.8504

                      7                      8                      9
                      A                      A                      A
 Frequencies --     97.5879               120.0050               150.5363
 Red. masses --      3.0375                 2.4899                 2.7321
 Frc consts  --      0.0170                 0.0211                 0.0365
 IR Inten    --      0.0042                 0.7532                 1.0531

                     10                     11                     12
                      A                      A                      A
 Frequencies --    201.8339               232.4268               257.1873
 Red. masses --      3.4995                 4.5096                 3.8043
 Frc consts  --      0.0840                 0.1435                 0.1483
 IR Inten    --      0.4552                 0.8687                 2.5808

                     13                     14                     15
                      A                      A                      A
 Frequencies --    290.9506               327.7046               334.0052
 Red. masses --      2.3911                 2.8020                 3.2780
 Frc consts  --      0.1193                 0.1773                 0.2155
 IR Inten    --      2.7263                14.5791                 2.2495

                     16                     17                     18
                      A                      A                      A
 Frequencies --    382.2815               406.2732               437.7309
 Red. masses --      1.3750                 2.2855                 2.1372
 Frc consts  --      0.1184                 0.2223                 0.2413
 IR Inten    --    104.4063                17.1178                18.7170

                     19                     20                     21
                      A                      A                      A
 Frequencies --    520.9012               565.9690               578.0192
 Red. masses --      2.7224                 2.5401                 1.9913
 Frc consts  --      0.4352                 0.4794                 0.3920
 IR Inten    --     20.3798                 2.6323                 1.2144

                     22                     23                     24
                      A                      A                      A
 Frequencies --    594.2018               628.8738               656.4915
 Red. masses --      1.2939                 2.1960                 1.8017
 Frc consts  --      0.2692                 0.5117                 0.4575
 IR Inten    --     49.0789                 0.4710                 3.2199

                     25                     26                     27
                      A                      A                      A
 Frequencies --    681.8162               723.2886               770.3482
 Red. masses --      2.4303                 1.6198                 2.9719
 Frc consts  --      0.6656                 0.4993                 1.0391
 IR Inten    --     14.5445                21.2000                 1.5300

                     28                     29                     30
                      A                      A                      A
 Frequencies --    780.7963               794.1608               840.6728
 Red. masses --      1.4719                 1.5817                 1.3997
 Frc consts  --      0.5287                 0.5877                 0.5828
 IR Inten    --      2.7834                 6.8505                 0.1229

                     31                     32                     33
                      A                      A                      A
 Frequencies --    858.2128               912.6596               922.6873
 Red. masses --      2.4603                 2.1475                 1.8120
 Frc consts  --      1.0676                 1.0539                 0.9089
 IR Inten    --      3.7940                34.5285                19.6354

                     34                     35                     36
                      A                      A                      A
 Frequencies --    933.7407               946.7926               952.5928
 Red. masses --      2.9988                 1.6742                 1.4310
 Frc consts  --      1.5404                 0.8843                 0.7651
 IR Inten    --      1.6174                 7.1659                31.4495

                     37                     38                     39
                      A                      A                      A
 Frequencies --   1005.4748              1019.5613              1028.4079
 Red. masses --      2.2626                 1.4459                 3.3544
 Frc consts  --      1.3477                 0.8856                 2.0902
 IR Inten    --      4.0264                 2.8893                15.2971

                     40                     41                     42
                      A                      A                      A
 Frequencies --   1044.9741              1047.2148              1071.2347
 Red. masses --      1.2089                 2.3496                 1.3221
 Frc consts  --      0.7778                 1.5182                 0.8939
 IR Inten    --      8.9394                19.3735                 1.6265

                     43                     44                     45
                      A                      A                      A
 Frequencies --   1075.6857              1106.0923              1124.4718
 Red. masses --      1.9943                 2.5644                 1.5404
 Frc consts  --      1.3596                 1.8485                 1.1476
 IR Inten    --      7.0735                53.7825                 8.0502

                     46                     47                     48
                      A                      A                      A
 Frequencies --   1135.1995              1168.1229              1198.7275
 Red. masses --      1.7234                 1.3110                 2.3418
 Frc consts  --      1.3085                 1.0540                 1.9826
 IR Inten    --     10.5129                 8.7110                 6.2839

                     49                     50                     51
                      A                      A                      A
 Frequencies --   1223.0602              1238.0631              1249.0644
 Red. masses --      1.3982                 1.5344                 1.3171
 Frc consts  --      1.2323                 1.3857                 1.2107
 IR Inten    --      5.4188                 9.4124                44.1690

                     52                     53                     54
                      A                      A                      A
 Frequencies --   1269.1686              1281.8311              1308.6714
 Red. masses --      1.2805                 1.3333                 1.2276
 Frc consts  --      1.2153                 1.2908                 1.2387
 IR Inten    --      6.6028                 4.8512                 8.4075

                     55                     56                     57
                      A                      A                      A
 Frequencies --   1312.3693              1329.2173              1333.1936
 Red. masses --      1.1827                 1.2352                 1.2846
 Frc consts  --      1.2002                 1.2858                 1.3453
 IR Inten    --      4.3135                 3.1326                 8.2221

                     58                     59                     60
                      A                      A                      A
 Frequencies --   1358.3334              1385.5423              1416.7383
 Red. masses --      1.4815                 1.5634                 1.4420
 Frc consts  --      1.6106                 1.7683                 1.7053
 IR Inten    --      7.3457                23.3893                59.2288

                     61                     62                     63
                      A                      A                      A
 Frequencies --   1417.1398              1456.0079              1464.6198
 Red. masses --      1.5418                 1.1699                 1.0847
 Frc consts  --      1.8243                 1.4613                 1.3709
 IR Inten    --     23.9895                 1.3299                 7.3378

                     64                     65                     66
                      A                      A                      A
 Frequencies --   1466.7251              1486.4705              1491.9795
 Red. masses --      1.0920                 1.0997                 1.1087
 Frc consts  --      1.3841                 1.4316                 1.4541
 IR Inten    --      1.9834                 1.9141                 3.4260

                     67                     68                     69
                      A                      A                      A
 Frequencies --   1636.3567              1715.2611              1719.0352
 Red. masses --      6.2888                 7.9921                 4.8393
 Frc consts  --      9.9215                13.8538                 8.4256
 IR Inten    --      1.9600                10.5284                13.1975

                     70                     71                     72
                      A                      A                      A
 Frequencies --   1728.4695              2977.2667              3001.6431
 Red. masses --      8.7767                 1.0693                 1.0629
 Frc consts  --     15.4492                 5.5844                 5.6422
 IR Inten    --     41.9612                26.3936                12.1914

                     73                     74                     75
                      A                      A                      A
 Frequencies --   3017.4407              3027.7812              3047.5511
 Red. masses --      1.0674                 1.0792                 1.0935
 Frc consts  --      5.7263                 5.8292                 5.9837
 IR Inten    --      6.7858                31.1669                 1.5920

                     76                     77                     78
                      A                      A                      A
 Frequencies --   3048.3262              3066.4646              3071.5883
 Red. masses --      1.0615                 1.0982                 1.0890
 Frc consts  --      5.8118                 6.0845                 6.0533
 IR Inten    --     11.4190                18.2818                 5.8455

                     79                     80                     81
                      A                      A                      A
 Frequencies --   3093.1183              3129.5530              3143.1175
 Red. masses --      1.1014                 1.0791                 1.0712
 Frc consts  --      6.2084                 6.2269                 6.2353
 IR Inten    --     27.8094                19.6237                 4.1397

                     82                     83                     84
                      A                      A                      A
 Frequencies --   3203.1300              3222.7712              3224.3693
 Red. masses --      1.0818                 1.0993                 1.1141
 Frc consts  --      6.5396                 6.7268                 6.8246
 IR Inten    --     11.4940                14.7267                15.4929

                     85                     86                     87
                      A                      A                      A
 Frequencies --   3243.2159              3440.3237              3785.7599
 Red. masses --      1.1182                 1.0736                 1.0660
 Frc consts  --      6.9297                 7.4867                 9.0011
 IR Inten    --     12.0115                 3.7550                18.0146

 - Thermochemistry -
 -------------------
 Temperature   298.150 Kelvin.  Pressure   1.00000 Atm.
 Atom     1 has atomic number  6 and mass  12.00000

 Molecular mass:   191.13101 amu.
 Principal axes and moments of inertia in atomic units:
                           1         2         3
     Eigenvalues --   782.154749020.914579336.26264
           X            0.99999   0.00204   0.00254
           Y           -0.00209   0.99983   0.01829
           Z           -0.00250  -0.01830   0.99983
 This molecule is an asymmetric top.
 Rotational symmetry number  1.
 Warning -- assumption of classical behavior for rotation
           may cause significant error
 Rotational temperatures (Kelvin)      0.11074     0.00960     0.00928
 Rotational constants (GHZ):           2.30740     0.20006     0.19330
 Zero-point vibrational energy     689420.3 (Joules/Mol)
                                  164.77541 (Kcal/Mol)
 Warning -- explicit consideration of  22 degrees of freedom as
           vibrations may cause significant error
 Vibrational temperatures:     20.64    58.23    68.71    78.71    93.39
          (Kelvin)            119.75   140.41   172.66   216.59   290.39
                              334.41   370.04   418.61   471.49   480.56
                              550.02   584.54   629.80   749.46   814.30
                              831.64   854.92   904.81   944.54   980.98
                             1040.65  1108.36  1123.39  1142.62  1209.54
                             1234.78  1313.11  1327.54  1343.44  1362.22
                             1370.57  1446.65  1466.92  1479.65  1503.48
                             1506.71  1541.27  1547.67  1591.42  1617.86
                             1633.30  1680.67  1724.70  1759.71  1781.30
                             1797.13  1826.05  1844.27  1882.89  1888.21
                             1912.45  1918.17  1954.34  1993.49  2038.37
                             2038.95  2094.87  2107.26  2110.29  2138.70
                             2146.63  2354.35  2467.88  2473.31  2486.88
                             4283.62  4318.69  4341.42  4356.30  4384.75
                             4385.86  4411.96  4419.33  4450.31  4502.73
                             4522.25  4608.59  4636.85  4639.15  4666.26
                             4949.86  5446.86

 Zero-point correction=                           0.262586 (Hartree/Particle)
 Thermal correction to Energy=                    0.278494
 Thermal correction to Enthalpy=                  0.279438
 Thermal correction to Gibbs Free Energy=         0.216525
 Sum of electronic and zero-point Energies=           -597.084720
 Sum of electronic and thermal Energies=              -597.068813
 Sum of electronic and thermal Enthalpies=            -597.067869
 Sum of electronic and thermal Free Energies=         -597.130782

                     E (Thermal)             CV                S
                      KCal/Mol        Cal/Mol-Kelvin    Cal/Mol-Kelvin
 Total                  174.758             57.661            132.412
 Electronic               0.000              0.000              0.000
 Translational            0.889              2.981             41.649
 Rotational               0.889              2.981             32.555
 Vibrational            172.980             51.699             58.208
 Vibration     1          0.593              1.986              7.294
 Vibration     2          0.594              1.981              5.236
 Vibration     3          0.595              1.978              4.908
 Vibration     4          0.596              1.976              4.640
 Vibration     5          0.597              1.971              4.302
 Vibration     6          0.600              1.961              3.813
 Vibration     7          0.603              1.951              3.502
 Vibration     8          0.609              1.933              3.100
 Vibration     9          0.618              1.902              2.665
 Vibration    10          0.639              1.837              2.116
 Vibration    11          0.653              1.791              1.860
 Vibration    12          0.667              1.751              1.681
 Vibration    13          0.687              1.691              1.468
 Vibration    14          0.711              1.620              1.271
 Vibration    15          0.716              1.608              1.241
 Vibration    16          0.752              1.508              1.030
 Vibration    17          0.771              1.457              0.940
 Vibration    18          0.798              1.388              0.834
 Vibration    19          0.876              1.204              0.608
 Vibration    20          0.922              1.105              0.512
 Vibration    21          0.935              1.079              0.489
 Vibration    22          0.952              1.044              0.460

 Optimization completed.
    -- Stationary point found.
 Normal termination of Gaussian 16 at Sun May 28 14:35:43 2023.
