 Gaussian 16, Revision A.03,
 Gaussian 16:  ES64L-G16RevA.03 25-Dec-2016

 -----------------------------
 # opt freq b3lyp/6-31g(2df,p)
 -----------------------------

 -------------------
 Title Card Required
 -------------------
 Symbolic Z-matrix:
 Charge =  0 Multiplicity = 1

 SCF Done:  E(RB3LYP) =  -545.746525849     A.U. after   12 cycles
 SCF Done:  E(RB3LYP) =  -545.756468823     A.U. after   11 cycles
 SCF Done:  E(RB3LYP) =  -545.759850444     A.U. after   11 cycles
 SCF Done:  E(RB3LYP) =  -545.761846653     A.U. after   11 cycles
 SCF Done:  E(RB3LYP) =  -545.763948946     A.U. after   12 cycles
 SCF Done:  E(RB3LYP) =  -545.764699845     A.U. after   11 cycles
 SCF Done:  E(RB3LYP) =  -545.765190805     A.U. after   11 cycles
 SCF Done:  E(RB3LYP) =  -545.765290918     A.U. after   10 cycles
 SCF Done:  E(RB3LYP) =  -545.765341039     A.U. after   10 cycles
 SCF Done:  E(RB3LYP) =  -545.765359210     A.U. after    9 cycles
 SCF Done:  E(RB3LYP) =  -545.763320258     A.U. after   11 cycles
 SCF Done:  E(RB3LYP) =  -545.767407138     A.U. after   10 cycles
 SCF Done:  E(RB3LYP) =  -545.767516017     A.U. after   10 cycles
 SCF Done:  E(RB3LYP) =  -545.767561429     A.U. after   10 cycles
 SCF Done:  E(RB3LYP) =  -545.767584077     A.U. after    9 cycles
 SCF Done:  E(RB3LYP) =  -545.767591994     A.U. after    9 cycles
 SCF Done:  E(RB3LYP) =  -545.767594945     A.U. after    9 cycles
 SCF Done:  E(RB3LYP) =  -545.767595075     A.U. after    6 cycles
 SCF Done:  E(RB3LYP) =  -545.767595093     A.U. after    5 cycles
 Optimization completed.
    -- Stationary point found.
 Normal termination of Gaussian 16 at Wed May 24 19:30:44 2023.

 ----------------------------------------------------------------------
 #N Geom=AllCheck Guess=TCheck SCRF=Check GenChk RB3LYP/6-31G(2df,p) Fr
 eq
 ----------------------------------------------------------------------

 Structure from the checkpoint file:  "CdCCqCCrOCC1CCCqCrC1.chk"
 -------------------
 Title Card Required
 -------------------
 Charge =  0 Multiplicity = 1

                         Standard orientation:
 ---------------------------------------------------------------------
 Center     Atomic      Atomic             Coordinates (Angstroms)
 Number     Number       Type             X           Y           Z
 ---------------------------------------------------------------------
      1          6           0       -2.771356   -2.220908   -0.963392
      2          6           0       -2.532208   -1.486577    0.117065
      3          6           0       -2.099083   -0.047059    0.112031
      4          6           0       -3.200606    0.900922    0.623047
      5          6           0       -4.415499    0.996469   -0.303021
      6          8           0       -0.956789    0.042729    0.968433
      7          6           0        0.020559    0.993105    0.583035
      8          6           0        1.017396    0.454932   -0.451071
      9          6           0        2.074505    1.538030   -0.824113
     10          6           0        3.440472    0.835788   -0.722064
     11          6           0        3.239228   -0.205044    0.392753
     12          6           0        4.329099   -1.270526    0.483861
     13          6           0        1.832822   -0.753185    0.082434
     14          1           0       -3.096524   -3.253682   -0.893680
     15          1           0       -2.650808   -1.819069   -1.965704
     16          1           0       -2.652115   -1.914670    1.111245
     17          1           0       -1.828668    0.240749   -0.915117
     18          1           0       -2.755051    1.894402    0.754515
     19          1           0       -3.504153    0.564266    1.621659
     20          1           0       -4.131043    1.368301   -1.294120
     21          1           0       -5.164697    1.681741    0.104620
     22          1           0       -4.889325    0.020138   -0.440750
     23          1           0        0.557720    1.260894    1.501957
     24          1           0       -0.451796    1.914379    0.207158
     25          1           0        0.452985    0.158120   -1.341237
     26          1           0        2.029678    2.363818   -0.101690
     27          1           0        1.894762    1.977482   -1.809171
     28          1           0        4.264539    1.528777   -0.524370
     29          1           0        3.672543    0.316662   -1.661898
     30          1           0        3.198175    0.333554    1.351273
     31          1           0        4.408644   -1.828065   -0.457141
     32          1           0        4.116909   -1.992438    1.279783
     33          1           0        5.308686   -0.826175    0.691285
     34          1           0        1.347876   -1.221571    0.943368
     35          1           0        1.913997   -1.525121   -0.692839
 ---------------------------------------------------------------------

 SCF Done:  E(RB3LYP) =  -545.767595093     A.U. after    1 cycles

 The electronic state is 1-A.
 Alpha  occ. eigenvalues --  -19.13041 -10.22968 -10.21971 -10.18272 -10.17704
 Alpha  occ. eigenvalues --  -10.17700 -10.17700 -10.17648 -10.17447 -10.17160
 Alpha  occ. eigenvalues --  -10.17115 -10.16710 -10.16457  -1.02219  -0.83465
 Alpha  occ. eigenvalues --   -0.79937  -0.74944  -0.74859  -0.71175  -0.68136
 Alpha  occ. eigenvalues --   -0.65684  -0.62046  -0.59287  -0.56095  -0.55482
 Alpha  occ. eigenvalues --   -0.53876  -0.48755  -0.48106  -0.47059  -0.45503
 Alpha  occ. eigenvalues --   -0.44438  -0.42453  -0.42127  -0.41545  -0.40335
 Alpha  occ. eigenvalues --   -0.39776  -0.38589  -0.37624  -0.36303  -0.35291
 Alpha  occ. eigenvalues --   -0.35094  -0.33663  -0.32995  -0.32606  -0.32138
 Alpha  occ. eigenvalues --   -0.31694  -0.30806  -0.30529  -0.29218  -0.26044
 Alpha  occ. eigenvalues --   -0.24161
 Alpha virt. eigenvalues --    0.01682   0.08174   0.09200   0.10581   0.11400
 Alpha virt. eigenvalues --    0.11515   0.12205   0.13136   0.14521   0.14882
 Alpha virt. eigenvalues --    0.15694   0.15995   0.16357   0.16538   0.17232

 Mulliken charges:
               1
     1  C   -0.331629
     2  C    0.040551
     3  C    0.073956
     4  C   -0.183734
     5  C   -0.385866
     6  O   -0.264195
     7  C   -0.095622
     8  C    0.021192
     9  C   -0.243901
    10  C   -0.197903
    11  C    0.057506
    12  C   -0.407103
    13  C   -0.214994
    14  H    0.113197
    15  H    0.103031
    16  H    0.096342
    17  H    0.066860
    18  H    0.097819
    19  H    0.101130
    20  H    0.110820
    21  H    0.113652
    22  H    0.124679
    23  H    0.099204
    24  H    0.085036
    25  H    0.066015
    26  H    0.092998
    27  H    0.093322
    28  H    0.088509
    29  H    0.090434
    30  H    0.066163
    31  H    0.109555
    32  H    0.111775
    33  H    0.108326
    34  H    0.106124
    35  H    0.086751
 Sum of Mulliken charges =   0.00000

 Dipole moment (field-independent basis, Debye):
    X=             -0.1009    Y=              0.6110    Z=             -0.7316  Tot=              0.9585
 Quadrupole moment (field-independent basis, Debye-Ang):
   XX=            -82.4002   YY=            -81.5458   ZZ=            -82.3967
   XY=              0.9252   XZ=              0.6430   YZ=              0.5268

  Exact polarizability: 150.047   2.235 130.715   3.179   4.475 116.694
 Approx polarizability: 174.686   7.348 185.861   4.476  10.740 189.924

                      1                      2                      3
                      A                      A                      A
 Frequencies --     23.8467                26.2965                39.3717
 Red. masses --      3.1369                 3.7658                 2.8316
 Frc consts  --      0.0011                 0.0015                 0.0026
 IR Inten    --      0.0276                 0.1574                 0.0578

                      4                      5                      6
                      A                      A                      A
 Frequencies --     65.9750                92.7809               112.3703
 Red. masses --      3.0213                 2.2330                 2.3339
 Frc consts  --      0.0077                 0.0113                 0.0174
 IR Inten    --      0.0983                 0.0268                 0.4166

                      7                      8                      9
                      A                      A                      A
 Frequencies --    149.0507               183.7495               216.0302
 Red. masses --      2.4984                 2.1032                 1.8640
 Frc consts  --      0.0327                 0.0418                 0.0513
 IR Inten    --      0.3721                 0.3116                 0.7094

                     10                     11                     12
                      A                      A                      A
 Frequencies --    223.6158               236.2478               263.2332
 Red. masses --      1.5384                 1.0449                 2.1532
 Frc consts  --      0.0453                 0.0344                 0.0879
 IR Inten    --      0.2062                 0.0023                 0.4992

                     13                     14                     15
                      A                      A                      A
 Frequencies --    306.8224               320.5308               345.8717
 Red. masses --      2.2536                 2.8449                 2.2105
 Frc consts  --      0.1250                 0.1722                 0.1558
 IR Inten    --      0.4426                 2.3615                 1.1108

                     16                     17                     18
                      A                      A                      A
 Frequencies --    393.6597               425.7998               435.7265
 Red. masses --      2.3292                 2.0873                 2.1403
 Frc consts  --      0.2127                 0.2230                 0.2394
 IR Inten    --      0.0158                 2.3363                 1.9516

                     19                     20                     21
                      A                      A                      A
 Frequencies --    478.6461               539.4263               542.8395
 Red. masses --      2.9437                 3.8027                 3.1869
 Frc consts  --      0.3973                 0.6519                 0.5533
 IR Inten    --      6.0783                 2.0110                 1.8901

                     22                     23                     24
                      A                      A                      A
 Frequencies --    630.3539               691.7440               773.6090
 Red. masses --      2.3955                 1.7475                 1.3007
 Frc consts  --      0.5608                 0.4927                 0.4586
 IR Inten    --      2.2387                 3.2834                 3.0942

                     25                     26                     27
                      A                      A                      A
 Frequencies --    815.6718               825.1365               860.8458
 Red. masses --      1.9776                 2.4555                 2.0972
 Frc consts  --      0.7752                 0.9850                 0.9157
 IR Inten    --      0.4047                 2.7814                 1.9676

                     28                     29                     30
                      A                      A                      A
 Frequencies --    870.2491               896.9488               922.2568
 Red. masses --      1.6280                 1.6179                 1.7754
 Frc consts  --      0.7264                 0.7669                 0.8897
 IR Inten    --      1.0798                 5.1619                 1.3616

                     31                     32                     33
                      A                      A                      A
 Frequencies --    938.5072               950.2686               955.1754
 Red. masses --      1.6845                 1.5709                 1.3536
 Frc consts  --      0.8741                 0.8358                 0.7276
 IR Inten    --      1.2969                 6.3655                33.7350

                     34                     35                     36
                      A                      A                      A
 Frequencies --    964.1668               974.4813              1007.5263
 Red. masses --      1.9557                 2.1428                 1.6596
 Frc consts  --      1.0711                 1.1989                 0.9926
 IR Inten    --      2.1809                18.1949                 2.7095

                     37                     38                     39
                      A                      A                      A
 Frequencies --   1024.5355              1031.5026              1038.5636
 Red. masses --      1.6477                 1.7231                 1.1213
 Frc consts  --      1.0190                 1.0802                 0.7126
 IR Inten    --      0.6635                 2.0897                19.5354

                     40                     41                     42
                      A                      A                      A
 Frequencies --   1050.5940              1073.9910              1098.9065
 Red. masses --      1.6209                 2.1282                 2.1466
 Frc consts  --      1.0541                 1.4463                 1.5273
 IR Inten    --      0.2643                12.3122                 3.7397

                     43                     44                     45
                      A                      A                      A
 Frequencies --   1110.3256              1125.5589              1132.9375
 Red. masses --      5.1660                 2.3614                 2.3165
 Frc consts  --      3.7524                 1.7626                 1.7518
 IR Inten    --    250.9244                10.3710                 6.5217

                     46                     47                     48
                      A                      A                      A
 Frequencies --   1161.4913              1192.1346              1213.9919
 Red. masses --      2.2284                 1.8381                 1.8817
 Frc consts  --      1.7713                 1.5391                 1.6340
 IR Inten    --      2.7252                18.7085                 0.7110

                     49                     50                     51
                      A                      A                      A
 Frequencies --   1218.7343              1257.2257              1274.2800
 Red. masses --      1.4184                 1.4218                 1.2933
 Frc consts  --      1.2413                 1.3241                 1.2373
 IR Inten    --      1.3189                 3.4332                 0.9089

                     52                     53                     54
                      A                      A                      A
 Frequencies --   1276.5586              1299.4416              1309.1385
 Red. masses --      1.3053                 1.2894                 1.3568
 Frc consts  --      1.2533                 1.2828                 1.3700
 IR Inten    --     13.9610                 2.7986                 1.6333

                     55                     56                     57
                      A                      A                      A
 Frequencies --   1315.6600              1322.6455              1327.4099
 Red. masses --      1.2603                 1.2549                 1.2933
 Frc consts  --      1.2853                 1.2934                 1.3427
 IR Inten    --      0.5031                 8.5207                 4.3690

                     58                     59                     60
                      A                      A                      A
 Frequencies --   1340.1025              1348.4279              1357.8880
 Red. masses --      1.2378                 1.2822                 1.3640
 Frc consts  --      1.3097                 1.3736                 1.4818
 IR Inten    --      1.8565                 5.1871                 5.8639

                     61                     62                     63
                      A                      A                      A
 Frequencies --   1365.6145              1383.2719              1388.5252
 Red. masses --      1.3995                 1.2904                 1.5786
 Frc consts  --      1.5377                 1.4547                 1.7932
 IR Inten    --      8.6210                10.8437                 1.8356

                     64                     65                     66
                      A                      A                      A
 Frequencies --   1406.3174              1411.2969              1411.3536
 Red. masses --      1.3041                 1.2368                 1.2396
 Frc consts  --      1.5196                 1.4514                 1.4548
 IR Inten    --     18.6742                 2.1938                 1.2390

                     67                     68                     69
                      A                      A                      A
 Frequencies --   1462.8044              1484.8367              1487.2047
 Red. masses --      1.1987                 1.0821                 1.0826
 Frc consts  --      1.5113                 1.4057                 1.4107
 IR Inten    --      8.9871                 1.2257                 0.4735

                     70                     71                     72
                      A                      A                      A
 Frequencies --   1492.9634              1494.9471              1497.4984
 Red. masses --      1.0824                 1.0862                 1.0530
 Frc consts  --      1.4214                 1.4303                 1.3912
 IR Inten    --      2.1965                 0.6117                 2.0422

                     73                     74                     75
                      A                      A                      A
 Frequencies --   1498.4915              1499.6623              1508.6851
 Red. masses --      1.0402                 1.0515                 1.0634
 Frc consts  --      1.3762                 1.3934                 1.4261
 IR Inten    --      3.7308                 6.1484                 4.8811

                     76                     77                     78
                      A                      A                      A
 Frequencies --   1510.1523              1719.9185              2975.4257
 Red. masses --      1.0984                 4.9522                 1.0664
 Frc consts  --      1.4759                 8.6311                 5.5626
 IR Inten    --      1.2711                 2.1895                31.2383

                     79                     80                     81
                      A                      A                      A
 Frequencies --   2988.6255              2990.4373              3015.3641
 Red. masses --      1.0814                 1.0806                 1.0693
 Frc consts  --      5.6910                 5.6938                 5.7286
 IR Inten    --     10.7659                21.2251                24.6305

                     82                     83                     84
                      A                      A                      A
 Frequencies --   3020.2817              3021.5604              3026.6083
 Red. masses --      1.0616                 1.0464                 1.0665
 Frc consts  --      5.7059                 5.6289                 5.7561
 IR Inten    --     17.6719                18.4582                60.1460

                     85                     86                     87
                      A                      A                      A
 Frequencies --   3028.6049              3033.1641              3037.1325
 Red. masses --      1.0597                 1.0376                 1.0829
 Frc consts  --      5.7267                 5.6245                 5.8853
 IR Inten    --     20.4055                29.4114                14.2936

                     88                     89                     90
                      A                      A                      A
 Frequencies --   3052.9611              3064.7530              3075.0831
 Red. masses --      1.0912                 1.1013                 1.0957
 Frc consts  --      5.9921                 6.0945                 6.1044
 IR Inten    --     66.4899                14.9289                31.4078

                     91                     92                     93
                      A                      A                      A
 Frequencies --   3085.4401              3087.1582              3092.8412
 Red. masses --      1.0978                 1.0988                 1.1006
 Frc consts  --      6.1577                 6.1699                 6.2026
 IR Inten    --     16.8102                42.0496                28.8405

                     94                     95                     96
                      A                      A                      A
 Frequencies --   3093.8188              3098.8292              3113.3801
 Red. masses --      1.0988                 1.1001                 1.1015
 Frc consts  --      6.1965                 6.2240                 6.2908
 IR Inten    --     56.1359                42.7601                27.8328

                     97                     98                     99
                      A                      A                      A
 Frequencies --   3136.7761              3147.7361              3221.5619
 Red. masses --      1.0616                 1.0888                 1.1143
 Frc consts  --      6.1543                 6.3562                 6.8135
 IR Inten    --     12.8984                 3.6922                15.2286

 - Thermochemistry -
 -------------------
 Temperature   298.150 Kelvin.  Pressure   1.00000 Atm.
 Atom     1 has atomic number  6 and mass  12.00000

 Molecular mass:   182.16707 amu.
 Principal axes and moments of inertia in atomic units:
                           1         2         3
     Eigenvalues --  1166.647305404.249065958.11567
           X            0.99996  -0.00844   0.00387
           Y            0.00844   0.99996  -0.00114
           Z           -0.00386   0.00117   0.99999
 This molecule is an asymmetric top.
 Rotational symmetry number  1.
 Warning -- assumption of classical behavior for rotation
           may cause significant error
 Rotational temperatures (Kelvin)      0.07424     0.01603     0.01454
 Rotational constants (GHZ):           1.54695     0.33395     0.30290
 Zero-point vibrational energy     836380.9 (Joules/Mol)
                                  199.89983 (Kcal/Mol)
 Warning -- explicit consideration of  21 degrees of freedom as
           vibrations may cause significant error
 Vibrational temperatures:     34.31    37.83    56.65    94.92   133.49
          (Kelvin)            161.68   214.45   264.37   310.82   321.73
                              339.91   378.73   441.45   461.17   497.63
                              566.39   612.63   626.91   688.67   776.11
                              781.03   906.94   995.27  1113.05  1173.57
                             1187.19  1238.57  1252.09  1290.51  1326.92
                             1350.30  1367.22  1374.28  1387.22  1402.06
                             1449.61  1474.08  1484.10  1494.26  1511.57
                             1545.23  1581.08  1597.51  1619.43  1630.04
                             1671.13  1715.22  1746.66  1753.49  1808.87
                             1833.40  1836.68  1869.61  1883.56  1892.94
                             1902.99  1909.85  1928.11  1940.09  1953.70
                             1964.81  1990.22  1997.78  2023.38  2030.54
                             2030.62  2104.65  2136.35  2139.76  2148.04
                             2150.90  2154.57  2156.00  2157.68  2170.66
                             2172.77  2474.58  4280.97  4299.97  4302.57
                             4338.44  4345.51  4347.35  4354.61  4357.49
                             4364.05  4369.76  4392.53  4409.50  4424.36
                             4439.26  4441.73  4449.91  4451.32  4458.52
                             4479.46  4513.12  4528.89  4635.11

 Zero-point correction=                           0.318561 (Hartree/Particle)
 Thermal correction to Energy=                    0.333743
 Thermal correction to Enthalpy=                  0.334687
 Thermal correction to Gibbs Free Energy=         0.274378
 Sum of electronic and zero-point Energies=           -545.449034
 Sum of electronic and thermal Energies=              -545.433852
 Sum of electronic and thermal Enthalpies=            -545.432908
 Sum of electronic and thermal Free Energies=         -545.493217

                     E (Thermal)             CV                S
                      KCal/Mol        Cal/Mol-Kelvin    Cal/Mol-Kelvin
 Total                  209.427             56.377            126.930
 Electronic               0.000              0.000              0.000
 Translational            0.889              2.981             41.506
 Rotational               0.889              2.981             31.996
 Vibrational            207.649             50.415             53.427
 Vibration     1          0.593              1.985              6.285
 Vibration     2          0.593              1.985              6.091
 Vibration     3          0.594              1.981              5.290
 Vibration     4          0.597              1.971              4.270
 Vibration     5          0.602              1.954              3.601
 Vibration     6          0.607              1.939              3.228
 Vibration     7          0.618              1.904              2.684
 Vibration     8          0.631              1.862              2.290
 Vibration     9          0.645              1.817              1.992
 Vibration    10          0.649              1.805              1.930
 Vibration    11          0.655              1.785              1.831
 Vibration    12          0.670              1.740              1.640
 Vibration    13          0.697              1.661              1.379
 Vibration    14          0.706              1.634              1.307
 Vibration    15          0.724              1.584              1.185
 Vibration    16          0.761              1.484              0.986
 Vibration    17          0.788              1.414              0.872
 Vibration    18          0.796              1.392              0.840
 Vibration    19          0.835              1.297              0.714
 Vibration    20          0.894              1.163              0.567
 Vibration    21          0.898              1.155              0.559

 Optimization completed.
    -- Stationary point found.
 Normal termination of Gaussian 16 at Wed May 24 21:34:22 2023.
