 Gaussian 16, Revision A.03,
 Gaussian 16:  ES64L-G16RevA.03 25-Dec-2016

 -----------------------------
 # opt freq b3lyp/6-31g(2df,p)
 -----------------------------

 -------------------
 Title Card Required
 -------------------
 Symbolic Z-matrix:
 Charge =  0 Multiplicity = 1

 SCF Done:  E(RB3LYP) =  -629.016984603     A.U. after   12 cycles
 SCF Done:  E(RB3LYP) =  -629.028447959     A.U. after   11 cycles
 SCF Done:  E(RB3LYP) =  -629.029720128     A.U. after   10 cycles
 SCF Done:  E(RB3LYP) =  -629.029900297     A.U. after    9 cycles
 SCF Done:  E(RB3LYP) =  -629.029920105     A.U. after    8 cycles
 SCF Done:  E(RB3LYP) =  -629.029926315     A.U. after    7 cycles
 SCF Done:  E(RB3LYP) =  -629.029927006     A.U. after    6 cycles
 SCF Done:  E(RB3LYP) =  -629.029927143     A.U. after    6 cycles
 SCF Done:  E(RB3LYP) =  -629.029927239     A.U. after    6 cycles
 SCF Done:  E(RB3LYP) =  -629.029927577     A.U. after    7 cycles
 SCF Done:  E(RB3LYP) =  -629.032720467     A.U. after    6 cycles
 SCF Done:  E(RB3LYP) =  -629.032942113     A.U. after   10 cycles
 SCF Done:  E(RB3LYP) =  -629.033181779     A.U. after    9 cycles
 SCF Done:  E(RB3LYP) =  -629.033270753     A.U. after    9 cycles
 SCF Done:  E(RB3LYP) =  -629.033282812     A.U. after    8 cycles
 SCF Done:  E(RB3LYP) =  -629.033285267     A.U. after    8 cycles
 SCF Done:  E(RB3LYP) =  -629.033286004     A.U. after    7 cycles
 SCF Done:  E(RB3LYP) =  -629.033286213     A.U. after    7 cycles
 SCF Done:  E(RB3LYP) =  -629.033286278     A.U. after    6 cycles
 Optimization completed.
    -- Stationary point found.
 Normal termination of Gaussian 16 at Tue May 23 00:37:43 2023.

 ----------------------------------------------------------------------
 #N Geom=AllCheck Guess=TCheck SCRF=Check GenChk RB3LYP/6-31G(2df,p) Fr
 eq
 ----------------------------------------------------------------------

 Structure from the checkpoint file:  "CdCCCCCqCrCCCCCCqCrCC.chk"
 -------------------
 Title Card Required
 -------------------
 Charge =  0 Multiplicity = 1

                         Standard orientation:
 ---------------------------------------------------------------------
 Center     Atomic      Atomic             Coordinates (Angstroms)
 Number     Number       Type             X           Y           Z
 ---------------------------------------------------------------------
      1          6           0       -8.179350   -1.204346   -0.814378
      2          6           0       -7.401203   -0.334271   -0.178286
      3          6           0       -6.075704   -0.648577    0.453576
      4          6           0       -4.913719    0.157563   -0.156242
      5          6           0       -3.571747   -0.129599    0.527651
      6          6           0       -2.346941    0.560619   -0.104366
      7          6           0       -2.436096    2.090824   -0.002401
      8          6           0       -1.051672    0.016582    0.530198
      9          6           0        0.250869    0.452165   -0.152417
     10          6           0        1.495394   -0.206113    0.454860
     11          6           0        2.804656    0.220741   -0.219296
     12          6           0        4.041700   -0.443433    0.397772
     13          6           0        5.378576   -0.137982   -0.305347
     14          6           0        5.744663    1.351293   -0.220136
     15          6           0        6.492688   -1.035622    0.268277
     16          6           0        7.825845   -0.979105   -0.484929
     17          1           0       -9.125746   -0.911650   -1.256926
     18          1           0       -7.901527   -2.250271   -0.914367
     19          1           0       -7.720812    0.705799   -0.104527
     20          1           0       -5.868836   -1.722241    0.365004
     21          1           0       -6.123887   -0.428299    1.530393
     22          1           0       -5.153410    1.225963   -0.092285
     23          1           0       -4.840858   -0.076149   -1.226560
     24          1           0       -3.402207   -1.214983    0.517973
     25          1           0       -3.636355    0.154670    1.588360
     26          1           0       -2.330474    0.292194   -1.172014
     27          1           0       -2.457493    2.408612    1.047608
     28          1           0       -3.337979    2.477641   -0.485094
     29          1           0       -1.581496    2.578507   -0.479463
     30          1           0       -1.096365   -1.081136    0.523590
     31          1           0       -1.022006    0.309046    1.590198
     32          1           0        0.363006    1.542082   -0.095240
     33          1           0        0.198161    0.207925   -1.223010
     34          1           0        1.394802   -1.298906    0.394617
     35          1           0        1.545021    0.032065    1.526751
     36          1           0        2.892797    1.312910   -0.162596
     37          1           0        2.757273   -0.024990   -1.289808
     38          1           0        3.888882   -1.531463    0.395528
     39          1           0        4.119596   -0.153935    1.456183
     40          1           0        5.260847   -0.397588   -1.369075
     41          1           0        5.869157    1.660499    0.825285
     42          1           0        4.971705    1.984932   -0.663919
     43          1           0        6.679563    1.568928   -0.744236
     44          1           0        6.134142   -2.073052    0.270784
     45          1           0        6.656014   -0.771199    1.322633
     46          1           0        7.691469   -1.224999   -1.544635
     47          1           0        8.540116   -1.695993   -0.067479
     48          1           0        8.289155    0.010650   -0.430891
 ---------------------------------------------------------------------

 SCF Done:  E(RB3LYP) =  -629.033286278     A.U. after    1 cycles

 The electronic state is 1-A.
 Alpha  occ. eigenvalues --  -10.18094 -10.18083 -10.18016 -10.17920 -10.17649
 Alpha  occ. eigenvalues --  -10.17308 -10.17284 -10.17260 -10.17224 -10.17186
 Alpha  occ. eigenvalues --  -10.17136 -10.17046 -10.16949 -10.16855 -10.16746
 Alpha  occ. eigenvalues --  -10.16627  -0.81821  -0.81079  -0.79439  -0.77587
 Alpha  occ. eigenvalues --   -0.74368  -0.72613  -0.70515  -0.67279  -0.66602
 Alpha  occ. eigenvalues --   -0.63544  -0.60532  -0.57871  -0.56921  -0.55447
 Alpha  occ. eigenvalues --   -0.54874  -0.54446  -0.47656  -0.47057  -0.45926
 Alpha  occ. eigenvalues --   -0.45322  -0.44791  -0.43262  -0.42704  -0.42235
 Alpha  occ. eigenvalues --   -0.41706  -0.41041  -0.39732  -0.38714  -0.38148
 Alpha  occ. eigenvalues --   -0.37737  -0.37453  -0.36420  -0.36072  -0.35676
 Alpha  occ. eigenvalues --   -0.34792  -0.34194  -0.33546  -0.33471  -0.32595
 Alpha  occ. eigenvalues --   -0.32259  -0.31808  -0.31471  -0.31220  -0.31054
 Alpha  occ. eigenvalues --   -0.30822  -0.30552  -0.28517  -0.24929
 Alpha virt. eigenvalues --    0.02613   0.08433   0.08665   0.10325   0.10753
 Alpha virt. eigenvalues --    0.11242   0.11309   0.11774   0.12148   0.12839
 Alpha virt. eigenvalues --    0.13435   0.13987   0.14660   0.14756   0.15518

 Mulliken charges:
               1
     1  C   -0.319484
     2  C    0.032936
     3  C   -0.228114
     4  C   -0.185979
     5  C   -0.179294
     6  C    0.021966
     7  C   -0.390344
     8  C   -0.180027
     9  C   -0.196050
    10  C   -0.175656
    11  C   -0.195706
    12  C   -0.178691
    13  C    0.044734
    14  C   -0.389434
    15  C   -0.164668
    16  C   -0.391583
    17  H    0.107924
    18  H    0.099882
    19  H    0.083230
    20  H    0.095952
    21  H    0.101699
    22  H    0.096979
    23  H    0.098301
    24  H    0.087783
    25  H    0.088190
    26  H    0.066256
    27  H    0.108170
    28  H    0.113505
    29  H    0.114536
    30  H    0.086426
    31  H    0.087657
    32  H    0.095252
    33  H    0.089546
    34  H    0.090017
    35  H    0.090858
    36  H    0.095045
    37  H    0.089283
    38  H    0.085846
    39  H    0.087248
    40  H    0.064294
    41  H    0.108100
    42  H    0.113783
    43  H    0.112180
    44  H    0.088941
    45  H    0.089761
    46  H    0.111444
    47  H    0.110168
    48  H    0.117138
 Sum of Mulliken charges =  -0.00000

 Dipole moment (field-independent basis, Debye):
    X=              0.3665    Y=              0.1011    Z=              0.0846  Tot=              0.3895
 Quadrupole moment (field-independent basis, Debye-Ang):
   XX=           -112.1382   YY=           -105.4080   ZZ=           -106.4776
   XY=             -1.7136   XZ=             -0.0170   YZ=              1.1179

  Exact polarizability: 236.609   4.516 160.620   8.061   3.100 144.354
 Approx polarizability: 248.766   8.192 243.658  12.205  10.096 232.130

                      1                      2                      3
                      A                      A                      A
 Frequencies --     17.2378                20.0304                33.9147
 Red. masses --      3.6354                 2.5087                 3.0151
 Frc consts  --      0.0006                 0.0006                 0.0020
 IR Inten    --      0.0126                 0.0106                 0.0013

                      4                      5                      6
                      A                      A                      A
 Frequencies --     41.2594                51.8415                72.1970
 Red. masses --      3.0099                 2.2369                 2.0044
 Frc consts  --      0.0030                 0.0035                 0.0062
 IR Inten    --      0.0116                 0.0134                 0.0227

                      7                      8                      9
                      A                      A                      A
 Frequencies --     76.9855                80.6442                96.1186
 Red. masses --      2.2061                 2.9083                 2.1213
 Frc consts  --      0.0077                 0.0111                 0.0115
 IR Inten    --      0.0103                 0.0057                 0.0324

                     10                     11                     12
                      A                      A                      A
 Frequencies --    118.7538               125.7806               143.9919
 Red. masses --      2.6097                 1.9327                 1.9763
 Frc consts  --      0.0217                 0.0180                 0.0241
 IR Inten    --      0.0517                 0.0143                 0.0011

                     13                     14                     15
                      A                      A                      A
 Frequencies --    146.6084               159.3155               161.4315
 Red. masses --      1.9622                 3.5592                 2.6923
 Frc consts  --      0.0248                 0.0532                 0.0413
 IR Inten    --      0.0063                 0.0080                 0.0334

                     16                     17                     18
                      A                      A                      A
 Frequencies --    211.2945               237.0798               240.2205
 Red. masses --      1.0641                 2.2537                 1.3108
 Frc consts  --      0.0280                 0.0746                 0.0446
 IR Inten    --      0.0532                 0.0347                 0.0049

                     19                     20                     21
                      A                      A                      A
 Frequencies --    258.5173               282.1246               295.8175
 Red. masses --      1.2882                 2.8703                 2.3931
 Frc consts  --      0.0507                 0.1346                 0.1234
 IR Inten    --      0.0072                 0.0871                 0.0630

                     22                     23                     24
                      A                      A                      A
 Frequencies --    339.4067               358.8365               394.7677
 Red. masses --      2.7469                 2.6861                 2.2676
 Frc consts  --      0.1864                 0.2038                 0.2082
 IR Inten    --      0.0210                 0.0093                 0.2575

                     25                     26                     27
                      A                      A                      A
 Frequencies --    412.6719               432.0120               444.6296
 Red. masses --      1.9903                 2.0776                 2.3611
 Frc consts  --      0.1997                 0.2285                 0.2750
 IR Inten    --      0.2530                 0.9454                 0.2200

                     28                     29                     30
                      A                      A                      A
 Frequencies --    487.8685               509.4148               534.0418
 Red. masses --      2.3828                 2.7014                 2.5239
 Frc consts  --      0.3342                 0.4130                 0.4241
 IR Inten    --      0.3340                 0.5553                 0.6203

                     31                     32                     33
                      A                      A                      A
 Frequencies --    660.2857               731.9927               741.7893
 Red. masses --      1.5550                 1.0740                 1.1224
 Frc consts  --      0.3994                 0.3391                 0.3639
 IR Inten    --      8.0492                 2.1528                 2.4556

                     34                     35                     36
                      A                      A                      A
 Frequencies --    750.8449               773.7967               803.6558
 Red. masses --      1.1595                 1.3347                 1.5753
 Frc consts  --      0.3851                 0.4709                 0.5994
 IR Inten    --      0.9727                 2.1608                 0.3551

                     37                     38                     39
                      A                      A                      A
 Frequencies --    828.1082               835.4354               864.4068
 Red. masses --      1.6342                 1.5746                 1.6833
 Frc consts  --      0.6603                 0.6475                 0.7411
 IR Inten    --      0.1242                 0.3432                 0.0460

                     40                     41                     42
                      A                      A                      A
 Frequencies --    911.5777               917.0783               926.7226
 Red. masses --      2.1649                 1.3305                 2.0542
 Frc consts  --      1.0599                 0.6593                 1.0394
 IR Inten    --      1.0064                 2.2783                 0.2176

                     43                     44                     45
                      A                      A                      A
 Frequencies --    945.1414               955.0514               968.6448
 Red. masses --      1.3568                 1.8973                 1.2415
 Frc consts  --      0.7141                 1.0196                 0.6863
 IR Inten    --     32.1840                 0.5788                 0.4121

                     46                     47                     48
                      A                      A                      A
 Frequencies --    975.2157               996.0295              1007.1097
 Red. masses --      1.3376                 1.7455                 2.5070
 Frc consts  --      0.7495                 1.0203                 1.4982
 IR Inten    --      6.3078                 1.5446                 2.6542

                     49                     50                     51
                      A                      A                      A
 Frequencies --   1014.6180              1032.1533              1038.4386
 Red. masses --      2.0092                 2.3703                 1.5940
 Frc consts  --      1.2187                 1.4878                 1.0128
 IR Inten    --      0.8472                 0.1277                 3.9574

                     52                     53                     54
                      A                      A                      A
 Frequencies --   1040.6936              1044.6775              1055.6401
 Red. masses --      2.4457                 1.5657                 2.4528
 Frc consts  --      1.5607                 1.0068                 1.6105
 IR Inten    --      0.8891                 4.6547                 0.0974

                     55                     56                     57
                      A                      A                      A
 Frequencies --   1062.9587              1072.1708              1073.2376
 Red. masses --      1.3760                 2.3462                 2.4220
 Frc consts  --      0.9160                 1.5891                 1.6437
 IR Inten    --      2.1254                 0.0686                 0.0827

                     58                     59                     60
                      A                      A                      A
 Frequencies --   1079.7801              1121.8643              1156.1121
 Red. masses --      1.3708                 2.6129                 2.4744
 Frc consts  --      0.9417                 1.9375                 1.9486
 IR Inten    --      1.0716                 0.3132                 0.3033

                     61                     62                     63
                      A                      A                      A
 Frequencies --   1176.2772              1177.3584              1194.6770
 Red. masses --      1.8579                 1.7892                 2.0056
 Frc consts  --      1.5146                 1.4612                 1.6865
 IR Inten    --      0.5197                18.7262                 0.0568

                     64                     65                     66
                      A                      A                      A
 Frequencies --   1207.1162              1224.9771              1241.1676
 Red. masses --      1.8262                 1.5253                 1.3189
 Frc consts  --      1.5678                 1.3485                 1.1970
 IR Inten    --      1.7229                 0.1759                 2.1112

                     67                     68                     69
                      A                      A                      A
 Frequencies --   1256.2476              1271.1492              1290.6168
 Red. masses --      1.3257                 1.3512                 1.2619
 Frc consts  --      1.2327                 1.2863                 1.2384
 IR Inten    --      0.1402                 1.0739                 1.1249

                     70                     71                     72
                      A                      A                      A
 Frequencies --   1296.4533              1304.8334              1314.1289
 Red. masses --      1.2529                 1.2120                 1.2655
 Frc consts  --      1.2407                 1.2158                 1.2876
 IR Inten    --      0.9401                 2.1247                 0.4701

                     73                     74                     75
                      A                      A                      A
 Frequencies --   1318.7457              1325.2948              1331.8433
 Red. masses --      1.1292                 1.1513                 1.1056
 Frc consts  --      1.1571                 1.1914                 1.1554
 IR Inten    --      0.4211                 0.4177                 0.9949

                     76                     77                     78
                      A                      A                      A
 Frequencies --   1333.7285              1336.3933              1341.0928
 Red. masses --      1.1429                 1.1420                 1.2901
 Frc consts  --      1.1978                 1.2016                 1.3670
 IR Inten    --      0.3671                 0.1037                 0.6292

                     79                     80                     81
                      A                      A                      A
 Frequencies --   1363.1305              1377.0540              1380.5806
 Red. masses --      1.3714                 1.4184                 1.3276
 Frc consts  --      1.5014                 1.5848                 1.4909
 IR Inten    --      0.2619                 2.1018                 4.3615

                     82                     83                     84
                      A                      A                      A
 Frequencies --   1380.9327              1385.7047              1392.5759
 Red. masses --      1.3205                 1.5061                 1.5546
 Frc consts  --      1.4837                 1.7039                 1.7762
 IR Inten    --      0.1913                 0.3678                 0.1104

                     85                     86                     87
                      A                      A                      A
 Frequencies --   1398.5216              1401.2530              1411.9912
 Red. masses --      1.4771                 1.5256                 1.2929
 Frc consts  --      1.7022                 1.7649                 1.5188
 IR Inten    --      0.3255                 0.3021                 1.6257

                     88                     89                     90
                      A                      A                      A
 Frequencies --   1414.5230              1414.7144              1455.2892
 Red. masses --      1.2385                 1.2966                 1.1636
 Frc consts  --      1.4601                 1.5290                 1.4520
 IR Inten    --      1.9248                10.3353                 0.6712

                     91                     92                     93
                      A                      A                      A
 Frequencies --   1474.1794              1476.0368              1480.2577
 Red. masses --      1.0776                 1.0769                 1.1051
 Frc consts  --      1.3798                 1.3824                 1.4267
 IR Inten    --      0.6366                 0.0393                 1.9355

                     94                     95                     96
                      A                      A                      A
 Frequencies --   1483.5686              1485.0195              1487.6468
 Red. masses --      1.0741                 1.0805                 1.0772
 Frc consts  --      1.3928                 1.4039                 1.4046
 IR Inten    --      0.0156                 0.0683                 0.3836

                     97                     98                     99
                      A                      A                      A
 Frequencies --   1496.0909              1498.1839              1498.7882
 Red. masses --      1.0543                 1.0605                 1.0637
 Frc consts  --      1.3904                 1.4024                 1.4079
 IR Inten    --      3.7135                 1.4879                 0.1028

                    100                    101                    102
                      A                      A                      A
 Frequencies --   1499.1625              1504.3553              1507.4698
 Red. masses --      1.0747                 1.0889                 1.0684
 Frc consts  --      1.4232                 1.4519                 1.4305
 IR Inten    --      1.0528                 0.1422                 6.6676

                    103                    104                    105
                      A                      A                      A
 Frequencies --   1509.6747              1513.0990              1514.8526
 Red. masses --      1.0632                 1.0768                 1.0577
 Frc consts  --      1.4276                 1.4525                 1.4300
 IR Inten    --      2.4587                 3.6414                 8.1688

                    106                    107                    108
                      A                      A                      A
 Frequencies --   1717.8471              2979.7722              2982.1181
 Red. masses --      4.8464                 1.0804                 1.0799
 Frc consts  --      8.4263                 5.6520                 5.6583
 IR Inten    --     11.8356                 8.1185                 6.0794

                    109                    110                    111
                      A                      A                      A
 Frequencies --   2993.4036              2994.9229              2996.9644
 Red. masses --      1.0593                 1.0593                 1.0633
 Frc consts  --      5.5924                 5.5981                 5.6272
 IR Inten    --      0.3600                 2.8541                 6.0569

                    112                    113                    114
                      A                      A                      A
 Frequencies --   2999.7258              3000.7480              3005.6923
 Red. masses --      1.0594                 1.0602                 1.0621
 Frc consts  --      5.6168                 5.6248                 5.6534
 IR Inten    --      9.1905                18.2133                 7.7605

                    115                    116                    117
                      A                      A                      A
 Frequencies --   3008.8715              3013.7564              3021.5699
 Red. masses --      1.0615                 1.0683                 1.0601
 Frc consts  --      5.6619                 5.7166                 5.7024
 IR Inten    --      8.4413               118.7517                58.1969

                    118                    119                    120
                      A                      A                      A
 Frequencies --   3025.0214              3025.6540              3028.1069
 Red. masses --      1.0932                 1.0883                 1.0683
 Frc consts  --      5.8940                 5.8701                 5.7714
 IR Inten    --     10.1667                27.0202                12.1888

                    121                    122                    123
                      A                      A                      A
 Frequencies --   3028.2371              3029.4449              3031.4476
 Red. masses --      1.0429                 1.0701                 1.0431
 Frc consts  --      5.6349                 5.7865                 5.6479
 IR Inten    --      4.7871                 8.9972                28.3794

                    124                    125                    126
                      A                      A                      A
 Frequencies --   3033.8621              3042.8643              3045.0989
 Red. masses --      1.0980                 1.0991                 1.0959
 Frc consts  --      5.9544                 5.9960                 5.9875
 IR Inten    --     15.5919                25.7817                 3.5317

                    127                    128                    129
                      A                      A                      A
 Frequencies --   3054.6557              3067.4064              3070.4097
 Red. masses --      1.1021                 1.1037                 1.1031
 Frc consts  --      6.0591                 6.1184                 6.1273
 IR Inten    --      2.4737                67.2717               151.5199

                    130                    131                    132
                      A                      A                      A
 Frequencies --   3095.1036              3095.9183              3097.2516
 Red. masses --      1.1004                 1.0963                 1.0951
 Frc consts  --      6.2109                 6.1909                 6.1896
 IR Inten    --     33.6227                36.1913                33.7902

                    133                    134                    135
                      A                      A                      A
 Frequencies --   3104.3192              3111.3236              3112.2531
 Red. masses --      1.1001                 1.1003                 1.1000
 Frc consts  --      6.2462                 6.2755                 6.2776
 IR Inten    --     53.3685                50.7079                26.8774

                    136                    137                    138
                      A                      A                      A
 Frequencies --   3122.5324              3140.1843              3220.5368
 Red. masses --      1.0812                 1.0685                 1.1141
 Frc consts  --      6.2113                 6.2080                 6.8082
 IR Inten    --     26.8557                 5.6862                18.7433

 - Thermochemistry -
 -------------------
 Temperature   298.150 Kelvin.  Pressure   1.00000 Atm.
 Atom     1 has atomic number  6 and mass  12.00000

 Molecular mass:   224.25040 amu.
 Principal axes and moments of inertia in atomic units:
                           1         2         3
     Eigenvalues --   901.11962********************
           X            1.00000  -0.00085  -0.00050
           Y            0.00085   0.99998  -0.00681
           Z            0.00051   0.00681   0.99998
 This molecule is an asymmetric top.
 Rotational symmetry number  1.
 Warning -- assumption of classical behavior for rotation
           may cause significant error
 Rotational temperatures (Kelvin)      0.09612     0.00425     0.00415
 Rotational constants (GHZ):           2.00278     0.08850     0.08649
 Zero-point vibrational energy    1176011.8 (Joules/Mol)
                                  281.07358 (Kcal/Mol)
 Warning -- explicit consideration of  30 degrees of freedom as
           vibrations may cause significant error
 Vibrational temperatures:     24.80    28.82    48.80    59.36    74.59
          (Kelvin)            103.88   110.76   116.03   138.29   170.86
                              180.97   207.17   210.94   229.22   232.26
                              304.01   341.10   345.62   371.95   405.91
                              425.62   488.33   516.29   567.98   593.74
                              621.57   639.72   701.93   732.93   768.37
                              950.00  1053.17  1067.27  1080.30  1113.32
                             1156.28  1191.46  1202.01  1243.69  1311.56
                             1319.47  1333.35  1359.85  1374.11  1393.66
                             1403.12  1433.06  1449.01  1459.81  1485.04
                             1494.08  1497.33  1503.06  1518.83  1529.36
                             1542.61  1544.15  1553.56  1614.11  1663.39
                             1692.40  1693.96  1718.87  1736.77  1762.47
                             1785.76  1807.46  1828.90  1856.91  1865.31
                             1877.36  1890.74  1897.38  1906.80  1916.23
                             1918.94  1922.77  1929.53  1961.24  1981.27
                             1986.35  1986.85  1993.72  2003.61  2012.16
                             2016.09  2031.54  2035.18  2035.46  2093.84
                             2121.02  2123.69  2129.76  2134.52  2136.61
                             2140.39  2152.54  2155.55  2156.42  2156.96
                             2164.43  2168.91  2172.09  2177.01  2179.54
                             2471.60  4287.23  4290.60  4306.84  4309.03
                             4311.96  4315.94  4317.41  4324.52  4329.09
                             4336.12  4347.37  4352.33  4353.24  4356.77
                             4356.96  4358.70  4361.58  4365.05  4378.00
                             4381.22  4394.97  4413.31  4417.63  4453.16
                             4454.34  4456.25  4466.42  4476.50  4477.84
                             4492.63  4518.02  4633.63

 Zero-point correction=                           0.447919 (Hartree/Particle)
 Thermal correction to Energy=                    0.469483
 Thermal correction to Enthalpy=                  0.470428
 Thermal correction to Gibbs Free Energy=         0.394065
 Sum of electronic and zero-point Energies=           -628.585367
 Sum of electronic and thermal Energies=              -628.563803
 Sum of electronic and thermal Enthalpies=            -628.562859
 Sum of electronic and thermal Free Energies=         -628.639222

                     E (Thermal)             CV                S
                      KCal/Mol        Cal/Mol-Kelvin    Cal/Mol-Kelvin
 Total                  294.605             77.503            160.719
 Electronic               0.000              0.000              0.000
 Translational            0.889              2.981             42.125
 Rotational               0.889              2.981             34.305
 Vibrational            292.828             71.541             84.289
 Vibration     1          0.593              1.986              6.929
 Vibration     2          0.593              1.986              6.631
 Vibration     3          0.594              1.983              5.586
 Vibration     4          0.594              1.981              5.198
 Vibration     5          0.596              1.977              4.746
 Vibration     6          0.598              1.967              4.093
 Vibration     7          0.599              1.965              3.966
 Vibration     8          0.600              1.962              3.875
 Vibration     9          0.603              1.952              3.532
 Vibration    10          0.609              1.934              3.121
 Vibration    11          0.611              1.927              3.010
 Vibration    12          0.616              1.909              2.750
 Vibration    13          0.617              1.906              2.716
 Vibration    14          0.621              1.892              2.558
 Vibration    15          0.622              1.890              2.533
 Vibration    16          0.643              1.824              2.032
 Vibration    17          0.656              1.784              1.825
 Vibration    18          0.657              1.779              1.801
 Vibration    19          0.667              1.748              1.672
 Vibration    20          0.681              1.707              1.521
 Vibration    21          0.690              1.682              1.440
 Vibration    22          0.719              1.597              1.215
 Vibration    23          0.734              1.557              1.127
 Vibration    24          0.762              1.481              0.982
 Vibration    25          0.776              1.443              0.917
 Vibration    26          0.793              1.400              0.852
 Vibration    27          0.804              1.373              0.812
 Vibration    28          0.844              1.277              0.689
 Vibration    29          0.865              1.229              0.635
 Vibration    30          0.889              1.175              0.578

                           ! Non-Optimized Parameters !
 Normal termination of Gaussian 16 at Tue May 23 04:13:44 2023.
