 Gaussian 16, Revision A.03,
 Gaussian 16:  ES64L-G16RevA.03 25-Dec-2016

 -----------------------------
 # opt freq b3lyp/6-31g(2df,p)
 -----------------------------

 -------------------
 Title Card Required
 -------------------
 Symbolic Z-matrix:
 Charge =  0 Multiplicity = 1

 SCF Done:  E(RB3LYP) =  -908.878176336     A.U. after   30 cycles
 SCF Done:  E(RB3LYP) =  -908.943979468     A.U. after   17 cycles
 SCF Done:  E(RB3LYP) =  -909.019463999     A.U. after   14 cycles
 SCF Done:  E(RB3LYP) =  -909.040203983     A.U. after   13 cycles
 SCF Done:  E(RB3LYP) =  -909.078947167     A.U. after   12 cycles
 SCF Done:  E(RB3LYP) =  -909.095019015     A.U. after   12 cycles
 SCF Done:  E(RB3LYP) =  -909.104226004     A.U. after   11 cycles
 SCF Done:  E(RB3LYP) =  -909.109100870     A.U. after   11 cycles
 SCF Done:  E(RB3LYP) =  -909.116167628     A.U. after   12 cycles
 SCF Done:  E(RB3LYP) =  -909.119010460     A.U. after   11 cycles
 SCF Done:  E(RB3LYP) =  -909.130395851     A.U. after   10 cycles
 SCF Done:  E(RB3LYP) =  -909.130405636     A.U. after    8 cycles
 SCF Done:  E(RB3LYP) =  -909.130414680     A.U. after    8 cycles
 SCF Done:  E(RB3LYP) =  -909.130422849     A.U. after    9 cycles
 SCF Done:  E(RB3LYP) =  -909.130424417     A.U. after    7 cycles
 SCF Done:  E(RB3LYP) =  -909.130425854     A.U. after    7 cycles
 SCF Done:  E(RB3LYP) =  -909.130425987     A.U. after    6 cycles
 SCF Done:  E(RB3LYP) =  -909.130426089     A.U. after    6 cycles
 SCF Done:  E(RB3LYP) =  -909.130426181     A.U. after    6 cycles
 Optimization completed.
    -- Stationary point found.
 Normal termination of Gaussian 16 at Wed May 24 05:21:28 2023.

 ----------------------------------------------------------------------
 #N Geom=AllCheck Guess=TCheck SCRF=Check GenChk RB3LYP/6-31G(2df,p) Fr
 eq
 ----------------------------------------------------------------------

 Structure from the checkpoint file:  "CdCCCC[SH]1CCCCCC1CC.chk"
 -------------------
 Title Card Required
 -------------------
 Charge =  0 Multiplicity = 1

                         Standard orientation:
 ---------------------------------------------------------------------
 Center     Atomic      Atomic             Coordinates (Angstroms)
 Number     Number       Type             X           Y           Z
 ---------------------------------------------------------------------
      1          6           0        5.914296   -0.254397   -0.936889
      2          6           0        5.061598    0.415935   -0.168094
      3          6           0        3.937255   -0.190617    0.621496
      4          6           0        2.552788    0.339828    0.188605
      5          6           0        1.409862   -0.231840    1.022451
      6         16           0       -0.308946    0.525762    0.508602
      7          6           0       -0.485889   -0.855055   -0.833829
      8          6           0       -0.959461   -2.202678   -0.271651
      9          6           0       -2.467417   -2.496860   -0.419557
     10          6           0       -3.428455   -1.298831   -0.309960
     11          6           0       -3.166427   -0.298324    0.835070
     12          6           0       -2.235820    0.889485    0.533841
     13          6           0       -2.678765    1.725064   -0.674561
     14          6           0       -2.119529    3.151727   -0.682501
     15          1           0        6.701858    0.244881   -1.491583
     16          1           0        5.861468   -1.335160   -1.038676
     17          1           0        5.151877    1.500338   -0.097799
     18          1           0        4.076451    0.032775    1.689154
     19          1           0        3.962509   -1.282891    0.524782
     20          1           0        2.407554    0.109428   -0.874052
     21          1           0        2.544845    1.434690    0.264221
     22          1           0        1.510473    0.061578    2.073349
     23          1           0        1.395436   -1.325673    0.976596
     24          1           0       -0.369682    0.950479    1.848119
     25          1           0        0.513139   -0.926635   -1.265445
     26          1           0       -1.155894   -0.472279   -1.605652
     27          1           0       -0.677884   -2.268037    0.785207
     28          1           0       -0.409607   -3.014851   -0.764121
     29          1           0       -2.740933   -3.245259    0.334538
     30          1           0       -2.646827   -2.975981   -1.389958
     31          1           0       -4.439481   -1.705833   -0.192944
     32          1           0       -3.450685   -0.756409   -1.261392
     33          1           0       -2.808578   -0.829699    1.726542
     34          1           0       -4.135073    0.137123    1.120608
     35          1           0       -2.238889    1.537564    1.420550
     36          1           0       -3.778495    1.769826   -0.684899
     37          1           0       -2.401121    1.229036   -1.612046
     38          1           0       -2.433467    3.701929    0.211706
     39          1           0       -2.473816    3.707433   -1.556605
     40          1           0       -1.026245    3.148809   -0.704369
 ---------------------------------------------------------------------

 SCF Done:  E(RB3LYP) =  -909.130426181     A.U. after    1 cycles

 The electronic state is 1-A.
 Alpha  occ. eigenvalues --  -88.91483 -10.18447 -10.18196 -10.18104 -10.18068
 Alpha  occ. eigenvalues --  -10.17957 -10.17807 -10.17682 -10.17680 -10.17600
 Alpha  occ. eigenvalues --  -10.17564 -10.17547 -10.16958 -10.16525  -7.96388
 Alpha  occ. eigenvalues --   -5.92727  -5.92713  -5.92305  -0.82485  -0.80099
 Alpha  occ. eigenvalues --   -0.77858  -0.77244  -0.73961  -0.72681  -0.68006
 Alpha  occ. eigenvalues --   -0.64964  -0.64246  -0.61305  -0.58541  -0.55220
 Alpha  occ. eigenvalues --   -0.54711  -0.53153  -0.47920  -0.47279  -0.46127
 Alpha  occ. eigenvalues --   -0.44505  -0.44231  -0.43694  -0.42176  -0.41313
 Alpha  occ. eigenvalues --   -0.40738  -0.40331  -0.39297  -0.38659  -0.37050
 Alpha  occ. eigenvalues --   -0.36680  -0.36164  -0.35635  -0.34359  -0.33477
 Alpha  occ. eigenvalues --   -0.32997  -0.32700  -0.32407  -0.32279  -0.31268
 Alpha  occ. eigenvalues --   -0.30560  -0.30185  -0.25401  -0.24546  -0.18402
 Alpha virt. eigenvalues --   -0.00721   0.02700   0.07298   0.09012   0.09715
 Alpha virt. eigenvalues --    0.10603   0.11234   0.11809   0.12581   0.12708
 Alpha virt. eigenvalues --    0.12975   0.14068   0.14315   0.15346   0.15663

 Mulliken charges:
               1
     1  C   -0.319257
     2  C    0.034690
     3  C   -0.238227
     4  C   -0.151438
     5  C   -0.266272
     6  S    0.021512
     7  C   -0.230734
     8  C   -0.181289
     9  C   -0.195264
    10  C   -0.188615
    11  C   -0.226765
    12  C   -0.011942
    13  C   -0.176435
    14  C   -0.389991
    15  H    0.108238
    16  H    0.099616
    17  H    0.084811
    18  H    0.102658
    19  H    0.095318
    20  H    0.104288
    21  H    0.103224
    22  H    0.090794
    23  H    0.102606
    24  H    0.030515
    25  H    0.110930
    26  H    0.105376
    27  H    0.106891
    28  H    0.094449
    29  H    0.094455
    30  H    0.094419
    31  H    0.092594
    32  H    0.097548
    33  H    0.091821
    34  H    0.094896
    35  H    0.070641
    36  H    0.090421
    37  H    0.101983
    38  H    0.110181
    39  H    0.105492
    40  H    0.135860
 Sum of Mulliken charges =  -0.00000

 Dipole moment (field-independent basis, Debye):
    X=             -0.7687    Y=             -0.7308    Z=             -0.0327  Tot=              1.0612
 Quadrupole moment (field-independent basis, Debye-Ang):
   XX=            -99.7134   YY=            -98.1924   ZZ=            -98.2090
   XY=              0.4492   XZ=             -0.0901   YZ=              0.6818

  Exact polarizability: 214.050  -6.719 161.169  -6.750   7.596 136.804
 Approx polarizability: 266.310 -15.989 232.383  -9.228  18.963 231.505

                      1                      2                      3
                      A                      A                      A
 Frequencies --     27.2845                40.0724                53.6714
 Red. masses --      3.3566                 3.2955                 2.3334
 Frc consts  --      0.0015                 0.0031                 0.0040
 IR Inten    --      0.0718                 0.0093                 0.0326

                      4                      5                      6
                      A                      A                      A
 Frequencies --     70.0783                94.9046                97.8662
 Red. masses --      2.2579                 2.6122                 2.3757
 Frc consts  --      0.0065                 0.0139                 0.0134
 IR Inten    --      0.0889                 0.1465                 0.0712

                      7                      8                      9
                      A                      A                      A
 Frequencies --    111.6754               121.1746               147.6319
 Red. masses --      2.4872                 2.1263                 2.9223
 Frc consts  --      0.0183                 0.0184                 0.0375
 IR Inten    --      0.5972                 0.0812                 1.4518

                     10                     11                     12
                      A                      A                      A
 Frequencies --    164.3706               191.8513               214.8562
 Red. masses --      2.0485                 2.0222                 2.7404
 Frc consts  --      0.0326                 0.0439                 0.0745
 IR Inten    --      0.6407                 0.6659                 0.2116

                     13                     14                     15
                      A                      A                      A
 Frequencies --    233.3058               260.1801               274.5545
 Red. masses --      1.4786                 2.2856                 3.2281
 Frc consts  --      0.0474                 0.0912                 0.1434
 IR Inten    --      0.1868                 0.5591                 1.8112

                     16                     17                     18
                      A                      A                      A
 Frequencies --    307.8786               322.5953               355.6652
 Red. masses --      1.9092                 3.0612                 2.3610
 Frc consts  --      0.1066                 0.1877                 0.1760
 IR Inten    --      2.6769                 3.9675                 1.0901

                     19                     20                     21
                      A                      A                      A
 Frequencies --    380.7615               398.5095               425.7426
 Red. masses --      2.8084                 1.9819                 2.0796
 Frc consts  --      0.2399                 0.1854                 0.2221
 IR Inten    --      0.8322                 3.0440                 1.2908

                     22                     23                     24
                      A                      A                      A
 Frequencies --    468.6914               473.9493               489.0342
 Red. masses --      2.5691                 2.6913                 1.9407
 Frc consts  --      0.3325                 0.3562                 0.2734
 IR Inten    --      5.6535                12.3237                 6.5151

                     25                     26                     27
                      A                      A                      A
 Frequencies --    538.6835               588.6022               612.2110
 Red. masses --      2.2108                 2.6978                 2.8959
 Frc consts  --      0.3780                 0.5507                 0.6395
 IR Inten    --      2.5227                 6.0333                22.0363

                     28                     29                     30
                      A                      A                      A
 Frequencies --    654.7635               731.5843               756.3775
 Red. masses --      1.5311                 1.1448                 1.4332
 Frc consts  --      0.3867                 0.3610                 0.4831
 IR Inten    --      9.8679                 5.2009                 9.3259

                     31                     32                     33
                      A                      A                      A
 Frequencies --    766.7102               785.1458               805.4178
 Red. masses --      1.9503                 1.3621                 1.6459
 Frc consts  --      0.6755                 0.4947                 0.6291
 IR Inten    --      0.5514                 1.0103                 7.1954

                     34                     35                     36
                      A                      A                      A
 Frequencies --    848.9430               880.3183               914.6897
 Red. masses --      1.7015                 1.9851                 1.8367
 Frc consts  --      0.7225                 0.9064                 0.9054
 IR Inten    --      3.9847                18.2529                17.7080

                     37                     38                     39
                      A                      A                      A
 Frequencies --    937.7093               941.9613               945.1813
 Red. masses --      1.8001                 1.6175                 1.3836
 Frc consts  --      0.9326                 0.8456                 0.7283
 IR Inten    --      1.2707                 3.5722                31.0446

                     40                     41                     42
                      A                      A                      A
 Frequencies --    961.2971               983.3789               997.2373
 Red. masses --      1.8254                 1.9663                 2.2330
 Frc consts  --      0.9938                 1.1203                 1.3084
 IR Inten    --      1.6777                 4.1647                 5.3390

                     43                     44                     45
                      A                      A                      A
 Frequencies --   1019.3350              1033.2131              1035.4201
 Red. masses --      2.5674                 2.4327                 1.6553
 Frc consts  --      1.5717                 1.5301                 1.0456
 IR Inten    --      0.9905                 1.4264                 9.5010

                     46                     47                     48
                      A                      A                      A
 Frequencies --   1042.7376              1045.9042              1060.0737
 Red. masses --      1.3192                 1.7072                 1.7901
 Frc consts  --      0.8451                 1.1003                 1.1852
 IR Inten    --     11.2929                12.5227                 0.4627

                     49                     50                     51
                      A                      A                      A
 Frequencies --   1071.3475              1094.5302              1113.1669
 Red. masses --      1.3008                 1.4748                 1.7659
 Frc consts  --      0.8796                 1.0410                 1.2892
 IR Inten    --      3.9645                 3.7785                 5.3796

                     52                     53                     54
                      A                      A                      A
 Frequencies --   1133.5235              1164.5401              1174.1020
 Red. masses --      2.7230                 1.5450                 1.2369
 Frc consts  --      2.0614                 1.2345                 1.0046
 IR Inten    --      0.6571                 6.2630                 2.0072

                     55                     56                     57
                      A                      A                      A
 Frequencies --   1196.6311              1198.0231              1206.3678
 Red. masses --      1.3015                 1.1813                 1.6144
 Frc consts  --      1.0980                 0.9989                 1.3843
 IR Inten    --      4.9276                 1.2668                12.8723

                     58                     59                     60
                      A                      A                      A
 Frequencies --   1225.9345              1263.2078              1275.6433
 Red. masses --      1.3222                 1.2650                 1.2138
 Frc consts  --      1.1708                 1.1893                 1.1637
 IR Inten    --      0.7047                 4.1332                 1.6779

                     61                     62                     63
                      A                      A                      A
 Frequencies --   1282.3567              1294.9353              1299.1530
 Red. masses --      1.2651                 1.2938                 1.2872
 Frc consts  --      1.2257                 1.2782                 1.2800
 IR Inten    --      1.1691                 0.3107                 1.6861

                     64                     65                     66
                      A                      A                      A
 Frequencies --   1308.7998              1320.0235              1321.3243
 Red. masses --      1.1451                 1.1631                 1.1021
 Frc consts  --      1.1557                 1.1941                 1.1337
 IR Inten    --      4.5657                11.7190                 5.9759

                     67                     68                     69
                      A                      A                      A
 Frequencies --   1332.8332              1356.9288              1364.1631
 Red. masses --      1.2116                 1.3664                 1.4075
 Frc consts  --      1.2681                 1.4824                 1.5432
 IR Inten    --      0.3878                 4.0884                 1.0083

                     70                     71                     72
                      A                      A                      A
 Frequencies --   1372.2171              1379.9535              1391.2377
 Red. masses --      1.3966                 1.3133                 1.3500
 Frc consts  --      1.5494                 1.4734                 1.5395
 IR Inten    --      3.2300                10.6710                17.2756

                     73                     74                     75
                      A                      A                      A
 Frequencies --   1400.4345              1409.7052              1437.1937
 Red. masses --      1.3826                 1.2317                 1.0892
 Frc consts  --      1.5976                 1.4422                 1.3255
 IR Inten    --      5.2386                 2.9623                84.9172

                     76                     77                     78
                      A                      A                      A
 Frequencies --   1454.2089              1459.8664              1472.2096
 Red. masses --      1.1580                 1.1145                 1.0906
 Frc consts  --      1.4428                 1.3994                 1.3927
 IR Inten    --      1.1964                11.2300                 3.7798

                     79                     80                     81
                      A                      A                      A
 Frequencies --   1476.6984              1479.6107              1481.8393
 Red. masses --      1.0937                 1.0993                 1.0768
 Frc consts  --      1.4052                 1.4179                 1.3932
 IR Inten    --      6.0669                 5.9580                 3.2246

                     82                     83                     84
                      A                      A                      A
 Frequencies --   1486.0235              1497.0234              1498.1385
 Red. masses --      1.0685                 1.0441                 1.1001
 Frc consts  --      1.3902                 1.3786                 1.4548
 IR Inten    --      0.2468                 3.6794                 2.8316

                     85                     86                     87
                      A                      A                      A
 Frequencies --   1499.4094              1507.1064              1508.6366
 Red. masses --      1.0768                 1.0856                 1.0598
 Frc consts  --      1.4264                 1.4528                 1.4212
 IR Inten    --      7.6956                 2.0365                 5.0917

                     88                     89                     90
                      A                      A                      A
 Frequencies --   1716.3309              2055.1101              2988.1173
 Red. masses --      4.8267                 1.0381                 1.0688
 Frc consts  --      8.3772                 2.5832                 5.6225
 IR Inten    --     12.6835               151.6091                 7.4456

                     91                     92                     93
                      A                      A                      A
 Frequencies --   2992.2946              3001.6964              3007.0795
 Red. masses --      1.0703                 1.0626                 1.0815
 Frc consts  --      5.6461                 5.6411                 5.7618
 IR Inten    --     60.1136                16.5567                28.6751

                     94                     95                     96
                      A                      A                      A
 Frequencies --   3012.5767              3020.4417              3023.8567
 Red. masses --      1.0631                 1.0586                 1.0627
 Frc consts  --      5.6846                 5.6901                 5.7250
 IR Inten    --      9.1456                 7.5524                37.7799

                     97                     98                     99
                      A                      A                      A
 Frequencies --   3030.3210              3031.4976              3032.9057
 Red. masses --      1.0621                 1.0709                 1.0476
 Frc consts  --      5.7463                 5.7982                 5.6778
 IR Inten    --     41.1500                52.0015                 5.9561

                    100                    101                    102
                      A                      A                      A
 Frequencies --   3039.3950              3043.1229              3045.1831
 Red. masses --      1.0970                 1.0781                 1.0932
 Frc consts  --      5.9708                 5.8822                 5.9725
 IR Inten    --      0.8689                58.3620                 7.7337

                    103                    104                    105
                      A                      A                      A
 Frequencies --   3047.6010              3058.6082              3063.9118
 Red. masses --      1.0878                 1.0989                 1.1019
 Frc consts  --      5.9525                 6.0570                 6.0948
 IR Inten    --     31.5279                20.2718                21.9481

                    106                    107                    108
                      A                      A                      A
 Frequencies --   3072.9199              3084.6387              3093.7830
 Red. masses --      1.0942                 1.0664                 1.1049
 Frc consts  --      6.0874                 5.9784                 6.2308
 IR Inten    --     36.7069                34.7022                31.7211

                    109                    110                    111
                      A                      A                      A
 Frequencies --   3096.7646              3114.8423              3124.2886
 Red. masses --      1.0998                 1.1006                 1.0802
 Frc consts  --      6.2142                 6.2912                 6.2126
 IR Inten    --     52.9527                29.3087                25.2012

                    112                    113                    114
                      A                      A                      A
 Frequencies --   3136.8187              3140.0662              3220.2702
 Red. masses --      1.1068                 1.0695                 1.1141
 Frc consts  --      6.4162                 6.2133                 6.8070
 IR Inten    --     16.7909                 6.0348                18.8059

 - Thermochemistry -
 -------------------
 Temperature   298.150 Kelvin.  Pressure   1.00000 Atm.
 Atom     1 has atomic number  6 and mass  12.00000

 Molecular mass:   214.17552 amu.
 Principal axes and moments of inertia in atomic units:
                           1         2         3
     Eigenvalues --  1949.016546944.229248110.21421
           X            0.99999  -0.00321   0.00092
           Y            0.00321   0.99998  -0.00476
           Z           -0.00091   0.00477   0.99999
 This molecule is an asymmetric top.
 Rotational symmetry number  1.
 Warning -- assumption of classical behavior for rotation
           may cause significant error
 Rotational temperatures (Kelvin)      0.04444     0.01247     0.01068
 Rotational constants (GHZ):           0.92598     0.25989     0.22253
 Zero-point vibrational energy     951729.2 (Joules/Mol)
                                  227.46873 (Kcal/Mol)
 Warning -- explicit consideration of  27 degrees of freedom as
           vibrations may cause significant error
 Vibrational temperatures:     39.26    57.66    77.22   100.83   136.55
          (Kelvin)            140.81   160.68   174.34   212.41   236.49
                              276.03   309.13   335.68   374.34   395.02
                              442.97   464.14   511.72   547.83   573.37
                              612.55   674.34   681.91   703.61   775.05
                              846.87   880.84   942.06  1052.59  1088.26
                             1103.12  1129.65  1158.82  1221.44  1266.58
                             1316.03  1349.15  1355.27  1359.91  1383.09
                             1414.86  1434.80  1466.60  1486.56  1489.74
                             1500.27  1504.82  1525.21  1541.43  1574.78
                             1601.60  1630.89  1675.51  1689.27  1721.69
                             1723.69  1735.69  1763.85  1817.47  1835.37
                             1845.03  1863.12  1869.19  1883.07  1899.22
                             1901.09  1917.65  1952.32  1962.73  1974.31
                             1985.45  2001.68  2014.91  2028.25  2067.80
                             2092.28  2100.42  2118.18  2124.64  2128.83
                             2132.04  2138.06  2153.88  2155.49  2157.32
                             2168.39  2170.59  2469.42  2956.85  4299.23
                             4305.24  4318.77  4326.52  4334.43  4345.74
                             4350.66  4359.96  4361.65  4363.67  4373.01
                             4378.38  4381.34  4384.82  4400.66  4408.29
                             4421.25  4438.11  4451.26  4455.55  4481.56
                             4495.15  4513.18  4517.85  4633.25

 Zero-point correction=                           0.362494 (Hartree/Particle)
 Thermal correction to Energy=                    0.380341
 Thermal correction to Enthalpy=                  0.381285
 Thermal correction to Gibbs Free Energy=         0.315946
 Sum of electronic and zero-point Energies=           -908.767932
 Sum of electronic and thermal Energies=              -908.750085
 Sum of electronic and thermal Enthalpies=            -908.749141
 Sum of electronic and thermal Free Energies=         -908.814480

                     E (Thermal)             CV                S
                      KCal/Mol        Cal/Mol-Kelvin    Cal/Mol-Kelvin
 Total                  238.668             66.894            137.518
 Electronic               0.000              0.000              0.000
 Translational            0.889              2.981             41.988
 Rotational               0.889              2.981             33.062
 Vibrational            236.890             60.933             62.468
 Vibration     1          0.593              1.984              6.018
 Vibration     2          0.594              1.981              5.256
 Vibration     3          0.596              1.976              4.677
 Vibration     4          0.598              1.968              4.151
 Vibration     5          0.603              1.953              3.556
 Vibration     6          0.603              1.951              3.496
 Vibration     7          0.607              1.940              3.240
 Vibration     8          0.609              1.932              3.082
 Vibration     9          0.617              1.905              2.703
 Vibration    10          0.623              1.886              2.499
 Vibration    11          0.634              1.851              2.210
 Vibration    12          0.645              1.818              2.002
 Vibration    13          0.654              1.790              1.853
 Vibration    14          0.668              1.746              1.661
 Vibration    15          0.677              1.720              1.567
 Vibration    16          0.698              1.659              1.374
 Vibration    17          0.708              1.630              1.297
 Vibration    18          0.731              1.564              1.141
 Vibration    19          0.750              1.511              1.036
 Vibration    20          0.765              1.473              0.968
 Vibration    21          0.788              1.414              0.873
 Vibration    22          0.826              1.320              0.741
 Vibration    23          0.831              1.308              0.727
 Vibration    24          0.845              1.274              0.686
 Vibration    25          0.894              1.165              0.568
 Vibration    26          0.946              1.056              0.470
 Vibration    27          0.971              1.006              0.429

 Optimization completed.
    -- Stationary point found.
 Normal termination of Gaussian 16 at Wed May 24 08:05:42 2023.
