 Gaussian 16, Revision A.03,
 Gaussian 16:  ES64L-G16RevA.03 25-Dec-2016

 -----------------------------
 # opt freq b3lyp/6-31g(2df,p)
 -----------------------------

 -------------------
 Title Card Required
 -------------------
 Symbolic Z-matrix:
 Charge =  0 Multiplicity = 1

 SCF Done:  E(RB3LYP) =  -1145.56346800     A.U. after   13 cycles
 SCF Done:  E(RB3LYP) =  -1145.56864496     A.U. after   12 cycles
 SCF Done:  E(RB3LYP) =  -1145.56959130     A.U. after   11 cycles
 SCF Done:  E(RB3LYP) =  -1145.57002052     A.U. after   11 cycles
 SCF Done:  E(RB3LYP) =  -1145.57093691     A.U. after   11 cycles
 SCF Done:  E(RB3LYP) =  -1145.57138047     A.U. after   13 cycles
 SCF Done:  E(RB3LYP) =  -1145.57058617     A.U. after   12 cycles
 SCF Done:  E(RB3LYP) =  -1145.56738041     A.U. after   12 cycles
 SCF Done:  E(RB3LYP) =  -1145.56629993     A.U. after   12 cycles
 SCF Done:  E(RB3LYP) =  -1145.57150542     A.U. after    9 cycles
 SCF Done:  E(RB3LYP) =  -1145.57776697     A.U. after   12 cycles
 SCF Done:  E(RB3LYP) =  -1145.57813336     A.U. after   12 cycles
 SCF Done:  E(RB3LYP) =  -1145.57700628     A.U. after   12 cycles
 SCF Done:  E(RB3LYP) =  -1145.57880516     A.U. after   11 cycles
 SCF Done:  E(RB3LYP) =  -1145.57886924     A.U. after   10 cycles
 SCF Done:  E(RB3LYP) =  -1145.57887846     A.U. after    9 cycles
 SCF Done:  E(RB3LYP) =  -1145.57888311     A.U. after    8 cycles
 SCF Done:  E(RB3LYP) =  -1145.57888393     A.U. after    7 cycles
 SCF Done:  E(RB3LYP) =  -1145.57888412     A.U. after    6 cycles
 Optimization completed.
    -- Stationary point found.
 Normal termination of Gaussian 16 at Sat May 27 23:09:17 2023.

 ----------------------------------------------------------------------
 #N Geom=AllCheck Guess=TCheck SCRF=Check GenChk RB3LYP/6-31G(2df,p) Fr
 eq
 ----------------------------------------------------------------------

 Structure from the checkpoint file:  "CdCCqOrC1CSCCS1.chk"
 -------------------
 Title Card Required
 -------------------
 Charge =  0 Multiplicity = 1

                         Standard orientation:
 ---------------------------------------------------------------------
 Center     Atomic      Atomic             Coordinates (Angstroms)
 Number     Number       Type             X           Y           Z
 ---------------------------------------------------------------------
      1          6           0       -3.690240   -0.698170    0.019229
      2          6           0       -2.410937   -0.919672   -0.262189
      3          6           0       -1.381146    0.160511   -0.468188
      4          8           0       -2.037622    1.401420   -0.608931
      5          6           0       -0.385893    0.216640    0.726932
      6          6           0        0.361794   -1.082007    1.046971
      7         16           0        1.492961   -1.684556   -0.260283
      8          6           0        2.634893   -0.260007   -0.345491
      9          6           0        1.942871    1.050796   -0.707415
     10         16           0        0.775816    1.644616    0.575731
     11          1           0       -4.388363   -1.517202    0.154759
     12          1           0       -4.077725    0.309902    0.106033
     13          1           0       -2.042647   -1.936406   -0.374346
     14          1           0       -0.809195   -0.086261   -1.377213
     15          1           0       -1.354276    2.083593   -0.554847
     16          1           0       -0.977431    0.490383    1.608464
     17          1           0       -0.348632   -1.898004    1.202937
     18          1           0        0.931174   -0.956865    1.971831
     19          1           0        3.360823   -0.527028   -1.119902
     20          1           0        3.169504   -0.165948    0.604455
     21          1           0        1.431040    0.964978   -1.669005
     22          1           0        2.678206    1.858021   -0.787982
 ---------------------------------------------------------------------

 SCF Done:  E(RB3LYP) =  -1145.57888412     A.U. after    1 cycles

 The electronic state is 1-A.
 Alpha  occ. eigenvalues --  -88.87939 -88.87483 -19.13108 -10.23971 -10.23001
 Alpha  occ. eigenvalues --  -10.22900 -10.22715 -10.22493 -10.18427 -10.17356
 Alpha  occ. eigenvalues --   -7.94282  -7.93827  -5.90748  -5.90405  -5.90306
 Alpha  occ. eigenvalues --   -5.89969  -5.89835  -5.89343  -1.01960  -0.85113
 Alpha  occ. eigenvalues --   -0.79546  -0.76617  -0.76355  -0.67989  -0.64034
 Alpha  occ. eigenvalues --   -0.62641  -0.56196  -0.54512  -0.51540  -0.47982
 Alpha  occ. eigenvalues --   -0.46886  -0.45111  -0.44085  -0.43455  -0.42277
 Alpha  occ. eigenvalues --   -0.41212  -0.39619  -0.39252  -0.35499  -0.33897
 Alpha  occ. eigenvalues --   -0.33079  -0.31897  -0.30497  -0.27745  -0.25912
 Alpha  occ. eigenvalues --   -0.24276  -0.22575
 Alpha virt. eigenvalues --    0.00972   0.02735   0.03171   0.05636   0.07272
 Alpha virt. eigenvalues --    0.09005   0.09598   0.10885   0.12354   0.12448
 Alpha virt. eigenvalues --    0.13090   0.14159   0.15945   0.17464   0.17742

 Mulliken charges:
               1
     1  C   -0.311920
     2  C   -0.025023
     3  C    0.095004
     4  O   -0.438143
     5  C   -0.031683
     6  C   -0.231031
     7  S   -0.148623
     8  C   -0.199655
     9  C   -0.200658
    10  S   -0.200234
    11  H    0.108572
    12  H    0.129721
    13  H    0.098994
    14  H    0.091424
    15  H    0.297431
    16  H    0.127923
    17  H    0.140135
    18  H    0.140397
    19  H    0.135712
    20  H    0.139257
    21  H    0.145155
    22  H    0.137245
 Sum of Mulliken charges =   0.00000

 Dipole moment (field-independent basis, Debye):
    X=              1.8141    Y=             -0.0890    Z=              0.2888  Tot=              1.8390
 Quadrupole moment (field-independent basis, Debye-Ang):
   XX=            -73.5640   YY=            -78.2758   ZZ=            -74.9672
   XY=              5.6818   XZ=             -4.7812   YZ=             -2.7265

  Exact polarizability: 142.977   6.158 110.269  -9.675   1.201  84.898
 Approx polarizability: 205.883   7.797 171.852 -19.439   4.228 146.320

                      1                      2                      3
                      A                      A                      A
 Frequencies --     52.9826                77.9449               105.1139
 Red. masses --      4.4390                 2.8948                 5.5029
 Frc consts  --      0.0073                 0.0104                 0.0358
 IR Inten    --      0.9405                 0.1069                 0.4490

                      4                      5                      6
                      A                      A                      A
 Frequencies --    126.1149               227.3396               261.2507
 Red. masses --      3.9043                 4.6912                 2.4732
 Frc consts  --      0.0366                 0.1429                 0.0995
 IR Inten    --      2.4946                 3.2908                 0.9195

                      7                      8                      9
                      A                      A                      A
 Frequencies --    281.8646               305.9639               331.6618
 Red. masses --      4.4412                 3.6164                 2.4561
 Frc consts  --      0.2079                 0.1995                 0.1592
 IR Inten    --      1.4546                 6.1038                 0.7841

                     10                     11                     12
                      A                      A                      A
 Frequencies --    349.9204               398.1495               444.1117
 Red. masses --      3.0231                 2.9775                 1.3024
 Frc consts  --      0.2181                 0.2781                 0.1513
 IR Inten    --      0.6006                 0.6600                47.3897

                     13                     14                     15
                      A                      A                      A
 Frequencies --    446.1964               550.1035               597.0850
 Red. masses --      2.1588                 3.0904                 3.2933
 Frc consts  --      0.2532                 0.5510                 0.6918
 IR Inten    --     34.6933                 3.6941                 4.5774

                     16                     17                     18
                      A                      A                      A
 Frequencies --    633.4824               643.3133               662.4078
 Red. masses --      3.2148                 3.7423                 3.5448
 Frc consts  --      0.7601                 0.9125                 0.9164
 IR Inten    --      8.4993                 1.8487                 4.4126

                     19                     20                     21
                      A                      A                      A
 Frequencies --    701.2930               727.9749               838.5921
 Red. masses --      2.7638                 3.1430                 1.7569
 Frc consts  --      0.8009                 0.9814                 0.7280
 IR Inten    --      4.5463                 1.3803                 1.4895

                     22                     23                     24
                      A                      A                      A
 Frequencies --    912.0929               926.2599               940.8310
 Red. masses --      1.9111                 2.4151                 1.9830
 Frc consts  --      0.9367                 1.2208                 1.0342
 IR Inten    --     13.6682                24.5215                 4.2612

                     25                     26                     27
                      A                      A                      A
 Frequencies --    966.6708               996.0223              1009.8402
 Red. masses --      1.3739                 2.3467                 2.6146
 Frc consts  --      0.7564                 1.3716                 1.5709
 IR Inten    --     22.5025                 1.7626                 3.3840

                     28                     29                     30
                      A                      A                      A
 Frequencies --   1017.3575              1045.0252              1053.6169
 Red. masses --      1.7284                 1.2735                 1.9033
 Frc consts  --      1.0540                 0.8194                 1.2449
 IR Inten    --     23.9449                13.6853                 2.7326

                     31                     32                     33
                      A                      A                      A
 Frequencies --   1142.1973              1157.2858              1176.1479
 Red. masses --      1.0992                 1.9941                 1.3403
 Frc consts  --      0.8449                 1.5736                 1.0924
 IR Inten    --      7.0284                30.3315                 4.9247

                     34                     35                     36
                      A                      A                      A
 Frequencies --   1218.8959              1237.1583              1248.0698
 Red. masses --      1.2306                 1.4030                 1.2451
 Frc consts  --      1.0772                 1.2652                 1.1427
 IR Inten    --     12.6198                 1.7854                 9.9531

                     37                     38                     39
                      A                      A                      A
 Frequencies --   1278.4240              1292.3869              1318.7002
 Red. masses --      1.1432                 1.2405                 1.2491
 Frc consts  --      1.1008                 1.2208                 1.2798
 IR Inten    --     72.2406                30.6923                13.5273

                     40                     41                     42
                      A                      A                      A
 Frequencies --   1321.0138              1328.5735              1359.5756
 Red. masses --      1.2485                 1.2662                 1.2726
 Frc consts  --      1.2836                 1.3168                 1.3859
 IR Inten    --      4.4868                 7.1144                12.1533

                     43                     44                     45
                      A                      A                      A
 Frequencies --   1411.7439              1450.8055              1452.6193
 Red. masses --      1.3110                 1.1606                 1.2029
 Frc consts  --      1.5394                 1.4393                 1.4954
 IR Inten    --     19.1365                18.2129                17.7660

                     46                     47                     48
                      A                      A                      A
 Frequencies --   1457.3500              1460.1971              1713.0391
 Red. masses --      1.0852                 1.0946                 4.9824
 Frc consts  --      1.3579                 1.3750                 8.6143
 IR Inten    --     12.3147                 8.5000                 2.5665

                     49                     50                     51
                      A                      A                      A
 Frequencies --   2970.2169              3045.1472              3046.8327
 Red. masses --      1.0805                 1.0659                 1.0713
 Frc consts  --      5.6164                 5.8233                 5.8597
 IR Inten    --     26.1898                12.3193                 2.9938

                     52                     53                     54
                      A                      A                      A
 Frequencies --   3052.8331              3060.3706              3096.2957
 Red. masses --      1.0591                 1.0628                 1.1057
 Frc consts  --      5.8158                 5.8649                 6.2455
 IR Inten    --     18.2836                19.7046                 2.4906

                     55                     56                     57
                      A                      A                      A
 Frequencies --   3108.9093              3110.6085              3152.0956
 Red. masses --      1.1053                 1.1056                 1.0658
 Frc consts  --      6.2944                 6.3030                 6.2389
 IR Inten    --     11.1129                 4.9199                 8.2068

                     58                     59                     60
                      A                      A                      A
 Frequencies --   3167.0880              3248.8198              3730.3556
 Red. masses --      1.0842                 1.1144                 1.0652
 Frc consts  --      6.4073                 6.9299                 8.7335
 IR Inten    --     10.3589                 5.4578                58.5576

 - Thermochemistry -
 -------------------
 Temperature   298.150 Kelvin.  Pressure   1.00000 Atm.
 Atom     1 has atomic number  6 and mass  12.00000

 Molecular mass:   176.03296 amu.
 Principal axes and moments of inertia in atomic units:
                           1         2         3
     Eigenvalues --  1206.678212446.742943194.25181
           X            0.99957   0.02789  -0.00941
           Y           -0.02817   0.99912  -0.03096
           Z            0.00854   0.03121   0.99948
 This molecule is an asymmetric top.
 Rotational symmetry number  1.
 Warning -- assumption of classical behavior for rotation
           may cause significant error
 Rotational temperatures (Kelvin)      0.07178     0.03540     0.02712
 Rotational constants (GHZ):           1.49563     0.73761     0.56500
 Zero-point vibrational energy     475182.7 (Joules/Mol)
                                  113.57139 (Kcal/Mol)
 Warning -- explicit consideration of  15 degrees of freedom as
           vibrations may cause significant error
 Vibrational temperatures:     76.23   112.15   151.24   181.45   327.09
          (Kelvin)            375.88   405.54   440.21   477.19   503.46
                              572.85   638.98   641.98   791.48   859.07
                              911.44   925.58   953.06  1009.00  1047.39
                             1206.55  1312.30  1332.68  1353.65  1390.82
                             1433.05  1452.93  1463.75  1503.56  1515.92
                             1643.37  1665.08  1692.21  1753.72  1779.99
                             1795.69  1839.37  1859.46  1897.32  1900.64
                             1911.52  1956.13  2031.18  2087.39  2090.00
                             2096.80  2100.90  2464.68  4273.48  4381.29
                             4383.71  4392.35  4403.19  4454.88  4473.03
                             4475.47  4535.16  4556.73  4674.33  5367.15

 Zero-point correction=                           0.180988 (Hartree/Particle)
 Thermal correction to Energy=                    0.191872
 Thermal correction to Enthalpy=                  0.192816
 Thermal correction to Gibbs Free Energy=         0.143979
 Sum of electronic and zero-point Energies=          -1145.397897
 Sum of electronic and thermal Energies=             -1145.387013
 Sum of electronic and thermal Enthalpies=           -1145.386068
 Sum of electronic and thermal Free Energies=        -1145.434905

                     E (Thermal)             CV                S
                      KCal/Mol        Cal/Mol-Kelvin    Cal/Mol-Kelvin
 Total                  120.401             41.422            102.786
 Electronic               0.000              0.000              0.000
 Translational            0.889              2.981             41.404
 Rotational               0.889              2.981             30.623
 Vibrational            118.624             35.460             30.759
 Vibration     1          0.596              1.976              4.703
 Vibration     2          0.599              1.964              3.942
 Vibration     3          0.605              1.945              3.357
 Vibration     4          0.611              1.927              3.004
 Vibration     5          0.651              1.799              1.900
 Vibration     6          0.669              1.744              1.653
 Vibration     7          0.681              1.707              1.522
 Vibration     8          0.696              1.662              1.384
 Vibration     9          0.714              1.612              1.252
 Vibration    10          0.727              1.575              1.167
 Vibration    11          0.764              1.474              0.969
 Vibration    12          0.804              1.374              0.814
 Vibration    13          0.805              1.369              0.807
 Vibration    14          0.905              1.139              0.544
 Vibration    15          0.955              1.038              0.455

                           ! Non-Optimized Parameters !
 Normal termination of Gaussian 16 at Sat May 27 23:49:44 2023.
