 Gaussian 16, Revision A.03,
 Gaussian 16:  ES64L-G16RevA.03 25-Dec-2016

 -----------------------------
 # opt freq b3lyp/6-31g(2df,p)
 -----------------------------

 -------------------
 Title Card Required
 -------------------
 Symbolic Z-matrix:
 Charge =  0 Multiplicity = 1

 SCF Done:  E(RB3LYP) =  -1028.86047504     A.U. after   14 cycles
 SCF Done:  E(RB3LYP) =  -1028.87345537     A.U. after   12 cycles
 SCF Done:  E(RB3LYP) =  -1028.87421894     A.U. after   11 cycles
 SCF Done:  E(RB3LYP) =  -1028.87444557     A.U. after   10 cycles
 SCF Done:  E(RB3LYP) =  -1028.87445327     A.U. after    9 cycles
 SCF Done:  E(RB3LYP) =  -1028.87445461     A.U. after    7 cycles
 SCF Done:  E(RB3LYP) =  -1028.87445476     A.U. after    6 cycles
 Optimization completed.
    -- Stationary point found.
 Normal termination of Gaussian 16 at Sun May 28 02:36:58 2023.

 ----------------------------------------------------------------------
 #N Geom=AllCheck Guess=TCheck SCRF=Check GenChk RB3LYP/6-31G(2df,p) Fr
 eq
 ----------------------------------------------------------------------

 Structure from the checkpoint file:  "CdCCCNCdCCSCqdCrNCdNO.chk"
 -------------------
 Title Card Required
 -------------------
 Charge =  0 Multiplicity = 1

                         Standard orientation:
 ---------------------------------------------------------------------
 Center     Atomic      Atomic             Coordinates (Angstroms)
 Number     Number       Type             X           Y           Z
 ---------------------------------------------------------------------
      1          6           0       -8.461797   -0.366159   -0.000020
      2          6           0       -7.271581    0.223950   -0.000013
      3          6           0       -5.942004   -0.494552    0.000001
      4          6           0       -4.757922    0.472438    0.000005
      5          7           0       -3.505210   -0.249501    0.000019
      6          6           0       -2.278354    0.362967    0.000023
      7          6           0       -1.076557   -0.231520    0.000025
      8          6           0        0.215887    0.551437    0.000037
      9         16           0        1.603382   -0.635434   -0.000028
     10          6           0        3.039614    0.417283   -0.000013
     11          6           0        3.021805    1.757325   -0.000018
     12          7           0        4.182108   -0.382914    0.000003
     13          6           0        5.485476    0.048646   -0.000006
     14          7           0        6.439991   -0.801718    0.000016
     15          8           0        7.681593   -0.130855   -0.000003
     16          1           0       -9.381447    0.208514   -0.000030
     17          1           0       -8.568452   -1.447697   -0.000017
     18          1           0       -7.224937    1.312431   -0.000016
     19          1           0       -5.866502   -1.149001   -0.878728
     20          1           0       -5.866515   -1.148992    0.878737
     21          1           0       -4.831017    1.126911    0.882869
     22          1           0       -4.831004    1.126902   -0.882866
     23          1           0       -3.540013   -1.254828    0.000014
     24          1           0       -2.345061    1.450273    0.000026
     25          1           0       -1.013489   -1.316512    0.000022
     26          1           0        0.323481    1.186010    0.886611
     27          1           0        0.323452    1.186077   -0.886494
     28          1           0        2.095246    2.308182   -0.000039
     29          1           0        3.931738    2.342003   -0.000003
     30          1           0        4.059718   -1.384668    0.000024
     31          1           0        5.658436    1.121006   -0.000034
     32          1           0        8.303881   -0.864783    0.000016
 ---------------------------------------------------------------------

 SCF Done:  E(RB3LYP) =  -1028.87445476     A.U. after    1 cycles

 The electronic state is 1-A.
 Alpha  occ. eigenvalues --  -88.87979 -19.16274 -14.36569 -14.35428 -14.34234
 Alpha  occ. eigenvalues --  -10.25069 -10.24382 -10.22711 -10.21850 -10.21573
 Alpha  occ. eigenvalues --  -10.20164 -10.19690 -10.18243 -10.16816 -10.15987
 Alpha  occ. eigenvalues --   -7.94311  -5.90785  -5.90433  -5.89863  -1.06149
 Alpha  occ. eigenvalues --   -0.96309  -0.93355  -0.84448  -0.81315  -0.80052
 Alpha  occ. eigenvalues --   -0.76055  -0.73395  -0.70303  -0.66129  -0.63369
 Alpha  occ. eigenvalues --   -0.60796  -0.58736  -0.57495  -0.56286  -0.51079
 Alpha  occ. eigenvalues --   -0.50066  -0.48887  -0.47918  -0.47879  -0.46346
 Alpha  occ. eigenvalues --   -0.45401  -0.43921  -0.43571  -0.42098  -0.41682
 Alpha  occ. eigenvalues --   -0.41343  -0.39549  -0.39158  -0.37892  -0.36638
 Alpha  occ. eigenvalues --   -0.36313  -0.35772  -0.35010  -0.32220  -0.31742
 Alpha  occ. eigenvalues --   -0.28202  -0.27187  -0.26317  -0.21949  -0.19300
 Alpha  occ. eigenvalues --   -0.18870
 Alpha virt. eigenvalues --    0.00546   0.00738   0.02265   0.03513   0.07145
 Alpha virt. eigenvalues --    0.07590   0.08132   0.08796   0.10015   0.10543
 Alpha virt. eigenvalues --    0.10953   0.12093   0.12362   0.12531   0.13248

 Mulliken charges:
               1
     1  C   -0.327466
     2  C    0.032377
     3  C   -0.255349
     4  C   -0.123988
     5  N   -0.308225
     6  C    0.079919
     7  C   -0.209626
     8  C   -0.231758
     9  S   -0.139458
    10  C    0.376183
    11  C   -0.472776
    12  N   -0.391610
    13  C    0.172496
    14  N   -0.195393
    15  O   -0.394493
    16  H    0.115429
    17  H    0.104516
    18  H    0.093929
    19  H    0.120713
    20  H    0.120713
    21  H    0.106262
    22  H    0.106262
    23  H    0.240283
    24  H    0.092885
    25  H    0.084549
    26  H    0.139433
    27  H    0.139433
    28  H    0.114343
    29  H    0.106541
    30  H    0.269148
    31  H    0.128853
    32  H    0.305875
 Sum of Mulliken charges =  -0.00000

 Dipole moment (field-independent basis, Debye):
    X=             -3.8656    Y=              0.1077    Z=              0.0001  Tot=              3.8671
 Quadrupole moment (field-independent basis, Debye-Ang):
   XX=            -88.8189   YY=            -91.4594   ZZ=           -103.1261
   XY=             -1.6050   XZ=              0.0002   YZ=             -0.0001

  Exact polarizability: 293.775  -7.429 142.624   0.001  -0.000  83.259
 Approx polarizability: 331.311 -15.731 243.748   0.001  -0.000 134.756

 ******    4 imaginary frequencies (negative Signs) ******

                      1                      2                      3
                      A                      A                      A
 Frequencies --   -243.8528              -131.4242              -117.2022
 Red. masses --      1.5541                 2.5137                 2.1682
 Frc consts  --      0.0544                 0.0256                 0.0175
 IR Inten    --     30.0230                 0.9246                 0.0576

                      4                      5                      6
                      A                      A                      A
 Frequencies --    -83.2025                10.4668                21.5797
 Red. masses --      2.2630                 6.4989                 5.1782
 Frc consts  --      0.0092                 0.0004                 0.0014
 IR Inten    --      0.8720                 0.0739                 0.0063

                      7                      8                      9
                      A                      A                      A
 Frequencies --     29.4910                64.6394                80.2388
 Red. masses --      5.7775                 4.6001                 2.6956
 Frc consts  --      0.0030                 0.0113                 0.0102
 IR Inten    --      0.0216                 0.2688                 0.4291

                     10                     11                     12
                      A                      A                      A
 Frequencies --     81.6025               118.0574               143.7699
 Red. masses --      5.2253                 2.2572                 4.7490
 Frc consts  --      0.0205                 0.0185                 0.0578
 IR Inten    --      0.1691                 3.1819                 0.3420

                     13                     14                     15
                      A                      A                      A
 Frequencies --    163.0028               215.1860               232.6919
 Red. masses --      6.3322                 4.3041                 1.7711
 Frc consts  --      0.0991                 0.1174                 0.0565
 IR Inten    --      0.7323                 6.2772                18.0667

                     16                     17                     18
                      A                      A                      A
 Frequencies --    265.5787               274.2184               300.2556
 Red. masses --      2.2152                 2.0529                 6.1559
 Frc consts  --      0.0921                 0.0910                 0.3270
 IR Inten    --     22.5391                11.1648                 1.4255

                     19                     20                     21
                      A                      A                      A
 Frequencies --    334.1385               336.6185               387.5437
 Red. masses --      4.2774                 1.3872                 3.6773
 Frc consts  --      0.2814                 0.0926                 0.3254
 IR Inten    --      2.5406                88.8210                 4.4870

                     22                     23                     24
                      A                      A                      A
 Frequencies --    399.8425               485.8281               493.5351
 Red. masses --      3.8812                 1.5858                 4.4752
 Frc consts  --      0.3656                 0.2205                 0.6422
 IR Inten    --      0.6555                58.1703                 6.3876

                     25                     26                     27
                      A                      A                      A
 Frequencies --    505.9272               534.5628               562.1117
 Red. masses --      3.2490                 2.4393                 3.7801
 Frc consts  --      0.4900                 0.4107                 0.7037
 IR Inten    --      5.9357                 5.8167                 3.0693

                     28                     29                     30
                      A                      A                      A
 Frequencies --    577.8425               589.9556               657.7274
 Red. masses --      1.3087                 4.7027                 1.2153
 Frc consts  --      0.2575                 0.9643                 0.3098
 IR Inten    --     10.3492                17.3890                 7.1096

                     31                     32                     33
                      A                      A                      A
 Frequencies --    743.6132               748.6080               753.7685
 Red. masses --      3.1039                 1.4854                 1.6497
 Frc consts  --      1.0112                 0.4904                 0.5522
 IR Inten    --     43.3059                74.5275                 0.0629

                     34                     35                     36
                      A                      A                      A
 Frequencies --    776.9118               790.8028               919.1854
 Red. masses --      5.8603                 1.1823                 1.3684
 Frc consts  --      2.0841                 0.4356                 0.6812
 IR Inten    --     20.3498                 0.7613                 1.4982

                     37                     38                     39
                      A                      A                      A
 Frequencies --    926.4086               948.3259               962.7353
 Red. masses --      1.8406                 1.3451                 1.4249
 Frc consts  --      0.9307                 0.7127                 0.7781
 IR Inten    --      0.5543                26.1553                 8.5735

                     40                     41                     42
                      A                      A                      A
 Frequencies --    975.8218               981.5860              1028.4911
 Red. masses --      4.3144                 1.1796                 1.0630
 Frc consts  --      2.4205                 0.6696                 0.6625
 IR Inten    --    129.8865                20.9088                10.5586

                     43                     44                     45
                      A                      A                      A
 Frequencies --   1054.1397              1059.5089              1077.0250
 Red. masses --      3.6294                 3.2961                 3.3468
 Frc consts  --      2.3762                 2.1800                 2.2874
 IR Inten    --      0.2620                58.3629                 2.8119

                     46                     47                     48
                      A                      A                      A
 Frequencies --   1089.1175              1111.7136              1148.7467
 Red. masses --      1.6019                 2.5778                 1.0692
 Frc consts  --      1.1195                 1.8771                 0.8313
 IR Inten    --      0.0043                 5.4356                 0.0109

                     49                     50                     51
                      A                      A                      A
 Frequencies --   1161.7093              1174.2421              1226.0704
 Red. masses --      2.4507                 2.6968                 1.3446
 Frc consts  --      1.9487                 2.1909                 1.1909
 IR Inten    --      4.3438                19.8955               289.5992

                     52                     53                     54
                      A                      A                      A
 Frequencies --   1226.9072              1278.7811              1283.7579
 Red. masses --      1.1682                 1.4484                 1.5954
 Frc consts  --      1.0361                 1.3955                 1.5492
 IR Inten    --      0.0068               118.7563               165.5631

                     55                     56                     57
                      A                      A                      A
 Frequencies --   1297.8072              1304.8712              1310.0168
 Red. masses --      1.4372                 1.9958                 1.0892
 Frc consts  --      1.4262                 2.0021                 1.1013
 IR Inten    --    163.0349                98.1803                 0.0184

                     58                     59                     60
                      A                      A                      A
 Frequencies --   1324.4995              1341.3495              1348.5436
 Red. masses --      1.2935                 1.2380                 1.3032
 Frc consts  --      1.3370                 1.3124                 1.3963
 IR Inten    --      0.3229                 6.5117                13.1065

                     61                     62                     63
                      A                      A                      A
 Frequencies --   1402.8781              1423.6793              1453.6890
 Red. masses --      1.4163                 1.3680                 1.2343
 Frc consts  --      1.6423                 1.6336                 1.5368
 IR Inten    --     38.1804                38.6218                41.7966

                     64                     65                     66
                      A                      A                      A
 Frequencies --   1457.1909              1483.3079              1488.7219
 Red. masses --      1.2134                 1.1036                 1.1421
 Frc consts  --      1.5181                 1.4306                 1.4913
 IR Inten    --      1.2678                16.3679                 7.8687

                     67                     68                     69
                      A                      A                      A
 Frequencies --   1499.6458              1529.0620              1536.8455
 Red. masses --      1.4222                 1.8803                 1.0863
 Frc consts  --      1.8844                 2.5901                 1.5117
 IR Inten    --     40.7380               195.3693                31.4269

                     70                     71                     72
                      A                      A                      A
 Frequencies --   1670.0022              1715.6265              1731.6434
 Red. masses --      4.9623                 4.9331                 5.5896
 Frc consts  --      8.1540                 8.5549                 9.8753
 IR Inten    --    126.8220                12.1974               448.8296

                     73                     74                     75
                      A                      A                      A
 Frequencies --   1736.8931              2968.6608              2988.0197
 Red. masses --      5.1339                 1.0556                 1.1044
 Frc consts  --      9.1253                 5.4811                 5.8098
 IR Inten    --    210.4013                88.6836                32.1819

                     76                     77                     78
                      A                      A                      A
 Frequencies --   3012.3161              3018.5937              3046.4168
 Red. masses --      1.0583                 1.0544                 1.1033
 Frc consts  --      5.6578                 5.6608                 6.0326
 IR Inten    --     21.9549                21.8982                32.4725

                     79                     80                     81
                      A                      A                      A
 Frequencies --   3058.0386              3131.9743              3139.7850
 Red. masses --      1.1087                 1.0781                 1.0896
 Frc consts  --      6.1086                 6.2306                 6.3290
 IR Inten    --     10.4747                14.9791                 6.4329

                     82                     83                     84
                      A                      A                      A
 Frequencies --   3143.3620              3152.3555              3174.0566
 Red. masses --      1.0725                 1.0867                 1.0889
 Frc consts  --      6.2436                 6.3625                 6.4633
 IR Inten    --      5.3705                23.9016                 3.4017

                     85                     86                     87
                      A                      A                      A
 Frequencies --   3196.2132              3225.5801              3284.9932
 Red. masses --      1.0638                 1.1139                 1.1106
 Frc consts  --      6.4029                 6.8283                 7.0611
 IR Inten    --      9.7308                13.7576                 4.2482

                     88                     89                     90
                      A                      A                      A
 Frequencies --   3615.9723              3649.7902              3830.9852
 Red. masses --      1.0756                 1.0760                 1.0678
 Frc consts  --      8.2859                 8.4452                 9.2330
 IR Inten    --     38.7081                26.1520               108.7540

 - Thermochemistry -
 -------------------
 Temperature   298.150 Kelvin.  Pressure   1.00000 Atm.
 Atom     1 has atomic number  6 and mass  12.00000

 Molecular mass:   227.10923 amu.
 Principal axes and moments of inertia in atomic units:
                           1         2         3
     Eigenvalues --   409.99750********************
           X            1.00000   0.00259   0.00000
           Y           -0.00259   1.00000  -0.00000
           Z           -0.00000   0.00000   1.00000
 This molecule is an asymmetric top.
 Rotational symmetry number  1.
 Rotational temperatures (Kelvin)      0.21125     0.00452     0.00444
 Rotational constants (GHZ):           4.40183     0.09426     0.09244
    4 imaginary frequencies ignored.
 Zero-point vibrational energy     687899.3 (Joules/Mol)
                                  164.41187 (Kcal/Mol)
 Warning -- explicit consideration of  25 degrees of freedom as
           vibrations may cause significant error
 Vibrational temperatures:     15.06    31.05    42.43    93.00   115.45
          (Kelvin)            117.41   169.86   206.85   234.52   309.60
                              334.79   382.11   394.54   432.00   480.75
                              484.32   557.59   575.28   699.00   710.09
                              727.92   769.12   808.75   831.39   848.81
                              946.32  1069.89  1077.08  1084.50  1117.80
                             1137.79  1322.50  1332.90  1364.43  1385.16
                             1403.99  1412.28  1479.77  1516.67  1524.40
                             1549.60  1567.00  1599.51  1652.79  1671.44
                             1689.47  1764.04  1765.25  1839.88  1847.04
                             1867.26  1877.42  1884.82  1905.66  1929.90
                             1940.25  2018.43  2048.36  2091.53  2096.57
                             2134.15  2141.94  2157.66  2199.98  2211.18
                             2402.76  2468.40  2491.45  2499.00  4271.24
                             4299.09  4334.05  4343.08  4383.11  4399.84
                             4506.21  4517.45  4522.60  4535.54  4566.76
                             4598.64  4640.89  4726.37  5202.58  5251.23
                             5511.93

 Zero-point correction=                           0.262007 (Hartree/Particle)
 Thermal correction to Energy=                    0.278285
 Thermal correction to Enthalpy=                  0.279229
 Thermal correction to Gibbs Free Energy=         0.214382
 Sum of electronic and zero-point Energies=          -1028.612448
 Sum of electronic and thermal Energies=             -1028.596170
 Sum of electronic and thermal Enthalpies=           -1028.595226
 Sum of electronic and thermal Free Energies=        -1028.660073

                     E (Thermal)             CV                S
                      KCal/Mol        Cal/Mol-Kelvin    Cal/Mol-Kelvin
 Total                  174.626             58.692            136.483
 Electronic               0.000              0.000              0.000
 Translational            0.889              2.981             42.163
 Rotational               0.889              2.981             33.394
 Vibrational            172.849             52.730             60.926
 Vibration     1          0.593              1.987              7.920
 Vibration     2          0.593              1.985              6.483
 Vibration     3          0.593              1.984              5.863
 Vibration     4          0.597              1.971              4.310
 Vibration     5          0.600              1.963              3.885
 Vibration     6          0.600              1.962              3.852
 Vibration     7          0.608              1.934              3.132
 Vibration     8          0.616              1.909              2.753
 Vibration     9          0.623              1.888              2.515
 Vibration    10          0.645              1.818              1.999
 Vibration    11          0.653              1.791              1.858
 Vibration    12          0.671              1.736              1.625
 Vibration    13          0.677              1.721              1.569
 Vibration    14          0.693              1.673              1.415
 Vibration    15          0.716              1.607              1.240
 Vibration    16          0.717              1.602              1.228
 Vibration    17          0.756              1.497              1.010
 Vibration    18          0.766              1.470              0.963
 Vibration    19          0.842              1.281              0.695
 Vibration    20          0.849              1.264              0.674
 Vibration    21          0.861              1.237              0.643
 Vibration    22          0.890              1.174              0.577
 Vibration    23          0.918              1.113              0.520
 Vibration    24          0.934              1.079              0.489
 Vibration    25          0.947              1.053              0.467

 Optimization completed.
    -- Stationary point found.
 Normal termination of Gaussian 16 at Sun May 28 03:53:52 2023.
