 Gaussian 16, Revision A.03,
 Gaussian 16:  ES64L-G16RevA.03 25-Dec-2016

 -----------------------------
 # opt freq b3lyp/6-31g(2df,p)
 -----------------------------

 -------------------
 Title Card Required
 -------------------
 Symbolic Z-matrix:
 Charge =  0 Multiplicity = 1

 SCF Done:  E(RB3LYP) =  -1052.76125573     A.U. after   13 cycles
 SCF Done:  E(RB3LYP) =  -1052.77262530     A.U. after   12 cycles
 SCF Done:  E(RB3LYP) =  -1052.77967022     A.U. after   12 cycles
 SCF Done:  E(RB3LYP) =  -1052.78660396     A.U. after   13 cycles
 SCF Done:  E(RB3LYP) =  -1052.78932698     A.U. after   13 cycles
 SCF Done:  E(RB3LYP) =  -1052.78534712     A.U. after   13 cycles
 SCF Done:  E(RB3LYP) =  -1052.78829552     A.U. after   13 cycles
 SCF Done:  E(RB3LYP) =  -1052.79195423     A.U. after   10 cycles
 SCF Done:  E(RB3LYP) =  -1052.79455102     A.U. after   12 cycles
 SCF Done:  E(RB3LYP) =  -1052.79566936     A.U. after   12 cycles
 SCF Done:  E(RB3LYP) =  -1052.80525336     A.U. after    9 cycles
 SCF Done:  E(RB3LYP) =  -1052.80526627     A.U. after    9 cycles
 SCF Done:  E(RB3LYP) =  -1052.80527124     A.U. after    9 cycles
 SCF Done:  E(RB3LYP) =  -1052.80527294     A.U. after    9 cycles
 SCF Done:  E(RB3LYP) =  -1052.80527440     A.U. after    9 cycles
 SCF Done:  E(RB3LYP) =  -1052.80527561     A.U. after    9 cycles
 SCF Done:  E(RB3LYP) =  -1052.80527583     A.U. after    7 cycles
 SCF Done:  E(RB3LYP) =  -1052.80527598     A.U. after    6 cycles
 SCF Done:  E(RB3LYP) =  -1052.80527603     A.U. after    6 cycles
 Optimization completed.
    -- Stationary point found.
 Normal termination of Gaussian 16 at Tue May 23 05:44:04 2023.

 ----------------------------------------------------------------------
 #N Geom=AllCheck Guess=TCheck SCRF=Check GenChk RB3LYP/6-31G(2df,p) Fr
 eq
 ----------------------------------------------------------------------

 Structure from the checkpoint file:  "CdCCSCqOOrOCqCOrCCC.chk"
 -------------------
 Title Card Required
 -------------------
 Charge =  0 Multiplicity = 1

                         Standard orientation:
 ---------------------------------------------------------------------
 Center     Atomic      Atomic             Coordinates (Angstroms)
 Number     Number       Type             X           Y           Z
 ---------------------------------------------------------------------
      1          6           0        5.291540   -1.662433    0.261727
      2          6           0        4.522442   -0.651931   -0.132617
      3          6           0        3.242182   -0.254731    0.532674
      4         16           0        1.834883   -0.553186   -0.626646
      5          6           0        0.579422    0.562247    0.100936
      6          8           0        1.100473    1.859381    0.001420
      7          8           0        0.261105    2.712395    0.820494
      8          8           0       -0.576550    0.422298   -0.661739
      9          6           0       -1.825389    0.196969    0.001739
     10          6           0       -2.787050    1.276178   -0.500641
     11          8           0       -2.421814    2.592468   -0.083836
     12          6           0       -2.308789   -1.227908   -0.296089
     13          6           0       -3.505298   -1.693287    0.544117
     14          6           0       -3.874760   -3.155117    0.274388
     15          1           0        6.216296   -1.908176   -0.248908
     16          1           0        5.029099   -2.280186    1.115998
     17          1           0        4.804718   -0.056651   -0.998334
     18          1           0        3.227972    0.814620    0.756899
     19          1           0        3.084932   -0.821594    1.454039
     20          1           0        0.392610    0.326692    1.156581
     21          1           0       -0.523810    2.821745    0.245065
     22          1           0       -1.686670    0.318808    1.086837
     23          1           0       -3.814443    1.049561   -0.190983
     24          1           0       -2.754500    1.286481   -1.593903
     25          1           0       -2.686848    2.699068    0.836018
     26          1           0       -1.459666   -1.898615   -0.121404
     27          1           0       -2.542331   -1.307352   -1.365916
     28          1           0       -4.379871   -1.060934    0.347268
     29          1           0       -3.271757   -1.566497    1.609915
     30          1           0       -4.142971   -3.307172   -0.776676
     31          1           0       -4.726546   -3.469161    0.885132
     32          1           0       -3.035842   -3.821910    0.500603
 ---------------------------------------------------------------------

 SCF Done:  E(RB3LYP) =  -1052.80527603     A.U. after    1 cycles

 The electronic state is 1-A.
 Alpha  occ. eigenvalues --  -88.86769 -19.19279 -19.17519 -19.16844 -19.15925
 Alpha  occ. eigenvalues --  -10.30448 -10.24993 -10.24514 -10.21247 -10.19485
 Alpha  occ. eigenvalues --  -10.19168 -10.19029 -10.18244 -10.17977  -7.93129
 Alpha  occ. eigenvalues --   -5.89612  -5.89267  -5.88638  -1.12000  -1.05326
 Alpha  occ. eigenvalues --   -1.04025  -0.90388  -0.81413  -0.80639  -0.76346
 Alpha  occ. eigenvalues --   -0.73887  -0.68939  -0.67225  -0.62668  -0.60162
 Alpha  occ. eigenvalues --   -0.59164  -0.55584  -0.54277  -0.53910  -0.51582
 Alpha  occ. eigenvalues --   -0.47771  -0.47079  -0.46693  -0.45259  -0.44985
 Alpha  occ. eigenvalues --   -0.43954  -0.42999  -0.42130  -0.40165  -0.39302
 Alpha  occ. eigenvalues --   -0.38687  -0.37719  -0.36132  -0.35877  -0.35164
 Alpha  occ. eigenvalues --   -0.34821  -0.34115  -0.33619  -0.32710  -0.31336
 Alpha  occ. eigenvalues --   -0.28391  -0.27242  -0.27058  -0.25843  -0.22821
 Alpha virt. eigenvalues --    0.00694   0.01906   0.04805   0.05967   0.07587
 Alpha virt. eigenvalues --    0.09279   0.09865   0.10962   0.11624   0.12218
 Alpha virt. eigenvalues --    0.12837   0.13312   0.14497   0.14941   0.15216

 Mulliken charges:
               1
     1  C   -0.312945
     2  C    0.027539
     3  C   -0.252206
     4  S   -0.141703
     5  C    0.216124
     6  O   -0.166773
     7  O   -0.364785
     8  O   -0.256495
     9  C    0.060826
    10  C   -0.074340
    11  O   -0.413280
    12  C   -0.187927
    13  C   -0.181005
    14  C   -0.379446
    15  H    0.117804
    16  H    0.108252
    17  H    0.109099
    18  H    0.159824
    19  H    0.121001
    20  H    0.095282
    21  H    0.323772
    22  H    0.076526
    23  H    0.102983
    24  H    0.136551
    25  H    0.294335
    26  H    0.120644
    27  H    0.107286
    28  H    0.099859
    29  H    0.097719
    30  H    0.119609
    31  H    0.114649
    32  H    0.121221
 Sum of Mulliken charges =  -0.00000

 Dipole moment (field-independent basis, Debye):
    X=             -3.2379    Y=             -1.5849    Z=              2.2218  Tot=              4.2347
 Quadrupole moment (field-independent basis, Debye-Ang):
   XX=            -78.6928   YY=            -98.2621   ZZ=            -92.0170
   XY=             -4.3576   XZ=             -1.3075   YZ=              0.1033

  Exact polarizability: 180.084 -17.517 137.499   0.253   0.269 106.320
 Approx polarizability: 218.847 -27.533 197.610   1.191   2.648 176.445

                      1                      2                      3
                      A                      A                      A
 Frequencies --     19.2887                30.0805                43.6205
 Red. masses --      4.4682                 5.7899                 3.4438
 Frc consts  --      0.0010                 0.0031                 0.0039
 IR Inten    --      1.6020                 0.3927                 0.2184

                      4                      5                      6
                      A                      A                      A
 Frequencies --     53.8044                63.2891                77.6894
 Red. masses --      2.2597                 2.1700                 3.1404
 Frc consts  --      0.0039                 0.0051                 0.0112
 IR Inten    --      0.5746                 0.3698                 1.1731

                      7                      8                      9
                      A                      A                      A
 Frequencies --     94.6688               130.9900               159.2717
 Red. masses --      3.3629                 3.8939                 3.9216
 Frc consts  --      0.0178                 0.0394                 0.0586
 IR Inten    --      0.3554                 8.8396                 0.3210

                     10                     11                     12
                      A                      A                      A
 Frequencies --    165.8637               186.8600               210.5647
 Red. masses --      5.5779                 2.7423                 5.2649
 Frc consts  --      0.0904                 0.0564                 0.1375
 IR Inten    --      6.3610                 0.9292                 0.8806

                     13                     14                     15
                      A                      A                      A
 Frequencies --    224.1815               247.4765               272.4950
 Red. masses --      3.5762                 1.1173                 2.9502
 Frc consts  --      0.1059                 0.0403                 0.1291
 IR Inten    --      9.1610                 0.0797                 1.8844

                     16                     17                     18
                      A                      A                      A
 Frequencies --    279.0816               315.5545               346.7712
 Red. masses --      3.3654                 3.0848                 3.5120
 Frc consts  --      0.1544                 0.1810                 0.2488
 IR Inten    --      0.8806                 6.7136                44.3932

                     19                     20                     21
                      A                      A                      A
 Frequencies --    363.7046               376.5384               415.6888
 Red. masses --      3.1372                 1.9295                 2.2137
 Frc consts  --      0.2445                 0.1612                 0.2254
 IR Inten    --     27.7506                76.7466                 1.3683

                     22                     23                     24
                      A                      A                      A
 Frequencies --    434.5009               495.8792               548.1548
 Red. masses --      7.9350                 2.9436                 3.3328
 Frc consts  --      0.8826                 0.4265                 0.5900
 IR Inten    --      2.1856                15.9565                 6.5313

                     25                     26                     27
                      A                      A                      A
 Frequencies --    591.8762               603.4557               666.1237
 Red. masses --      2.5835                 2.9498                 1.1263
 Frc consts  --      0.5332                 0.6329                 0.2945
 IR Inten    --      3.1855                14.2397               127.2284

                     28                     29                     30
                      A                      A                      A
 Frequencies --    740.8235               766.7525               838.8090
 Red. masses --      1.1229                 2.8272                 2.0009
 Frc consts  --      0.3631                 0.9793                 0.8295
 IR Inten    --      3.9958                19.8383                10.3051

                     31                     32                     33
                      A                      A                      A
 Frequencies --    857.6689               887.0538               900.8668
 Red. masses --      2.1909                 1.8512                 1.5232
 Frc consts  --      0.9496                 0.8582                 0.7283
 IR Inten    --     34.2974                19.4885                 8.6267

                     34                     35                     36
                      A                      A                      A
 Frequencies --    909.5718               917.5143               950.9744
 Red. masses --      1.8839                11.4713                 2.0156
 Frc consts  --      0.9183                 5.6897                 1.0740
 IR Inten    --      3.9166                 2.4448                 3.4947

                     37                     38                     39
                      A                      A                      A
 Frequencies --    954.1283               978.6515              1023.3077
 Red. masses --      1.4364                 1.7165                 3.1521
 Frc consts  --      0.7704                 0.9686                 1.9448
 IR Inten    --     28.6947                 5.1028                 3.3935

                     40                     41                     42
                      A                      A                      A
 Frequencies --   1036.8592              1038.9073              1040.8596
 Red. masses --      1.1890                 4.1604                 3.6760
 Frc consts  --      0.7531                 2.6457                 2.3464
 IR Inten    --     14.1045               104.8771                27.7941

                     43                     44                     45
                      A                      A                      A
 Frequencies --   1062.6000              1089.2103              1090.6824
 Red. masses --      3.0357                 1.3922                 2.0512
 Frc consts  --      2.0195                 0.9732                 1.4377
 IR Inten    --     29.7051                 0.6109                34.8595

                     46                     47                     48
                      A                      A                      A
 Frequencies --   1109.7279              1135.6403              1142.7152
 Red. masses --      4.8200                 1.8250                 2.4258
 Frc consts  --      3.4973                 1.3867                 1.8663
 IR Inten    --    418.9491                38.9583                50.7866

                     49                     50                     51
                      A                      A                      A
 Frequencies --   1215.7694              1223.8526              1240.5370
 Red. masses --      1.4610                 1.4896                 1.2625
 Frc consts  --      1.2723                 1.3146                 1.1447
 IR Inten    --      1.6351                11.8052                55.7279

                     52                     53                     54
                      A                      A                      A
 Frequencies --   1263.6872              1276.3331              1300.2338
 Red. masses --      1.2751                 1.3313                 1.2598
 Frc consts  --      1.1997                 1.2778                 1.2549
 IR Inten    --     13.6133                29.8538                 1.7751

                     55                     56                     57
                      A                      A                      A
 Frequencies --   1320.8566              1326.3010              1347.2911
 Red. masses --      1.1493                 1.2286                 1.1990
 Frc consts  --      1.1814                 1.2734                 1.2823
 IR Inten    --      0.9270                 0.3234                 0.6279

                     58                     59                     60
                      A                      A                      A
 Frequencies --   1357.2136              1387.0443              1404.4161
 Red. masses --      1.1648                 1.4236                 1.1992
 Frc consts  --      1.2642                 1.6137                 1.3936
 IR Inten    --     18.0081                 2.0236                36.5891

                     61                     62                     63
                      A                      A                      A
 Frequencies --   1408.9982              1413.6894              1422.8599
 Red. masses --      1.3650                 1.2340                 1.2892
 Frc consts  --      1.5967                 1.4531                 1.5378
 IR Inten    --      0.5818                 1.8719                 4.3467

                     64                     65                     66
                      A                      A                      A
 Frequencies --   1448.7742              1481.1965              1483.5405
 Red. masses --      1.1491                 1.0817                 1.1266
 Frc consts  --      1.4210                 1.3982                 1.4608
 IR Inten    --      2.3843                 2.4971                 3.3366

                     67                     68                     69
                      A                      A                      A
 Frequencies --   1486.9154              1494.1760              1499.5459
 Red. masses --      1.0792                 1.0625                 1.0882
 Frc consts  --      1.4058                 1.3976                 1.4417
 IR Inten    --      0.9948                 2.4026                52.9292

                     70                     71                     72
                      A                      A                      A
 Frequencies --   1499.7629              1511.0177              1712.0525
 Red. masses --      1.0412                 1.0850                 4.7096
 Frc consts  --      1.3799                 1.4596                 8.1334
 IR Inten    --      4.8691                 3.0440                 7.0914

                     73                     74                     75
                      A                      A                      A
 Frequencies --   2989.0866              3013.4057              3016.4547
 Red. masses --      1.0826                 1.0606                 1.0826
 Frc consts  --      5.6992                 5.6745                 5.8040
 IR Inten    --      9.9851                13.5245                22.3170

                     76                     77                     78
                      A                      A                      A
 Frequencies --   3028.2007              3032.4496              3033.8684
 Red. masses --      1.0586                 1.0615                 1.0447
 Frc consts  --      5.7193                 5.7513                 5.6655
 IR Inten    --     21.2110                50.2215                24.7019

                     79                     80                     81
                      A                      A                      A
 Frequencies --   3045.0492              3055.0684              3074.6354
 Red. masses --      1.0925                 1.0563                 1.1026
 Frc consts  --      5.9683                 5.8088                 6.1414
 IR Inten    --     15.3365                14.9668                24.4720

                     82                     83                     84
                      A                      A                      A
 Frequencies --   3101.4336              3102.9011              3106.2795
 Red. masses --      1.1021                 1.1017                 1.1014
 Frc consts  --      6.2460                 6.2497                 6.2614
 IR Inten    --     49.6742                11.1980                39.2711

                     85                     86                     87
                      A                      A                      A
 Frequencies --   3115.3267              3143.2182              3159.2631
 Red. masses --      1.1068                 1.0596                 1.0925
 Frc consts  --      6.3288                 6.1680                 6.4246
 IR Inten    --      1.7992                 8.3076                 6.0927

                     88                     89                     90
                      A                      A                      A
 Frequencies --   3228.7677              3563.7671              3814.2011
 Red. masses --      1.1143                 1.0689                 1.0663
 Frc consts  --      6.8443                 7.9986                 9.1402
 IR Inten    --     13.9532               322.6094                34.6473

 - Thermochemistry -
 -------------------
 Temperature   298.150 Kelvin.  Pressure   1.00000 Atm.
 Atom     1 has atomic number  6 and mass  12.00000

 Molecular mass:   222.09258 amu.
 Principal axes and moments of inertia in atomic units:
                           1         2         3
     Eigenvalues --  2367.780756257.911088192.97103
           X            0.99987   0.01640   0.00091
           Y           -0.01639   0.99983  -0.00856
           Z           -0.00105   0.00855   0.99996
 This molecule is an asymmetric top.
 Rotational symmetry number  1.
 Warning -- assumption of classical behavior for rotation
           may cause significant error
 Rotational temperatures (Kelvin)      0.03658     0.01384     0.01057
 Rotational constants (GHZ):           0.76221     0.28839     0.22028
 Zero-point vibrational energy     706037.4 (Joules/Mol)
                                  168.74700 (Kcal/Mol)
 Warning -- explicit consideration of  26 degrees of freedom as
           vibrations may cause significant error
 Vibrational temperatures:     27.75    43.28    62.76    77.41    91.06
          (Kelvin)            111.78   136.21   188.47   229.16   238.64
                              268.85   302.96   322.55   356.06   392.06
                              401.54   454.01   498.93   523.29   541.75
                              598.08   625.15   713.46   788.67   851.58
                              868.24   958.40  1065.88  1103.19  1206.86
                             1233.99  1276.27  1296.15  1308.67  1320.10
                             1368.24  1372.78  1408.06  1472.31  1491.81
                             1494.76  1497.56  1528.84  1567.13  1569.25
                             1596.65  1633.93  1644.11  1749.22  1760.85
                             1784.86  1818.16  1836.36  1870.75  1900.42
                             1908.25  1938.45  1952.73  1995.65  2020.64
                             2027.23  2033.98  2047.18  2084.46  2131.11
                             2134.48  2139.34  2149.79  2157.51  2157.82
                             2174.02  2463.26  4300.63  4335.62  4340.01
                             4356.91  4363.02  4365.06  4381.15  4395.56
                             4423.71  4462.27  4464.38  4469.24  4482.26
                             4522.39  4545.47  4645.48  5127.47  5487.78

 Zero-point correction=                           0.268915 (Hartree/Particle)
 Thermal correction to Energy=                    0.286514
 Thermal correction to Enthalpy=                  0.287458
 Thermal correction to Gibbs Free Energy=         0.220812
 Sum of electronic and zero-point Energies=          -1052.536361
 Sum of electronic and thermal Energies=             -1052.518762
 Sum of electronic and thermal Enthalpies=           -1052.517818
 Sum of electronic and thermal Free Energies=        -1052.584464

                     E (Thermal)             CV                S
                      KCal/Mol        Cal/Mol-Kelvin    Cal/Mol-Kelvin
 Total                  179.790             62.279            140.268
 Electronic               0.000              0.000              0.000
 Translational            0.889              2.981             42.096
 Rotational               0.889              2.981             33.162
 Vibrational            178.013             56.317             65.009
 Vibration     1          0.593              1.986              6.706
 Vibration     2          0.594              1.984              5.824
 Vibration     3          0.595              1.980              5.087
 Vibration     4          0.596              1.976              4.672
 Vibration     5          0.597              1.972              4.352
 Vibration     6          0.599              1.964              3.948
 Vibration     7          0.603              1.953              3.561
 Vibration     8          0.612              1.922              2.931
 Vibration     9          0.621              1.892              2.558
 Vibration    10          0.624              1.884              2.482
 Vibration    11          0.632              1.858              2.259
 Vibration    12          0.643              1.825              2.039
 Vibration    13          0.649              1.804              1.925
 Vibration    14          0.661              1.767              1.748
 Vibration    15          0.675              1.724              1.580
 Vibration    16          0.679              1.712              1.539
 Vibration    17          0.703              1.644              1.333
 Vibration    18          0.725              1.582              1.181
 Vibration    19          0.737              1.547              1.106
 Vibration    20          0.747              1.520              1.053
 Vibration    21          0.779              1.436              0.907
 Vibration    22          0.795              1.395              0.844
 Vibration    23          0.851              1.259              0.669
 Vibration    24          0.903              1.144              0.548
 Vibration    25          0.949              1.049              0.464
 Vibration    26          0.962              1.024              0.444

 Optimization completed.
    -- Stationary point found.
 Normal termination of Gaussian 16 at Tue May 23 07:27:59 2023.
