 Gaussian 16, Revision A.03,
 Gaussian 16:  ES64L-G16RevA.03 25-Dec-2016

 -----------------------------
 # opt freq b3lyp/6-31g(2df,p)
 -----------------------------

 -------------------
 Title Card Required
 -------------------
 Symbolic Z-matrix:
 Charge =  0 Multiplicity = 1

 SCF Done:  E(RB3LYP) =  -661.493806413     A.U. after   13 cycles
 SCF Done:  E(RB3LYP) =  -661.503811592     A.U. after   11 cycles
 SCF Done:  E(RB3LYP) =  -661.505813715     A.U. after   11 cycles
 SCF Done:  E(RB3LYP) =  -661.506941717     A.U. after   11 cycles
 SCF Done:  E(RB3LYP) =  -661.507652315     A.U. after   10 cycles
 SCF Done:  E(RB3LYP) =  -661.508822706     A.U. after   11 cycles
 SCF Done:  E(RB3LYP) =  -661.508425913     A.U. after   13 cycles
 SCF Done:  E(RB3LYP) =  -661.510154855     A.U. after   10 cycles
 SCF Done:  E(RB3LYP) =  -661.510615745     A.U. after   10 cycles
 SCF Done:  E(RB3LYP) =  -661.510961540     A.U. after   10 cycles
 SCF Done:  E(RB3LYP) =  -661.511014439     A.U. after    9 cycles
 SCF Done:  E(RB3LYP) =  -661.511026901     A.U. after    9 cycles
 SCF Done:  E(RB3LYP) =  -661.511028386     A.U. after    7 cycles
 SCF Done:  E(RB3LYP) =  -661.511028907     A.U. after    7 cycles
 SCF Done:  E(RB3LYP) =  -661.511029281     A.U. after    7 cycles
 SCF Done:  E(RB3LYP) =  -661.511029366     A.U. after    6 cycles
 SCF Done:  E(RB3LYP) =  -661.511029456     A.U. after    7 cycles
 SCF Done:  E(RB3LYP) =  -661.511029515     A.U. after    7 cycles
 SCF Done:  E(RB3LYP) =  -661.511029526     A.U. after    5 cycles
 Optimization completed.
    -- Stationary point found.
 Normal termination of Gaussian 16 at Mon May 22 07:08:07 2023.

 ----------------------------------------------------------------------
 #N Geom=AllCheck Guess=TCheck SCRF=Check GenChk RB3LYP/6-31G(2df,p) Fr
 eq
 ----------------------------------------------------------------------

 Structure from the checkpoint file:  "CdCCCqCrCCCqCOrCCCCO.chk"
 -------------------
 Title Card Required
 -------------------
 Charge =  0 Multiplicity = 1

                         Standard orientation:
 ---------------------------------------------------------------------
 Center     Atomic      Atomic             Coordinates (Angstroms)
 Number     Number       Type             X           Y           Z
 ---------------------------------------------------------------------
      1          6           0        6.683717   -0.762277    0.364690
      2          6           0        5.665739   -0.203160   -0.283035
      3          6           0        4.373541    0.249475    0.333490
      4          6           0        3.117613   -0.421916   -0.272642
      5          6           0        3.111796   -1.930809    0.009380
      6          6           0        1.848727    0.288889    0.235112
      7          6           0        0.546379   -0.177006   -0.432396
      8          6           0       -0.740573    0.540969    0.028948
      9          6           0       -0.814550    2.005438   -0.440902
     10          8           0        0.141624    2.878278    0.146911
     11          6           0       -1.989693   -0.230226   -0.454759
     12          6           0       -3.295784    0.105917    0.278171
     13          6           0       -4.485962   -0.726679   -0.212103
     14          6           0       -5.788988   -0.397000    0.516917
     15          8           0       -6.877267   -1.209903    0.107057
     16          1           0        7.594652   -1.059040   -0.144724
     17          1           0        6.648520   -0.940119    1.436191
     18          1           0        5.748893   -0.045322   -1.359217
     19          1           0        4.277148    1.336001    0.196575
     20          1           0        4.397148    0.071768    1.416777
     21          1           0        3.165414   -0.279062   -1.363249
     22          1           0        2.994653   -2.122949    1.083449
     23          1           0        4.051490   -2.392523   -0.306809
     24          1           0        2.297314   -2.442159   -0.511287
     25          1           0        1.958376    1.366493    0.087375
     26          1           0        1.768031    0.134831    1.322239
     27          1           0        0.413675   -1.249941   -0.249701
     28          1           0        0.637051   -0.067446   -1.523416
     29          1           0       -0.755897    0.542214    1.131630
     30          1           0       -1.829336    2.398357   -0.280658
     31          1           0       -0.623053    2.048438   -1.519970
     32          1           0       -0.006730    2.877581    1.098013
     33          1           0       -1.800903   -1.304940   -0.342074
     34          1           0       -2.121764   -0.063792   -1.533853
     35          1           0       -3.535378    1.171116    0.167923
     36          1           0       -3.155637   -0.063330    1.354967
     37          1           0       -4.277931   -1.796566   -0.087658
     38          1           0       -4.628042   -0.561398   -1.290520
     39          1           0       -6.023530    0.674232    0.399700
     40          1           0       -5.673735   -0.581472    1.591085
     41          1           0       -7.027049   -1.047654   -0.829754
 ---------------------------------------------------------------------

 SCF Done:  E(RB3LYP) =  -661.511029526     A.U. after    1 cycles

 The electronic state is 1-A.
 Alpha  occ. eigenvalues --  -19.13659 -19.13191 -10.22488 -10.22475 -10.18775
 Alpha  occ. eigenvalues --  -10.18590 -10.18344 -10.18191 -10.18148 -10.18033
 Alpha  occ. eigenvalues --  -10.17621 -10.17514 -10.16917 -10.16718 -10.16421
 Alpha  occ. eigenvalues --   -1.01638  -1.01288  -0.82210  -0.80846  -0.77969
 Alpha  occ. eigenvalues --   -0.75660  -0.71436  -0.68906  -0.67386  -0.64672
 Alpha  occ. eigenvalues --   -0.61850  -0.58879  -0.57388  -0.55365  -0.54562
 Alpha  occ. eigenvalues --   -0.50539  -0.49804  -0.47801  -0.46354  -0.45633
 Alpha  occ. eigenvalues --   -0.45145  -0.43723  -0.42850  -0.42524  -0.41724
 Alpha  occ. eigenvalues --   -0.40881  -0.39653  -0.39416  -0.37519  -0.37092
 Alpha  occ. eigenvalues --   -0.36388  -0.35237  -0.35133  -0.34557  -0.33906
 Alpha  occ. eigenvalues --   -0.33340  -0.32722  -0.32280  -0.31943  -0.31584
 Alpha  occ. eigenvalues --   -0.31357  -0.29641  -0.26359  -0.25866  -0.24850
 Alpha virt. eigenvalues --    0.02575   0.07275   0.07670   0.08285   0.09640
 Alpha virt. eigenvalues --    0.10262   0.10947   0.11562   0.12484   0.12821
 Alpha virt. eigenvalues --    0.13330   0.13749   0.15210   0.15664   0.16158

 Mulliken charges:
               1
     1  C   -0.322105
     2  C    0.033278
     3  C   -0.233713
     4  C    0.033180
     5  C   -0.388581
     6  C   -0.207261
     7  C   -0.203211
     8  C   -0.021317
     9  C   -0.056647
    10  O   -0.413114
    11  C   -0.197403
    12  C   -0.196841
    13  C   -0.196560
    14  C   -0.057932
    15  O   -0.418320
    16  H    0.107744
    17  H    0.100093
    18  H    0.083284
    19  H    0.102860
    20  H    0.090889
    21  H    0.066744
    22  H    0.105901
    23  H    0.119339
    24  H    0.111258
    25  H    0.118924
    26  H    0.077295
    27  H    0.091854
    28  H    0.089226
    29  H    0.057209
    30  H    0.087266
    31  H    0.108645
    32  H    0.279792
    33  H    0.095938
    34  H    0.093431
    35  H    0.098556
    36  H    0.096613
    37  H    0.106323
    38  H    0.084357
    39  H    0.083666
    40  H    0.109958
    41  H    0.279380
 Sum of Mulliken charges =  -0.00000

 Dipole moment (field-independent basis, Debye):
    X=             -0.5288    Y=              0.3526    Z=             -0.3074  Tot=              0.7060
 Quadrupole moment (field-independent basis, Debye-Ang):
   XX=           -110.0149   YY=           -103.0499   ZZ=            -90.4475
   XY=             -8.3109   XZ=              6.9957   YZ=              3.3253

  Exact polarizability: 200.481  -5.833 131.136   5.362  -0.908 129.006
 Approx polarizability: 221.917  -8.559 195.060   9.669  -5.486 209.851

                      1                      2                      3
                      A                      A                      A
 Frequencies --     17.5918                29.5089                30.0906
 Red. masses --      3.1986                 2.8830                 2.2924
 Frc consts  --      0.0006                 0.0015                 0.0012
 IR Inten    --      0.0142                 0.1038                 0.4861

                      4                      5                      6
                      A                      A                      A
 Frequencies --     50.4289                57.0163                73.3076
 Red. masses --      2.8408                 3.6831                 2.8811
 Frc consts  --      0.0043                 0.0071                 0.0091
 IR Inten    --      1.9676                 1.8632                 2.0788

                      7                      8                      9
                      A                      A                      A
 Frequencies --     82.4169               105.1379               119.2953
 Red. masses --      2.4606                 2.7892                 2.5983
 Frc consts  --      0.0098                 0.0182                 0.0218
 IR Inten    --      1.4318                 0.7319                 0.3179

                     10                     11                     12
                      A                      A                      A
 Frequencies --    126.5324               138.0538               149.2798
 Red. masses --      2.0912                 2.0717                 3.0852
 Frc consts  --      0.0197                 0.0233                 0.0405
 IR Inten    --      0.3875                 0.7804                 0.0992

                     13                     14                     15
                      A                      A                      A
 Frequencies --    185.0593               202.1059               234.6196
 Red. masses --      4.2896                 2.8819                 1.1460
 Frc consts  --      0.0866                 0.0694                 0.0372
 IR Inten    --      0.0286                 0.0205                 0.4101

                     16                     17                     18
                      A                      A                      A
 Frequencies --    237.6814               269.7058               295.0302
 Red. masses --      2.6505                 2.5059                 1.2107
 Frc consts  --      0.0882                 0.1074                 0.0621
 IR Inten    --      7.5163                 3.2977                63.3922

                     19                     20                     21
                      A                      A                      A
 Frequencies --    304.9258               340.1539               345.0067
 Red. masses --      1.1839                 3.8216                 2.7117
 Frc consts  --      0.0649                 0.2605                 0.1902
 IR Inten    --    119.6315                 9.5211                42.8905

                     22                     23                     24
                      A                      A                      A
 Frequencies --    384.1534               399.0993               430.1708
 Red. masses --      2.5771                 1.9579                 2.1266
 Frc consts  --      0.2241                 0.1837                 0.2319
 IR Inten    --     15.8171                 1.5945                 1.8188

                     25                     26                     27
                      A                      A                      A
 Frequencies --    457.4304               472.6213               521.1832
 Red. masses --      2.7311                 2.3179                 3.0077
 Frc consts  --      0.3367                 0.3051                 0.4814
 IR Inten    --      0.8607                 1.7133                 2.5199

                     28                     29                     30
                      A                      A                      A
 Frequencies --    570.0589               652.9226               734.3793
 Red. masses --      2.8354                 1.5633                 1.1014
 Frc consts  --      0.5429                 0.3927                 0.3500
 IR Inten    --      5.6468                 5.4778                 3.2313

                     31                     32                     33
                      A                      A                      A
 Frequencies --    763.1842               779.5259               853.0853
 Red. masses --      1.2486                 1.2155                 2.3844
 Frc consts  --      0.4285                 0.4352                 1.0224
 IR Inten    --      4.2032                 0.7727                 1.0430

                     34                     35                     36
                      A                      A                      A
 Frequencies --    869.8058               885.9970               905.0482
 Red. masses --      1.9604                 1.3565                 1.4620
 Frc consts  --      0.8739                 0.6274                 0.7056
 IR Inten    --      3.2330                 0.7591                 4.5194

                     37                     38                     39
                      A                      A                      A
 Frequencies --    920.4389               930.4712               945.6674
 Red. masses --      1.9415                 1.7031                 1.3830
 Frc consts  --      0.9691                 0.8687                 0.7287
 IR Inten    --      2.8210                 9.5634                27.0652

                     40                     41                     42
                      A                      A                      A
 Frequencies --    966.2301               979.8525              1003.6656
 Red. masses --      1.7347                 2.3001                 2.0534
 Frc consts  --      0.9542                 1.3011                 1.2187
 IR Inten    --      4.1198                26.1681                 3.5360

                     43                     44                     45
                      A                      A                      A
 Frequencies --   1027.6050              1035.6401              1039.4275
 Red. masses --      3.7889                 1.6373                 1.8444
 Frc consts  --      2.3573                 1.0346                 1.1741
 IR Inten    --      7.5684                12.1972                17.3200

                     46                     47                     48
                      A                      A                      A
 Frequencies --   1049.8045              1063.6061              1073.2244
 Red. masses --      1.3965                 2.5475                 1.9961
 Frc consts  --      0.9068                 1.6980                 1.3546
 IR Inten    --      6.9033                18.1953                36.6430

                     49                     50                     51
                      A                      A                      A
 Frequencies --   1075.7905              1081.7258              1086.4465
 Red. masses --      2.1065                 3.5722                 3.1461
 Frc consts  --      1.4363                 2.4628                 2.1880
 IR Inten    --     39.8630                45.0187                55.5598

                     52                     53                     54
                      A                      A                      A
 Frequencies --   1118.4776              1128.5061              1142.4535
 Red. masses --      1.5694                 1.6761                 1.7944
 Frc consts  --      1.1568                 1.2576                 1.3799
 IR Inten    --      1.3866                 2.8396                 2.6159

                     55                     56                     57
                      A                      A                      A
 Frequencies --   1147.4141              1168.0191              1207.1768
 Red. masses --      1.6629                 1.9578                 1.7603
 Frc consts  --      1.2899                 1.5737                 1.5114
 IR Inten    --      5.6882                10.2136                 7.6555

                     58                     59                     60
                      A                      A                      A
 Frequencies --   1239.9736              1251.4360              1262.7127
 Red. masses --      1.3873                 1.3219                 1.3344
 Frc consts  --      1.2567                 1.2197                 1.2535
 IR Inten    --      1.9322                 2.9676                 0.6924

                     61                     62                     63
                      A                      A                      A
 Frequencies --   1277.8095              1280.5391              1303.3433
 Red. masses --      1.2243                 1.2728                 1.2577
 Frc consts  --      1.1778                 1.2297                 1.2588
 IR Inten    --      1.3830                11.5910                 5.3124

                     64                     65                     66
                      A                      A                      A
 Frequencies --   1319.8032              1323.2839              1327.2982
 Red. masses --      1.1827                 1.1326                 1.1962
 Frc consts  --      1.2138                 1.1685                 1.2416
 IR Inten    --      3.5857                 0.0953                 0.2981

                     67                     68                     69
                      A                      A                      A
 Frequencies --   1329.4129              1339.7779              1356.3066
 Red. masses --      1.1494                 1.2685                 1.3006
 Frc consts  --      1.1968                 1.3416                 1.4096
 IR Inten    --      1.4637                 0.4196                 1.8217

                     70                     71                     72
                      A                      A                      A
 Frequencies --   1364.3162              1377.8776              1379.3677
 Red. masses --      1.3324                 1.3876                 1.3610
 Frc consts  --      1.4612                 1.5521                 1.5257
 IR Inten    --      1.3300                 0.8632                 1.8313

                     73                     74                     75
                      A                      A                      A
 Frequencies --   1389.5284              1399.2118              1402.2734
 Red. masses --      1.4361                 1.2921                 1.2847
 Frc consts  --      1.6337                 1.4905                 1.4884
 IR Inten    --      1.1210                 6.2592                27.2616

                     76                     77                     78
                      A                      A                      A
 Frequencies --   1406.1717              1413.3569              1423.5316
 Red. masses --      1.3793                 1.2940                 1.3019
 Frc consts  --      1.6069                 1.5230                 1.5544
 IR Inten    --      1.7514                 6.5877                59.2548

                     79                     80                     81
                      A                      A                      A
 Frequencies --   1425.4354              1454.5447              1475.5850
 Red. masses --      1.2959                 1.1611                 1.0941
 Frc consts  --      1.5514                 1.4474                 1.4036
 IR Inten    --     11.1218                 0.4594                 1.2076

                     82                     83                     84
                      A                      A                      A
 Frequencies --   1479.3713              1485.6812              1488.3059
 Red. masses --      1.1026                 1.0779                 1.0845
 Frc consts  --      1.4218                 1.4018                 1.4153
 IR Inten    --      2.3202                 0.3476                 1.5586

                     85                     86                     87
                      A                      A                      A
 Frequencies --   1498.3801              1500.5744              1502.4264
 Red. masses --      1.0615                 1.0659                 1.0885
 Frc consts  --      1.4042                 1.4141                 1.4476
 IR Inten    --      0.6179                 3.2126                 1.1715

                     88                     89                     90
                      A                      A                      A
 Frequencies --   1505.7768              1510.2810              1517.4606
 Red. masses --      1.0794                 1.0795                 1.0963
 Frc consts  --      1.4419                 1.4508                 1.4873
 IR Inten    --      0.6731                 7.4850                 0.8265

                     91                     92                     93
                      A                      A                      A
 Frequencies --   1715.3992              2964.9098              2965.7025
 Red. masses --      4.8247                 1.0710                 1.0804
 Frc consts  --      8.3647                 5.5469                 5.5989
 IR Inten    --      9.6949                54.5183                12.6715

                     94                     95                     96
                      A                      A                      A
 Frequencies --   2981.7291              2990.9560              2992.9680
 Red. masses --      1.0783                 1.0653                 1.0696
 Frc consts  --      5.6486                 5.6148                 5.6451
 IR Inten    --      3.0136                67.0964                 5.4190

                     97                     98                     99
                      A                      A                      A
 Frequencies --   2998.2704              3000.3545              3002.4519
 Red. masses --      1.0649                 1.0610                 1.0644
 Frc consts  --      5.6404                 5.6273                 5.6532
 IR Inten    --     10.0687                10.3930                16.3622

                    100                    101                    102
                      A                      A                      A
 Frequencies --   3007.0280              3015.4044              3026.3271
 Red. masses --      1.0666                 1.0620                 1.0418
 Frc consts  --      5.6821                 5.6895                 5.6216
 IR Inten    --     42.0715                88.2444                13.4466

                    103                    104                    105
                      A                      A                      A
 Frequencies --   3033.9619              3044.7975              3046.1334
 Red. masses --      1.0934                 1.0951                 1.0979
 Frc consts  --      5.9298                 5.9817                 6.0020
 IR Inten    --      3.5922                 6.9668                24.5274

                    106                    107                    108
                      A                      A                      A
 Frequencies --   3049.7345              3058.3619              3060.8125
 Red. masses --      1.0922                 1.0966                 1.0957
 Frc consts  --      5.9854                 6.0431                 6.0480
 IR Inten    --     13.4128                53.5620                25.4640

                    109                    110                    111
                      A                      A                      A
 Frequencies --   3074.7566              3094.6442              3096.9840
 Red. masses --      1.1013                 1.0951                 1.0914
 Frc consts  --      6.1342                 6.1789                 6.1677
 IR Inten    --    104.6156                29.1581                21.4158

                    112                    113                    114
                      A                      A                      A
 Frequencies --   3112.5728              3119.1658              3139.8503
 Red. masses --      1.1011                 1.0822                 1.0671
 Frc consts  --      6.2849                 6.2037                 6.1985
 IR Inten    --     32.4351                24.9584                 6.3142

                    115                    116                    117
                      A                      A                      A
 Frequencies --   3220.1076              3814.6572              3814.8055
 Red. masses --      1.1143                 1.0661                 1.0661
 Frc consts  --      6.8073                 9.1401                 9.1407
 IR Inten    --     18.2385                23.6285                 7.8842

 - Thermochemistry -
 -------------------
 Temperature   298.150 Kelvin.  Pressure   1.00000 Atm.
 Atom     1 has atomic number  6 and mass  12.00000

 Molecular mass:   214.19328 amu.
 Principal axes and moments of inertia in atomic units:
                           1         2         3
     Eigenvalues --  1320.00216********************
           X            0.99998  -0.00620   0.00172
           Y            0.00618   0.99996   0.00610
           Z           -0.00176  -0.00609   0.99998
 This molecule is an asymmetric top.
 Rotational symmetry number  1.
 Warning -- assumption of classical behavior for rotation
           may cause significant error
 Rotational temperatures (Kelvin)      0.06562     0.00696     0.00645
 Rotational constants (GHZ):           1.36723     0.14510     0.13437
 Zero-point vibrational energy     979246.7 (Joules/Mol)
                                  234.04557 (Kcal/Mol)
 Warning -- explicit consideration of  28 degrees of freedom as
           vibrations may cause significant error
 Vibrational temperatures:     25.31    42.46    43.29    72.56    82.03
          (Kelvin)            105.47   118.58   151.27   171.64   182.05
                              198.63   214.78   266.26   290.79   337.57
                              341.97   388.05   424.48   438.72   489.41
                              496.39   552.71   574.21   618.92   658.14
                              680.00   749.87   820.19   939.41  1056.61
                             1098.05  1121.56  1227.40  1251.46  1274.75
                             1302.16  1324.31  1338.74  1360.60  1390.19
                             1409.79  1444.05  1478.49  1490.06  1495.50
                             1510.43  1530.29  1544.13  1547.82  1556.36
                             1563.15  1609.24  1623.67  1643.74  1650.87
                             1680.52  1736.86  1784.05  1800.54  1816.76
                             1838.48  1842.41  1875.22  1898.90  1903.91
                             1909.69  1912.73  1927.64  1951.42  1962.95
                             1982.46  1984.60  1999.22  2013.15  2017.56
                             2023.17  2033.51  2048.14  2050.88  2092.77
                             2123.04  2128.49  2137.56  2141.34  2155.83
                             2158.99  2161.66  2166.48  2172.96  2183.29
                             2468.08  4265.84  4266.98  4290.04  4303.32
                             4306.21  4313.84  4316.84  4319.86  4326.44
                             4338.49  4354.21  4365.19  4380.78  4382.71
                             4387.89  4400.30  4403.83  4423.89  4452.50
                             4455.87  4478.30  4487.78  4517.54  4633.02
                             5488.44  5488.65

 Zero-point correction=                           0.372975 (Hartree/Particle)
 Thermal correction to Energy=                    0.392653
 Thermal correction to Enthalpy=                  0.393597
 Thermal correction to Gibbs Free Energy=         0.321901
 Sum of electronic and zero-point Energies=           -661.138054
 Sum of electronic and thermal Energies=              -661.118377
 Sum of electronic and thermal Enthalpies=            -661.117433
 Sum of electronic and thermal Free Energies=         -661.189129

                     E (Thermal)             CV                S
                      KCal/Mol        Cal/Mol-Kelvin    Cal/Mol-Kelvin
 Total                  246.393             70.074            150.897
 Electronic               0.000              0.000              0.000
 Translational            0.889              2.981             41.989
 Rotational               0.889              2.981             33.755
 Vibrational            244.616             64.112             75.154
 Vibration     1          0.593              1.986              6.889
 Vibration     2          0.593              1.984              5.862
 Vibration     3          0.594              1.984              5.823
 Vibration     4          0.595              1.977              4.800
 Vibration     5          0.596              1.975              4.558
 Vibration     6          0.599              1.967              4.063
 Vibration     7          0.600              1.961              3.832
 Vibration     8          0.605              1.945              3.357
 Vibration     9          0.609              1.933              3.112
 Vibration    10          0.611              1.927              2.998
 Vibration    11          0.614              1.915              2.831
 Vibration    12          0.618              1.903              2.681
 Vibration    13          0.631              1.860              2.277
 Vibration    14          0.639              1.837              2.114
 Vibration    15          0.654              1.788              1.843
 Vibration    16          0.656              1.783              1.820
 Vibration    17          0.674              1.729              1.598
 Vibration    18          0.689              1.683              1.445
 Vibration    19          0.696              1.664              1.390
 Vibration    20          0.720              1.595              1.211
 Vibration    21          0.723              1.585              1.189
 Vibration    22          0.753              1.504              1.023
 Vibration    23          0.765              1.472              0.966
 Vibration    24          0.791              1.405              0.858
 Vibration    25          0.816              1.344              0.774
 Vibration    26          0.829              1.311              0.730
 Vibration    27          0.876              1.203              0.607
 Vibration    28          0.926              1.096              0.504

 Optimization completed.
    -- Stationary point found.
 Normal termination of Gaussian 16 at Mon May 22 10:15:17 2023.
