 Gaussian 16, Revision A.03,
 Gaussian 16:  ES64L-G16RevA.03 25-Dec-2016

 -----------------------------
 # opt freq b3lyp/6-31g(2df,p)
 -----------------------------

 -------------------
 Title Card Required
 -------------------
 Symbolic Z-matrix:
 Charge =  0 Multiplicity = 1

 SCF Done:  E(RB3LYP) =  -508.594080727     A.U. after   12 cycles
 SCF Done:  E(RB3LYP) =  -508.606127667     A.U. after   11 cycles
 SCF Done:  E(RB3LYP) =  -508.607410466     A.U. after   10 cycles
 SCF Done:  E(RB3LYP) =  -508.607635699     A.U. after   10 cycles
 SCF Done:  E(RB3LYP) =  -508.607701264     A.U. after    9 cycles
 SCF Done:  E(RB3LYP) =  -508.607753542     A.U. after    9 cycles
 SCF Done:  E(RB3LYP) =  -508.607789102     A.U. after    9 cycles
 SCF Done:  E(RB3LYP) =  -508.607796182     A.U. after    9 cycles
 SCF Done:  E(RB3LYP) =  -508.607794932     A.U. after    8 cycles
 SCF Done:  E(RB3LYP) =  -508.607794252     A.U. after    8 cycles
 SCF Done:  E(RB3LYP) =  -508.611147621     A.U. after    8 cycles
 SCF Done:  E(RB3LYP) =  -508.611150389     A.U. after    9 cycles
 SCF Done:  E(RB3LYP) =  -508.611150945     A.U. after    7 cycles
 SCF Done:  E(RB3LYP) =  -508.611155329     A.U. after    9 cycles
 SCF Done:  E(RB3LYP) =  -508.611151962     A.U. after    9 cycles
 SCF Done:  E(RB3LYP) =  -508.611154673     A.U. after    9 cycles
 SCF Done:  E(RB3LYP) =  -508.611155439     A.U. after    7 cycles
 SCF Done:  E(RB3LYP) =  -508.611155134     A.U. after    7 cycles
 SCF Done:  E(RB3LYP) =  -508.611155260     A.U. after    6 cycles
 Optimization completed.
    -- Stationary point found.
 Normal termination of Gaussian 16 at Wed May 24 04:14:11 2023.

 ----------------------------------------------------------------------
 #N Geom=AllCheck Guess=TCheck SCRF=Check GenChk RB3LYP/6-31G(2df,p) Fr
 eq
 ----------------------------------------------------------------------

 Structure from the checkpoint file:  "CdCCCCCCCC1CCqdCrC1.chk"
 -------------------
 Title Card Required
 -------------------
 Charge =  0 Multiplicity = 1

                         Standard orientation:
 ---------------------------------------------------------------------
 Center     Atomic      Atomic             Coordinates (Angstroms)
 Number     Number       Type             X           Y           Z
 ---------------------------------------------------------------------
      1          6           0       -6.842030   -0.209131   -0.222539
      2          6           0       -5.755109    0.546136   -0.346118
      3          6           0       -4.507428    0.421796    0.480296
      4          6           0       -3.259279    0.101185   -0.361683
      5          6           0       -1.974634    0.021423    0.469419
      6          6           0       -0.728772   -0.299604   -0.363185
      7          6           0        0.557030   -0.379869    0.467199
      8          6           0        1.801034   -0.708246   -0.365857
      9          6           0        3.089556   -0.772699    0.450694
     10          6           0        3.655956    0.613923    0.909980
     11          6           0        4.771938    0.457485   -0.112402
     12          6           0        5.669894    1.285550   -0.623577
     13          6           0        4.385822   -0.986303   -0.398435
     14          1           0       -7.710968   -0.073055   -0.857830
     15          1           0       -6.908090   -0.994616    0.525646
     16          1           0       -5.733954    1.321404   -1.112809
     17          1           0       -4.646335   -0.351649    1.245754
     18          1           0       -4.331008    1.365006    1.018401
     19          1           0       -3.142606    0.866206   -1.141636
     20          1           0       -3.418247   -0.847975   -0.889640
     21          1           0       -2.094929   -0.740852    1.251914
     22          1           0       -1.824059    0.973627    0.997358
     23          1           0       -0.608468    0.462668   -1.145638
     24          1           0       -0.880311   -1.251423   -0.891188
     25          1           0        0.436625   -1.140544    1.251345
     26          1           0        0.707898    0.572979    0.992815
     27          1           0        1.918156    0.040409   -1.162921
     28          1           0        1.652803   -1.671210   -0.874311
     29          1           0        2.971617   -1.492685    1.266461
     30          1           0        4.012214    0.618259    1.945913
     31          1           0        2.994146    1.476541    0.778689
     32          1           0        5.747482    2.316997   -0.292985
     33          1           0        6.363905    0.967650   -1.395881
     34          1           0        5.076600   -1.716192    0.037968
     35          1           0        4.233655   -1.251417   -1.450178
 ---------------------------------------------------------------------

 SCF Done:  E(RB3LYP) =  -508.611155260     A.U. after    1 cycles

 The electronic state is 1-A.
 Alpha  occ. eigenvalues --  -10.18427 -10.18369 -10.18151 -10.18081 -10.17802
 Alpha  occ. eigenvalues --  -10.17781 -10.17760 -10.17613 -10.17598 -10.17565
 Alpha  occ. eigenvalues --  -10.17545 -10.17002 -10.16261  -0.84753  -0.80940
 Alpha  occ. eigenvalues --   -0.78665  -0.75361  -0.72183  -0.69260  -0.66261
 Alpha  occ. eigenvalues --   -0.64480  -0.59307  -0.57472  -0.56033  -0.54700
 Alpha  occ. eigenvalues --   -0.51050  -0.48257  -0.47157  -0.45867  -0.45177
 Alpha  occ. eigenvalues --   -0.43873  -0.42974  -0.42139  -0.40982  -0.39636
 Alpha  occ. eigenvalues --   -0.38584  -0.38194  -0.36484  -0.35603  -0.34723
 Alpha  occ. eigenvalues --   -0.33323  -0.32842  -0.32721  -0.31972  -0.31882
 Alpha  occ. eigenvalues --   -0.31140  -0.29954  -0.29328  -0.25001  -0.23989
 Alpha virt. eigenvalues --    0.01892   0.02558   0.08718   0.09871   0.10980
 Alpha virt. eigenvalues --    0.11523   0.12123   0.12171   0.12974   0.13239
 Alpha virt. eigenvalues --    0.14250   0.15024   0.15466   0.16293   0.16509

 Mulliken charges:
               1
     1  C   -0.319457
     2  C    0.034014
     3  C   -0.229986
     4  C   -0.171796
     5  C   -0.179378
     6  C   -0.181083
     7  C   -0.181837
     8  C   -0.193122
     9  C    0.020994
    10  C   -0.322740
    11  C    0.403700
    12  C   -0.456420
    13  C   -0.336414
    14  H    0.108173
    15  H    0.099992
    16  H    0.083411
    17  H    0.096031
    18  H    0.101440
    19  H    0.092611
    20  H    0.099423
    21  H    0.092125
    22  H    0.091224
    23  H    0.092061
    24  H    0.092221
    25  H    0.090995
    26  H    0.094994
    27  H    0.093896
    28  H    0.091170
    29  H    0.063591
    30  H    0.108474
    31  H    0.105785
    32  H    0.101349
    33  H    0.101816
    34  H    0.107480
    35  H    0.105266
 Sum of Mulliken charges =  -0.00000

 Dipole moment (field-independent basis, Debye):
    X=             -0.0329    Y=             -0.2675    Z=              0.2343  Tot=              0.3571
 Quadrupole moment (field-independent basis, Debye-Ang):
   XX=            -90.8427   YY=            -81.4139   ZZ=            -82.9590
   XY=             -1.5085   XZ=              0.7480   YZ=             -0.7861

  Exact polarizability: 188.816  15.922 124.413  -6.173  -4.096 114.424
 Approx polarizability: 209.914  26.183 195.340 -10.407  -9.115 176.273

                      1                      2                      3
                      A                      A                      A
 Frequencies --     16.9993                29.9377                35.1507
 Red. masses --      3.4249                 3.3427                 2.5791
 Frc consts  --      0.0006                 0.0018                 0.0019
 IR Inten    --      0.1257                 0.0389                 0.0352

                      4                      5                      6
                      A                      A                      A
 Frequencies --     56.6992                70.4054                98.7230
 Red. masses --      2.6686                 3.1318                 1.9507
 Frc consts  --      0.0051                 0.0091                 0.0112
 IR Inten    --      0.0166                 0.0180                 0.0094

                      7                      8                      9
                      A                      A                      A
 Frequencies --    120.2001               136.0240               160.0279
 Red. masses --      2.5485                 2.4033                 1.9623
 Frc consts  --      0.0217                 0.0262                 0.0296
 IR Inten    --      0.0347                 0.0061                 0.0015

                     10                     11                     12
                      A                      A                      A
 Frequencies --    166.0279               209.0653               248.9670
 Red. masses --      2.3745                 3.7748                 2.4793
 Frc consts  --      0.0386                 0.0972                 0.0905
 IR Inten    --      0.0180                 0.0265                 0.1139

                     13                     14                     15
                      A                      A                      A
 Frequencies --    335.3137               346.7450               378.2966
 Red. masses --      2.3329                 3.0737                 2.3344
 Frc consts  --      0.1545                 0.2177                 0.1968
 IR Inten    --      0.3070                 1.3010                 0.1625

                     16                     17                     18
                      A                      A                      A
 Frequencies --    388.1256               425.2786               472.4012
 Red. masses --      2.0508                 1.9976                 2.5562
 Frc consts  --      0.1820                 0.2129                 0.3361
 IR Inten    --      1.8204                 1.8509                 0.8458

                     19                     20                     21
                      A                      A                      A
 Frequencies --    476.5605               639.6724               658.3240
 Red. masses --      2.4349                 1.0506                 1.5493
 Frc consts  --      0.3258                 0.2533                 0.3956
 IR Inten    --      0.3012                 0.0109                 7.2425

                     22                     23                     24
                      A                      A                      A
 Frequencies --    684.3588               732.1575               743.3977
 Red. masses --      3.5933                 1.0667                 1.1295
 Frc consts  --      0.9915                 0.3369                 0.3678
 IR Inten    --      0.1992                 3.8046                 0.0747

                     25                     26                     27
                      A                      A                      A
 Frequencies --    782.6769               824.8374               850.6652
 Red. masses --      1.2980                 1.9103                 1.3981
 Frc consts  --      0.4685                 0.7657                 0.5961
 IR Inten    --      0.7857                 0.6050                 0.2966

                     28                     29                     30
                      A                      A                      A
 Frequencies --    863.9280               895.2757               914.3337
 Red. masses --      1.4437                 2.5831                 1.3652
 Frc consts  --      0.6349                 1.2199                 0.6725
 IR Inten    --      0.2849                 1.2697                31.2112

                     31                     32                     33
                      A                      A                      A
 Frequencies --    915.1349               932.9329               939.6416
 Red. masses --      1.7441                 1.8619                 1.8254
 Frc consts  --      0.8606                 0.9548                 0.9496
 IR Inten    --      1.5040                 0.6741                 7.0542

                     34                     35                     36
                      A                      A                      A
 Frequencies --    946.3319               967.6277              1003.4905
 Red. masses --      1.4191                 2.8120                 1.6005
 Frc consts  --      0.7488                 1.5512                 0.9496
 IR Inten    --     26.1207                 0.9182                 0.8727

                     37                     38                     39
                      A                      A                      A
 Frequencies --   1014.2498              1018.3059              1040.6790
 Red. masses --      3.4778                 2.2784                 1.1416
 Frc consts  --      2.1079                 1.3920                 0.7285
 IR Inten    --      0.4772                 0.0066                 6.7385

                     40                     41                     42
                      A                      A                      A
 Frequencies --   1054.8802              1058.6774              1066.0340
 Red. masses --      2.3343                 1.4508                 1.3572
 Frc consts  --      1.5304                 0.9581                 0.9088
 IR Inten    --      0.7955                 2.1039                 0.9323

                     43                     44                     45
                      A                      A                      A
 Frequencies --   1068.8165              1086.5164              1113.1046
 Red. masses --      2.1852                 1.8303                 2.2039
 Frc consts  --      1.4708                 1.2730                 1.6088
 IR Inten    --      0.1545                 1.2345                 0.1572

                     46                     47                     48
                      A                      A                      A
 Frequencies --   1124.4734              1198.4564              1201.6528
 Red. masses --      1.5167                 1.7343                 1.8440
 Frc consts  --      1.1299                 1.4676                 1.5688
 IR Inten    --      0.2730                 0.3581                 0.1874

                     49                     50                     51
                      A                      A                      A
 Frequencies --   1216.0089              1228.6764              1238.4088
 Red. masses --      1.5977                 1.5528                 1.3727
 Frc consts  --      1.3920                 1.3812                 1.2404
 IR Inten    --      1.3363                 1.6311                 7.5140

                     52                     53                     54
                      A                      A                      A
 Frequencies --   1253.7170              1264.4227              1271.0661
 Red. masses --      1.4797                 1.4765                 1.4284
 Frc consts  --      1.3703                 1.3908                 1.3597
 IR Inten    --      0.8372                 3.3909                 0.1911

                     55                     56                     57
                      A                      A                      A
 Frequencies --   1289.2967              1303.0333              1318.5803
 Red. masses --      1.4047                 1.3044                 1.1438
 Frc consts  --      1.3758                 1.3049                 1.1717
 IR Inten    --      0.2894                 1.4304                 1.0450

                     58                     59                     60
                      A                      A                      A
 Frequencies --   1328.8147              1331.3385              1334.8569
 Red. masses --      1.1132                 1.2221                 1.1582
 Frc consts  --      1.1581                 1.2762                 1.2159
 IR Inten    --      1.8168                 0.0748                 0.1438

                     61                     62                     63
                      A                      A                      A
 Frequencies --   1339.9257              1364.1309              1385.5158
 Red. masses --      1.1940                 1.3685                 1.4805
 Frc consts  --      1.2631                 1.5004                 1.6745
 IR Inten    --      1.1652                 2.7648                 1.5159

                     64                     65                     66
                      A                      A                      A
 Frequencies --   1399.7882              1401.6097              1446.1604
 Red. masses --      1.5819                 1.6440                 1.1387
 Frc consts  --      1.8262                 1.9029                 1.4031
 IR Inten    --      0.2050                 0.1273                 0.4133

                     67                     68                     69
                      A                      A                      A
 Frequencies --   1454.1846              1455.3524              1474.0034
 Red. masses --      1.0839                 1.1643                 1.1148
 Frc consts  --      1.3505                 1.4530                 1.4271
 IR Inten    --      3.4833                 0.7834                 1.7672

                     70                     71                     72
                      A                      A                      A
 Frequencies --   1479.1003              1482.3492              1483.7648
 Red. masses --      1.0990                 1.0817                 1.0739
 Frc consts  --      1.4166                 1.4004                 1.3930
 IR Inten    --      1.7317                 0.2548                 0.3754

                     73                     74                     75
                      A                      A                      A
 Frequencies --   1490.1117              1502.5623              1513.5142
 Red. masses --      1.0956                 1.1004                 1.0998
 Frc consts  --      1.4333                 1.4638                 1.4844
 IR Inten    --      1.1917                 0.0220                 3.1235

                     76                     77                     78
                      A                      A                      A
 Frequencies --   1717.9989              1757.8352              2996.2940
 Red. masses --      4.8477                 7.0955                 1.0608
 Frc consts  --      8.4301                12.9179                 5.6111
 IR Inten    --     11.7419                19.6659                 2.1766

                     79                     80                     81
                      A                      A                      A
 Frequencies --   2997.1943              3000.6476              3001.5405
 Red. masses --      1.0603                 1.0581                 1.0585
 Frc consts  --      5.6119                 5.6134                 5.6185
 IR Inten    --     16.7829                 1.2262                 0.3613

                     82                     83                     84
                      A                      A                      A
 Frequencies --   3009.7658              3016.4068              3020.2449
 Red. masses --      1.0609                 1.0637                 1.0967
 Frc consts  --      5.6621                 5.7025                 5.8939
 IR Inten    --      9.4778               111.7923                 3.1334

                     85                     86                     87
                      A                      A                      A
 Frequencies --   3024.3138              3032.3655              3033.4008
 Red. masses --      1.0971                 1.0576                 1.0824
 Frc consts  --      5.9121                 5.7298                 5.8683
 IR Inten    --      2.6736                50.7890                 5.1600

                     88                     89                     90
                      A                      A                      A
 Frequencies --   3036.6617              3044.1236              3052.8499
 Red. masses --      1.0780                 1.0954                 1.0923
 Frc consts  --      5.8566                 5.9809                 5.9980
 IR Inten    --     10.0750                 0.8431                12.6996

                     91                     92                     93
                      A                      A                      A
 Frequencies --   3059.1845              3068.2303              3078.8001
 Red. masses --      1.1012                 1.1042                 1.1050
 Frc consts  --      6.0717                 6.1247                 6.1715
 IR Inten    --     33.5296               133.3538                 5.2119

                     94                     95                     96
                      A                      A                      A
 Frequencies --   3080.6710              3122.8788              3136.6508
 Red. masses --      1.1042                 1.0811                 1.0609
 Frc consts  --      6.1744                 6.2119                 6.1498
 IR Inten    --     64.2318                25.9883                 9.1165

                     97                     98                     99
                      A                      A                      A
 Frequencies --   3140.2622              3214.7529              3220.6486
 Red. masses --      1.0687                 1.1143                 1.1141
 Frc consts  --      6.2090                 6.7852                 6.8086
 IR Inten    --      5.6144                11.1065                18.5679

 - Thermochemistry -
 -------------------
 Temperature   298.150 Kelvin.  Pressure   1.00000 Atm.
 Atom     1 has atomic number  6 and mass  12.00000

 Molecular mass:   178.17215 amu.
 Principal axes and moments of inertia in atomic units:
                           1         2         3
     Eigenvalues --   539.81633********************
           X            1.00000   0.00053  -0.00075
           Y           -0.00053   0.99999   0.00503
           Z            0.00075  -0.00503   0.99999
 This molecule is an asymmetric top.
 Rotational symmetry number  1.
 Warning -- assumption of classical behavior for rotation
           may cause significant error
 Rotational temperatures (Kelvin)      0.16045     0.00802     0.00794
 Rotational constants (GHZ):           3.34325     0.16715     0.16551
 Zero-point vibrational energy     833950.3 (Joules/Mol)
                                  199.31890 (Kcal/Mol)
 Warning -- explicit consideration of  19 degrees of freedom as
           vibrations may cause significant error
 Vibrational temperatures:     24.46    43.07    50.57    81.58   101.30
          (Kelvin)            142.04   172.94   195.71   230.24   238.88
                              300.80   358.21   482.44   498.89   544.28
                              558.43   611.88   679.68   685.66   920.35
                              947.18   984.64  1053.41  1069.58  1126.10
                             1186.76  1223.92  1243.00  1288.10  1315.52
                             1316.67  1342.28  1351.93  1361.56  1392.20
                             1443.80  1459.28  1465.12  1497.30  1517.74
                             1523.20  1533.79  1537.79  1563.25  1601.51
                             1617.87  1724.31  1728.91  1749.57  1767.79
                             1781.79  1803.82  1819.22  1828.78  1855.01
                             1874.77  1897.14  1911.87  1915.50  1920.56
                             1927.85  1962.68  1993.45  2013.98  2016.60
                             2080.70  2092.25  2093.93  2120.76  2128.10
                             2132.77  2134.81  2143.94  2161.85  2177.61
                             2471.82  2529.13  4311.00  4312.29  4317.26
                             4318.55  4330.38  4339.94  4345.46  4351.31
                             4362.90  4364.39  4369.08  4379.81  4392.37
                             4401.48  4414.50  4429.71  4432.40  4493.13
                             4512.94  4518.14  4625.31  4633.79

 Zero-point correction=                           0.317635 (Hartree/Particle)
 Thermal correction to Energy=                    0.333087
 Thermal correction to Enthalpy=                  0.334032
 Thermal correction to Gibbs Free Energy=         0.271917
 Sum of electronic and zero-point Energies=           -508.293520
 Sum of electronic and thermal Energies=              -508.278068
 Sum of electronic and thermal Enthalpies=            -508.277124
 Sum of electronic and thermal Free Energies=         -508.339238

                     E (Thermal)             CV                S
                      KCal/Mol        Cal/Mol-Kelvin    Cal/Mol-Kelvin
 Total                  209.016             56.392            130.732
 Electronic               0.000              0.000              0.000
 Translational            0.889              2.981             41.440
 Rotational               0.889              2.981             32.519
 Vibrational            207.238             50.431             56.773
 Vibration     1          0.593              1.986              6.957
 Vibration     2          0.594              1.984              5.834
 Vibration     3          0.594              1.982              5.515
 Vibration     4          0.596              1.975              4.569
 Vibration     5          0.598              1.968              4.142
 Vibration     6          0.604              1.950              3.479
 Vibration     7          0.609              1.932              3.097
 Vibration     8          0.614              1.917              2.859
 Vibration     9          0.622              1.891              2.549
 Vibration    10          0.624              1.884              2.480
 Vibration    11          0.642              1.827              2.052
 Vibration    12          0.662              1.764              1.738
 Vibration    13          0.716              1.605              1.234
 Vibration    14          0.725              1.582              1.181
 Vibration    15          0.749              1.516              1.046
 Vibration    16          0.756              1.496              1.007
 Vibration    17          0.787              1.415              0.874
 Vibration    18          0.829              1.311              0.731
 Vibration    19          0.833              1.302              0.719

 Optimization completed.
    -- Stationary point found.
 Normal termination of Gaussian 16 at Wed May 24 05:36:55 2023.
