 Gaussian 16, Revision A.03,
 Gaussian 16:  ES64L-G16RevA.03 25-Dec-2016

 -----------------------------
 # opt freq b3lyp/6-31g(2df,p)
 -----------------------------

 -------------------
 Title Card Required
 -------------------
 Symbolic Z-matrix:
 Charge =  0 Multiplicity = 1

 SCF Done:  E(RB3LYP) =  -463.694077701     A.U. after   13 cycles
 SCF Done:  E(RB3LYP) =  -463.699816472     A.U. after   12 cycles
 SCF Done:  E(RB3LYP) =  -463.700977386     A.U. after   11 cycles
 SCF Done:  E(RB3LYP) =  -463.701644759     A.U. after   11 cycles
 SCF Done:  E(RB3LYP) =  -463.702181240     A.U. after   12 cycles
 SCF Done:  E(RB3LYP) =  -463.702575100     A.U. after   10 cycles
 SCF Done:  E(RB3LYP) =  -463.703116953     A.U. after   11 cycles
 SCF Done:  E(RB3LYP) =  -463.703370932     A.U. after   11 cycles
 SCF Done:  E(RB3LYP) =  -463.703626861     A.U. after   11 cycles
 SCF Done:  E(RB3LYP) =  -463.703927720     A.U. after   11 cycles
 SCF Done:  E(RB3LYP) =  -463.712844191     A.U. after   11 cycles
 SCF Done:  E(RB3LYP) =  -463.712957022     A.U. after   11 cycles
 SCF Done:  E(RB3LYP) =  -463.712906393     A.U. after   11 cycles
 SCF Done:  E(RB3LYP) =  -463.712961559     A.U. after   11 cycles
 SCF Done:  E(RB3LYP) =  -463.712961565     A.U. after    8 cycles
 SCF Done:  E(RB3LYP) =  -463.712960290     A.U. after    9 cycles
 SCF Done:  E(RB3LYP) =  -463.712962629     A.U. after    9 cycles
 SCF Done:  E(RB3LYP) =  -463.712962637     A.U. after    7 cycles
 SCF Done:  E(RB3LYP) =  -463.712962641     A.U. after    7 cycles
 Optimization completed.
    -- Stationary point found.
 Normal termination of Gaussian 16 at Sat May 27 12:08:18 2023.

 ----------------------------------------------------------------------
 #N Geom=AllCheck Guess=TCheck SCRF=Check GenChk RB3LYP/6-31G(2df,p) Fr
 eq
 ----------------------------------------------------------------------

 Structure from the checkpoint file:  "CdCCCCqCrdCqOrCO.chk"
 -------------------
 Title Card Required
 -------------------
 Charge =  0 Multiplicity = 1

                         Standard orientation:
 ---------------------------------------------------------------------
 Center     Atomic      Atomic             Coordinates (Angstroms)
 Number     Number       Type             X           Y           Z
 ---------------------------------------------------------------------
      1          6           0       -4.094261   -1.046005    0.148665
      2          6           0       -3.367101    0.053131   -0.026393
      3          6           0       -1.966349    0.256013    0.473876
      4          6           0       -0.951227    0.497210   -0.672272
      5          6           0        0.456080    0.780931   -0.183003
      6          6           0        0.771912    2.238872    0.033356
      7          6           0        1.318765   -0.216011    0.060855
      8          8           0        1.021237   -1.549552   -0.130414
      9          6           0        2.732985   -0.138354    0.574494
     10          8           0        3.641586   -0.804233   -0.288722
     11          1           0       -5.100891   -1.137207   -0.245425
     12          1           0       -3.713132   -1.899455    0.703353
     13          1           0       -3.790687    0.885558   -0.589099
     14          1           0       -1.648896   -0.610150    1.065592
     15          1           0       -1.934869    1.122841    1.147902
     16          1           0       -1.295219    1.345301   -1.277333
     17          1           0       -0.984553   -0.362910   -1.357322
     18          1           0        0.681581    2.800327   -0.905993
     19          1           0        1.773027    2.414441    0.428299
     20          1           0        0.061605    2.694866    0.736145
     21          1           0        0.166320   -1.633960   -0.564171
     22          1           0        2.762604   -0.578633    1.585932
     23          1           0        3.073042    0.893753    0.653726
     24          1           0        3.242654   -1.659214   -0.485992
 ---------------------------------------------------------------------

 SCF Done:  E(RB3LYP) =  -463.712962641     A.U. after    1 cycles

 The electronic state is 1-A.
 Alpha  occ. eigenvalues --  -19.16804 -19.12507 -10.23082 -10.22638 -10.19582
 Alpha  occ. eigenvalues --  -10.19238 -10.19009 -10.18246 -10.18089 -10.17887
 Alpha  occ. eigenvalues --   -1.05642  -1.00469  -0.82102  -0.78587  -0.73363
 Alpha  occ. eigenvalues --   -0.70512  -0.65853  -0.62213  -0.58162  -0.55773
 Alpha  occ. eigenvalues --   -0.49603  -0.49153  -0.46887  -0.46068  -0.43429
 Alpha  occ. eigenvalues --   -0.42230  -0.41454  -0.40995  -0.39104  -0.38726
 Alpha  occ. eigenvalues --   -0.37549  -0.37028  -0.35964  -0.34152  -0.33799
 Alpha  occ. eigenvalues --   -0.32009  -0.26288  -0.25985  -0.21372
 Alpha virt. eigenvalues --    0.01476   0.03271   0.05824   0.09440   0.11636
 Alpha virt. eigenvalues --    0.11966   0.12057   0.13131   0.14395   0.14673
 Alpha virt. eigenvalues --    0.16098   0.18024   0.18539   0.19225   0.19817

 Mulliken charges:
               1
     1  C   -0.321403
     2  C    0.034702
     3  C   -0.221915
     4  C   -0.321480
     5  C    0.151948
     6  C   -0.483009
     7  C    0.271960
     8  O   -0.450176
     9  C   -0.128215
    10  O   -0.420213
    11  H    0.112724
    12  H    0.103015
    13  H    0.087116
    14  H    0.104569
    15  H    0.111641
    16  H    0.106189
    17  H    0.092897
    18  H    0.123317
    19  H    0.126058
    20  H    0.121512
    21  H    0.296066
    22  H    0.096891
    23  H    0.114704
    24  H    0.291102
 Sum of Mulliken charges =  -0.00000

 Dipole moment (field-independent basis, Debye):
    X=             -2.2516    Y=              0.3314    Z=             -0.0151  Tot=              2.2759
 Quadrupole moment (field-independent basis, Debye-Ang):
   XX=            -70.8856   YY=            -57.6976   ZZ=            -61.8434
   XY=              1.1256   XZ=              3.3351   YZ=              0.9416

  Exact polarizability: 121.408   2.098 101.376   6.519  -3.288  67.915
 Approx polarizability: 149.809  -2.257 160.056   8.409  -6.839 104.319

                      1                      2                      3
                      A                      A                      A
 Frequencies --     35.3809                63.0972                69.8888
 Red. masses --      3.9981                 4.1809                 2.4143
 Frc consts  --      0.0029                 0.0098                 0.0069
 IR Inten    --      0.7069                 0.5342                 0.1411

                      4                      5                      6
                      A                      A                      A
 Frequencies --     88.6809               108.9401               157.0284
 Red. masses --      2.8049                 2.8294                 1.0671
 Frc consts  --      0.0130                 0.0198                 0.0155
 IR Inten    --      3.0000                 0.4775                 0.2461

                      7                      8                      9
                      A                      A                      A
 Frequencies --    184.5382               249.8753               269.2594
 Red. masses --      2.7575                 2.4874                 2.4820
 Frc consts  --      0.0553                 0.0915                 0.1060
 IR Inten    --      0.4641                 7.5407                 6.5712

                     10                     11                     12
                      A                      A                      A
 Frequencies --    306.8053               360.4876               373.5381
 Red. masses --      2.6922                 1.4765                 2.0078
 Frc consts  --      0.1493                 0.1130                 0.1651
 IR Inten    --      2.7488                37.9227                23.0190

                     13                     14                     15
                      A                      A                      A
 Frequencies --    380.6201               408.0769               445.0766
 Red. masses --      1.7519                 1.5073                 2.1071
 Frc consts  --      0.1495                 0.1479                 0.2459
 IR Inten    --     28.8583                97.2927                 5.5206

                     16                     17                     18
                      A                      A                      A
 Frequencies --    524.0171               550.5999               622.5062
 Red. masses --      3.1854                 3.6648                 2.5306
 Frc consts  --      0.5154                 0.6546                 0.5778
 IR Inten    --      4.8342                10.8516                 1.1953

                     19                     20                     21
                      A                      A                      A
 Frequencies --    664.6119               769.5499               790.0855
 Red. masses --      2.0242                 1.3207                 3.6673
 Frc consts  --      0.5268                 0.4608                 1.3488
 IR Inten    --     10.3352                 4.4746                17.6303

                     22                     23                     24
                      A                      A                      A
 Frequencies --    925.0982               944.0777               950.6743
 Red. masses --      2.0731                 1.7373                 1.4207
 Frc consts  --      1.0453                 0.9123                 0.7565
 IR Inten    --      4.6451                 0.7307                33.8360

                     25                     26                     27
                      A                      A                      A
 Frequencies --    970.7402               993.6167              1011.8275
 Red. masses --      1.7399                 1.6425                 2.9766
 Frc consts  --      0.9660                 0.9554                 1.7955
 IR Inten    --      2.3488                40.6614                 1.3005

                     28                     29                     30
                      A                      A                      A
 Frequencies --   1037.4710              1047.1465              1065.1191
 Red. masses --      1.3385                 1.5266                 1.9186
 Frc consts  --      0.8488                 0.9863                 1.2824
 IR Inten    --     10.7229                50.0349                30.4012

                     31                     32                     33
                      A                      A                      A
 Frequencies --   1069.6631              1130.6022              1174.2680
 Red. masses --      2.0910                 1.8296                 2.0916
 Frc consts  --      1.4096                 1.3779                 1.6993
 IR Inten    --     24.1986                50.5471                55.7851

                     34                     35                     36
                      A                      A                      A
 Frequencies --   1203.5820              1228.7359              1259.6053
 Red. masses --      1.7983                 1.5222                 1.4873
 Frc consts  --      1.5349                 1.3540                 1.3903
 IR Inten    --      5.1454                 0.9065                98.9960

                     37                     38                     39
                      A                      A                      A
 Frequencies --   1281.4270              1310.4527              1328.7534
 Red. masses --      1.4172                 1.1341                 1.2955
 Frc consts  --      1.3711                 1.1474                 1.3477
 IR Inten    --     27.8150                 5.8745                 0.6100

                     40                     41                     42
                      A                      A                      A
 Frequencies --   1340.2260              1359.4029              1370.8471
 Red. masses --      1.5517                 1.4061                 1.4503
 Frc consts  --      1.6421                 1.5309                 1.6058
 IR Inten    --      5.3570                 1.1953                 5.9817

                     43                     44                     45
                      A                      A                      A
 Frequencies --   1415.5993              1443.9818              1454.7178
 Red. masses --      1.3229                 1.2130                 1.1607
 Frc consts  --      1.5619                 1.4902                 1.4472
 IR Inten    --     21.3544                71.5926                 0.7319

                     46                     47                     48
                      A                      A                      A
 Frequencies --   1479.3422              1482.4080              1490.0684
 Red. masses --      1.0621                 1.0982                 1.0754
 Frc consts  --      1.3695                 1.4219                 1.4068
 IR Inten    --      1.4170                 7.1711                 1.5186

                     49                     50                     51
                      A                      A                      A
 Frequencies --   1502.1906              1512.3727              1716.5290
 Red. masses --      1.0863                 1.0995                 4.8213
 Frc consts  --      1.4443                 1.4818                 8.3698
 IR Inten    --      9.1613                 3.7488                 9.5267

                     52                     53                     54
                      A                      A                      A
 Frequencies --   1748.4461              2957.4022              2988.5520
 Red. masses --      7.4738                 1.0730                 1.0681
 Frc consts  --     13.4615                 5.5295                 5.6209
 IR Inten    --     45.7688                60.0938                23.1224

                     55                     56                     57
                      A                      A                      A
 Frequencies --   3010.4065              3016.9462              3039.8010
 Red. masses --      1.0432                 1.0624                 1.0909
 Frc consts  --      5.5702                 5.6972                 5.9392
 IR Inten    --     29.7615                32.2290                12.1937

                     58                     59                     60
                      A                      A                      A
 Frequencies --   3048.5005              3069.0253              3124.6641
 Red. masses --      1.0988                 1.0993                 1.0910
 Frc consts  --      6.0163                 6.1004                 6.2759
 IR Inten    --     27.8080                26.1869                 5.3697

                     61                     62                     63
                      A                      A                      A
 Frequencies --   3125.2198              3140.7404              3142.4894
 Red. masses --      1.0817                 1.0693                 1.0892
 Frc consts  --      6.2249                 6.2148                 6.3373
 IR Inten    --     32.8324                 5.1092                30.9480

                     64                     65                     66
                      A                      A                      A
 Frequencies --   3222.0749              3805.4690              3822.8287
 Red. masses --      1.1140                 1.0653                 1.0649
 Frc consts  --      6.8141                 9.0897                 9.1694
 IR Inten    --     16.8563                28.1532                26.9176

 - Thermochemistry -
 -------------------
 Temperature   298.150 Kelvin.  Pressure   1.00000 Atm.
 Atom     1 has atomic number  6 and mass  12.00000

 Molecular mass:   142.09938 amu.
 Principal axes and moments of inertia in atomic units:
                           1         2         3
     Eigenvalues --   703.780743088.363143603.95437
           X            0.99990   0.01275   0.00578
           Y           -0.01274   0.99992  -0.00145
           Z           -0.00580   0.00138   0.99998
 This molecule is an asymmetric top.
 Rotational symmetry number  1.
 Warning -- assumption of classical behavior for rotation
           may cause significant error
 Rotational temperatures (Kelvin)      0.12307     0.02805     0.02403
 Rotational constants (GHZ):           2.56435     0.58437     0.50077
 Zero-point vibrational energy     545412.1 (Joules/Mol)
                                  130.35661 (Kcal/Mol)
 Warning -- explicit consideration of  17 degrees of freedom as
           vibrations may cause significant error
 Vibrational temperatures:     50.91    90.78   100.55   127.59   156.74
          (Kelvin)            225.93   265.51   359.51   387.40   441.42
                              518.66   537.44   547.63   587.13   640.37
                              753.94   792.19   895.65   956.23  1107.21
                             1136.76  1331.01  1358.32  1367.81  1396.68
                             1429.59  1455.79  1492.69  1506.61  1532.47
                             1539.01  1626.68  1689.51  1731.69  1767.88
                             1812.29  1843.69  1885.45  1911.78  1928.29
                             1955.88  1972.34  2036.73  2077.57  2093.01
                             2128.44  2132.85  2143.88  2161.32  2175.97
                             2469.70  2515.62  4255.04  4299.86  4331.30
                             4340.71  4373.60  4386.11  4415.64  4495.69
                             4496.49  4518.82  4521.34  4635.85  5475.22
                             5500.20

 Zero-point correction=                           0.207736 (Hartree/Particle)
 Thermal correction to Energy=                    0.220076
 Thermal correction to Enthalpy=                  0.221020
 Thermal correction to Gibbs Free Energy=         0.168510
 Sum of electronic and zero-point Energies=           -463.505226
 Sum of electronic and thermal Energies=              -463.492886
 Sum of electronic and thermal Enthalpies=            -463.491942
 Sum of electronic and thermal Free Energies=         -463.544453

                     E (Thermal)             CV                S
                      KCal/Mol        Cal/Mol-Kelvin    Cal/Mol-Kelvin
 Total                  138.100             44.052            110.518
 Electronic               0.000              0.000              0.000
 Translational            0.889              2.981             40.765
 Rotational               0.889              2.981             30.439
 Vibrational            136.322             38.090             39.314
 Vibration     1          0.594              1.982              5.502
 Vibration     2          0.597              1.972              4.358
 Vibration     3          0.598              1.968              4.156
 Vibration     4          0.601              1.957              3.689
 Vibration     5          0.606              1.942              3.288
 Vibration     6          0.621              1.895              2.585
 Vibration     7          0.631              1.861              2.282
 Vibration     8          0.663              1.763              1.731
 Vibration     9          0.674              1.730              1.601
 Vibration    10          0.697              1.661              1.380
 Vibration    11          0.735              1.554              1.120
 Vibration    12          0.745              1.526              1.065
 Vibration    13          0.750              1.511              1.037
 Vibration    14          0.773              1.453              0.933
 Vibration    15          0.804              1.372              0.811
 Vibration    16          0.879              1.197              0.601
 Vibration    17          0.906              1.138              0.543

 Optimization completed.
    -- Stationary point found.
 Normal termination of Gaussian 16 at Sat May 27 12:48:01 2023.
