 Gaussian 16, Revision A.03,
 Gaussian 16:  ES64L-G16RevA.03 25-Dec-2016

 -----------------------------
 # opt freq b3lyp/6-31g(2df,p)
 -----------------------------

 -------------------
 Title Card Required
 -------------------
 Symbolic Z-matrix:
 Charge =  0 Multiplicity = 1

 SCF Done:  E(RB3LYP) =  -658.911439135     A.U. after   14 cycles
 SCF Done:  E(RB3LYP) =  -658.918437870     A.U. after   13 cycles
 SCF Done:  E(RB3LYP) =  -658.928835914     A.U. after   12 cycles
 SCF Done:  E(RB3LYP) =  -658.943896892     A.U. after   12 cycles
 SCF Done:  E(RB3LYP) =  -658.946548012     A.U. after   12 cycles
 SCF Done:  E(RB3LYP) =  -658.947549940     A.U. after   12 cycles
 SCF Done:  E(RB3LYP) =  -658.949041109     A.U. after   12 cycles
 SCF Done:  E(RB3LYP) =  -658.951353814     A.U. after   15 cycles
 SCF Done:  E(RB3LYP) =  -658.952288494     A.U. after   12 cycles
 SCF Done:  E(RB3LYP) =  -658.952508818     A.U. after   11 cycles
 SCF Done:  E(RB3LYP) =  -658.965024370     A.U. after   11 cycles
 SCF Done:  E(RB3LYP) =  -658.965081505     A.U. after   10 cycles
 SCF Done:  E(RB3LYP) =  -658.965118729     A.U. after   10 cycles
 SCF Done:  E(RB3LYP) =  -658.965139423     A.U. after    9 cycles
 SCF Done:  E(RB3LYP) =  -658.965149553     A.U. after    9 cycles
 SCF Done:  E(RB3LYP) =  -658.965151896     A.U. after    8 cycles
 SCF Done:  E(RB3LYP) =  -658.965152141     A.U. after    7 cycles
 SCF Done:  E(RB3LYP) =  -658.965152174     A.U. after    6 cycles
 SCF Done:  E(RB3LYP) =  -658.965152194     A.U. after    6 cycles
 Optimization completed.
    -- Stationary point found.
 Normal termination of Gaussian 16 at Mon May 29 03:57:57 2023.

 ----------------------------------------------------------------------
 #N Geom=AllCheck Guess=TCheck SCRF=Check GenChk RB3LYP/6-31G(2df,p) Fr
 eq
 ----------------------------------------------------------------------

 Structure from the checkpoint file:  "CdCCCqdCC1CC1COOrCCqCrC.chk"
 -------------------
 Title Card Required
 -------------------
 Charge =  0 Multiplicity = 1

                         Standard orientation:
 ---------------------------------------------------------------------
 Center     Atomic      Atomic             Coordinates (Angstroms)
 Number     Number       Type             X           Y           Z
 ---------------------------------------------------------------------
      1          6           0        0.062039   -3.651048    0.146984
      2          6           0       -0.265963   -2.392294    0.422559
      3          6           0        0.508441   -1.479873    1.343493
      4          6           0        1.105738   -0.297175    0.589356
      5          6           0        0.412025    0.821666    0.347562
      6          6           0       -0.979176    1.104200    0.760004
      7          6           0       -1.501193    2.522255    0.823426
      8          6           0       -1.979147    1.607454   -0.272687
      9          6           0       -3.379995    1.064411   -0.249698
     10          8           0       -3.321759   -0.238778   -0.827494
     11          8           0       -4.660980   -0.779595   -0.780496
     12          6           0        2.500553   -0.562125    0.059557
     13          6           0        3.248937    0.566002   -0.670882
     14          6           0        3.718789    1.664383    0.295332
     15          6           0        4.443942   -0.007912   -1.446067
     16          1           0       -0.526929   -4.259658   -0.531326
     17          1           0        0.930138   -4.127457    0.595220
     18          1           0       -1.142975   -1.945595   -0.043698
     19          1           0        1.309047   -2.048449    1.830101
     20          1           0       -0.152875   -1.125368    2.142949
     21          1           0        0.875667    1.612251   -0.238242
     22          1           0       -1.408829    0.424052    1.487475
     23          1           0       -0.825939    3.324965    0.546438
     24          1           0       -2.190451    2.775701    1.622069
     25          1           0       -1.579930    1.792333   -1.265532
     26          1           0       -4.071234    1.694368   -0.827888
     27          1           0       -3.759134    0.995908    0.778649
     28          1           0       -4.895957   -0.757724   -1.719247
     29          1           0        2.428064   -1.435713   -0.606269
     30          1           0        3.128161   -0.905631    0.897167
     31          1           0        2.567233    1.014332   -1.406047
     32          1           0        4.457330    1.262283    0.999603
     33          1           0        2.893115    2.074420    0.882275
     34          1           0        4.194727    2.489119   -0.245787
     35          1           0        5.149083   -0.503972   -0.768039
     36          1           0        4.991211    0.782457   -1.970588
     37          1           0        4.122449   -0.745298   -2.188998
 ---------------------------------------------------------------------

 SCF Done:  E(RB3LYP) =  -658.965152194     A.U. after    1 cycles

 The electronic state is 1-A.
 Alpha  occ. eigenvalues --  -19.19101 -19.18765 -10.23325 -10.19738 -10.19449
 Alpha  occ. eigenvalues --  -10.19186 -10.18245 -10.18126 -10.17972 -10.17643
 Alpha  occ. eigenvalues --  -10.17526 -10.17172 -10.16767 -10.16569 -10.16510
 Alpha  occ. eigenvalues --   -1.11256  -0.91179  -0.86440  -0.81987  -0.78691
 Alpha  occ. eigenvalues --   -0.74944  -0.69940  -0.67740  -0.67295  -0.66905
 Alpha  occ. eigenvalues --   -0.59641  -0.57765  -0.56729  -0.54269  -0.52985
 Alpha  occ. eigenvalues --   -0.52380  -0.48412  -0.47471  -0.46781  -0.45631
 Alpha  occ. eigenvalues --   -0.44467  -0.43765  -0.43355  -0.41450  -0.40890
 Alpha  occ. eigenvalues --   -0.40024  -0.38934  -0.38672  -0.37702  -0.36518
 Alpha  occ. eigenvalues --   -0.35909  -0.34985  -0.34443  -0.33550  -0.32407
 Alpha  occ. eigenvalues --   -0.32042  -0.31511  -0.30795  -0.30305  -0.29105
 Alpha  occ. eigenvalues --   -0.26130  -0.24558  -0.21692
 Alpha virt. eigenvalues --    0.01480   0.03322   0.04635   0.08233   0.09025
 Alpha virt. eigenvalues --    0.09413   0.10274   0.12005   0.12214   0.13308
 Alpha virt. eigenvalues --    0.13884   0.14645   0.15171   0.15345   0.15535

 Mulliken charges:
               1
     1  C   -0.323207
     2  C    0.033988
     3  C   -0.348695
     4  C    0.240136
     5  C   -0.126661
     6  C   -0.040360
     7  C   -0.321548
     8  C   -0.041832
     9  C   -0.032255
    10  O   -0.187726
    11  O   -0.319294
    12  C   -0.254213
    13  C    0.034535
    14  C   -0.380473
    15  C   -0.396659
    16  H    0.108911
    17  H    0.098096
    18  H    0.117214
    19  H    0.093594
    20  H    0.111544
    21  H    0.076849
    22  H    0.090932
    23  H    0.115581
    24  H    0.114437
    25  H    0.094201
    26  H    0.090880
    27  H    0.100868
    28  H    0.310658
    29  H    0.109866
    30  H    0.095699
    31  H    0.074897
    32  H    0.108813
    33  H    0.117310
    34  H    0.106131
    35  H    0.110555
    36  H    0.106593
    37  H    0.110636
 Sum of Mulliken charges =  -0.00000

 Dipole moment (field-independent basis, Debye):
    X=             -0.3991    Y=              1.5852    Z=             -0.8587  Tot=              1.8465
 Quadrupole moment (field-independent basis, Debye-Ang):
   XX=            -89.1307   YY=            -92.6040   ZZ=            -89.3941
   XY=             -4.8924   XZ=              5.5983   YZ=              0.0680

  Exact polarizability: 175.563  -8.092 170.218   3.141   4.977 116.896
 Approx polarizability: 220.791 -19.591 246.243   7.644   2.813 182.014

                      1                      2                      3
                      A                      A                      A
 Frequencies --     26.5625                39.4511                48.0483
 Red. masses --      4.6761                 4.8218                 3.4803
 Frc consts  --      0.0019                 0.0044                 0.0047
 IR Inten    --      0.2315                 0.1335                 0.2190

                      4                      5                      6
                      A                      A                      A
 Frequencies --     57.2657                76.3233                89.1792
 Red. masses --      2.9261                 3.7986                 3.1542
 Frc consts  --      0.0057                 0.0130                 0.0148
 IR Inten    --      0.3572                 0.4960                 1.1661

                      7                      8                      9
                      A                      A                      A
 Frequencies --    103.5703               110.5958               125.2253
 Red. masses --      4.0987                 2.6919                 2.9163
 Frc consts  --      0.0259                 0.0194                 0.0269
 IR Inten    --      5.7097                 0.2555                 5.9830

                     10                     11                     12
                      A                      A                      A
 Frequencies --    162.8782               205.2976               218.5656
 Red. masses --      2.8584                 2.2864                 1.0809
 Frc consts  --      0.0447                 0.0568                 0.0304
 IR Inten    --      0.7484                 1.0078                 0.0434

                     13                     14                     15
                      A                      A                      A
 Frequencies --    221.5826               236.4029               250.0196
 Red. masses --      1.1317                 1.8199                 1.6667
 Frc consts  --      0.0327                 0.0599                 0.0614
 IR Inten    --     83.3086                 0.5306                 1.8106

                     16                     17                     18
                      A                      A                      A
 Frequencies --    295.6026               305.3270               325.6219
 Red. masses --      2.4219                 2.4418                 2.5081
 Frc consts  --      0.1247                 0.1341                 0.1567
 IR Inten    --      0.4463                 0.1216                 0.8028

                     19                     20                     21
                      A                      A                      A
 Frequencies --    360.0806               367.3965               416.5306
 Red. masses --      2.9072                 3.2560                 2.2507
 Frc consts  --      0.2221                 0.2589                 0.2301
 IR Inten    --      0.8504                 0.8260                 1.3257

                     22                     23                     24
                      A                      A                      A
 Frequencies --    427.3892               437.3366               468.5615
 Red. masses --      2.1077                 2.8696                 2.3100
 Frc consts  --      0.2268                 0.3234                 0.2988
 IR Inten    --      1.5605                 0.0291                 0.7422

                     25                     26                     27
                      A                      A                      A
 Frequencies --    502.4463               538.0296               579.8073
 Red. masses --      3.2237                 2.8504                 2.0156
 Frc consts  --      0.4795                 0.4862                 0.3992
 IR Inten    --      7.1685                 3.1338                 2.0439

                     28                     29                     30
                      A                      A                      A
 Frequencies --    686.9489               798.6333               813.0220
 Red. masses --      2.0768                 2.3516                 2.0866
 Frc consts  --      0.5774                 0.8837                 0.8126
 IR Inten    --      4.6082                 1.6418                 1.4580

                     31                     32                     33
                      A                      A                      A
 Frequencies --    844.5264               861.1478               885.5003
 Red. masses --      1.6159                 1.9848                 2.1136
 Frc consts  --      0.6790                 0.8672                 0.9765
 IR Inten    --      3.2122                 4.2773                 8.5781

                     34                     35                     36
                      A                      A                      A
 Frequencies --    895.6134               916.9169               925.9660
 Red. masses --      1.6310                 1.5592                 1.8950
 Frc consts  --      0.7708                 0.7723                 0.9573
 IR Inten    --      1.2320                 0.6721                23.4366

                     37                     38                     39
                      A                      A                      A
 Frequencies --    932.9143               935.7065               943.1134
 Red. masses --      1.5652                 1.7353                 1.3617
 Frc consts  --      0.8026                 0.8951                 0.7136
 IR Inten    --      2.1569                 1.9863                32.9462

                     40                     41                     42
                      A                      A                      A
 Frequencies --    955.8657               967.7969               975.7716
 Red. masses --      2.3814                 1.5183                 2.2308
 Frc consts  --      1.2820                 0.8379                 1.2515
 IR Inten    --      1.6553                 0.0581                 1.3572

                     43                     44                     45
                      A                      A                      A
 Frequencies --    979.7621               995.7791              1054.8529
 Red. masses --      2.7184                 1.9898                 3.9109
 Frc consts  --      1.5374                 1.1625                 2.5639
 IR Inten    --      8.6136                18.7635                20.2676

                     46                     47                     48
                      A                      A                      A
 Frequencies --   1057.8940              1065.4077              1080.4808
 Red. masses --      1.1400                 1.3636                 1.6696
 Frc consts  --      0.7517                 0.9119                 1.1484
 IR Inten    --      5.7553                 4.8010                 5.5396

                     49                     50                     51
                      A                      A                      A
 Frequencies --   1090.7031              1112.0744              1127.2126
 Red. masses --      2.1190                 1.0950                 1.9571
 Frc consts  --      1.4853                 0.7979                 1.4651
 IR Inten    --     14.8593                 1.5550                 3.3719

                     52                     53                     54
                      A                      A                      A
 Frequencies --   1140.2362              1160.1450              1189.4778
 Red. masses --      1.8412                 2.2300                 1.7288
 Frc consts  --      1.4104                 1.7684                 1.4412
 IR Inten    --      0.2387                 6.5003                 5.6159

                     55                     56                     57
                      A                      A                      A
 Frequencies --   1193.4693              1208.6806              1223.6483
 Red. masses --      1.7523                 2.1638                 1.5812
 Frc consts  --      1.4705                 1.8625                 1.3949
 IR Inten    --      6.3008                 1.6927                 2.0416

                     58                     59                     60
                      A                      A                      A
 Frequencies --   1244.8239              1257.4306              1266.9975
 Red. masses --      1.2221                 1.3959                 1.2787
 Frc consts  --      1.1158                 1.3004                 1.2094
 IR Inten    --      0.8315                 6.3074                 2.8911

                     61                     62                     63
                      A                      A                      A
 Frequencies --   1304.8067              1320.3146              1332.1179
 Red. masses --      1.2920                 1.2959                 1.3909
 Frc consts  --      1.2960                 1.3310                 1.4542
 IR Inten    --      3.0523                 5.3700                 5.6818

                     64                     65                     66
                      A                      A                      A
 Frequencies --   1337.9040              1357.7492              1366.2333
 Red. masses --      1.2065                 1.3497                 1.3617
 Frc consts  --      1.2724                 1.4660                 1.4976
 IR Inten    --      0.0608                19.4884                 1.5189

                     67                     68                     69
                      A                      A                      A
 Frequencies --   1379.9286              1389.5768              1398.6708
 Red. masses --      1.2785                 1.2986                 1.2673
 Frc consts  --      1.4344                 1.4774                 1.4607
 IR Inten    --     48.8745                 9.3528                 8.8371

                     70                     71                     72
                      A                      A                      A
 Frequencies --   1405.5811              1422.4512              1443.5106
 Red. masses --      1.4224                 1.2732                 1.6189
 Frc consts  --      1.6557                 1.5179                 1.9875
 IR Inten    --      6.5255                 7.6526                 4.6420

                     73                     74                     75
                      A                      A                      A
 Frequencies --   1454.0891              1468.8845              1487.0264
 Red. masses --      1.1788                 1.0818                 1.1533
 Frc consts  --      1.4684                 1.3752                 1.5026
 IR Inten    --      1.8438                 0.9934                 5.3207

                     76                     77                     78
                      A                      A                      A
 Frequencies --   1489.5442              1492.3631              1494.6089
 Red. masses --      1.0447                 1.3113                 1.0705
 Frc consts  --      1.3656                 1.7207                 1.4089
 IR Inten    --      0.3750                 3.0588                 2.6501

                     79                     80                     81
                      A                      A                      A
 Frequencies --   1503.8893              1512.4932              1517.9915
 Red. masses --      1.0500                 1.0540                 1.0887
 Frc consts  --      1.3991                 1.4207                 1.4781
 IR Inten    --      3.2862                 3.7541                 6.4084

                     82                     83                     84
                      A                      A                      A
 Frequencies --   1708.4792              1729.0675              2980.3648
 Red. masses --      4.8070                 6.6683                 1.0613
 Frc consts  --      8.2670                11.7460                 5.5545
 IR Inten    --     11.5017                 0.6276                23.3575

                     85                     86                     87
                      A                      A                      A
 Frequencies --   2995.0495              3002.5156              3016.1849
 Red. masses --      1.0572                 1.0906                 1.0868
 Frc consts  --      5.5875                 5.7928                 5.8253
 IR Inten    --     54.6743                 9.7573                18.1999

                     88                     89                     90
                      A                      A                      A
 Frequencies --   3021.9294              3025.0591              3028.9322
 Red. masses --      1.0358                 1.0588                 1.0392
 Frc consts  --      5.5733                 5.7084                 5.6176
 IR Inten    --     28.8917                23.1368                41.8294

                     91                     92                     93
                      A                      A                      A
 Frequencies --   3038.2486              3065.1830              3085.2229
 Red. masses --      1.1053                 1.1016                 1.1003
 Frc consts  --      6.0112                 6.0979                 6.1706
 IR Inten    --     37.7131                28.2050                 3.7305

                     94                     95                     96
                      A                      A                      A
 Frequencies --   3092.1097              3097.5844              3116.1439
 Red. masses --      1.0997                 1.1016                 1.0991
 Frc consts  --      6.1951                 6.2278                 6.2881
 IR Inten    --     59.9309                34.7120                32.6037

                     97                     98                     99
                      A                      A                      A
 Frequencies --   3128.8677              3135.5000              3144.5392
 Red. masses --      1.0543                 1.0592                 1.0861
 Frc consts  --      6.0810                 6.1353                 6.3277
 IR Inten    --     16.7279                10.1406                 8.1367

                    100                    101                    102
                      A                      A                      A
 Frequencies --   3149.1697              3153.5816              3166.7774
 Red. masses --      1.0925                 1.0888                 1.0874
 Frc consts  --      6.3835                 6.3797                 6.4248
 IR Inten    --      1.1885                 7.4174                14.9291

                    103                    104                    105
                      A                      A                      A
 Frequencies --   3215.0597              3219.2803              3750.0468
 Red. masses --      1.1159                 1.1138                 1.0687
 Frc consts  --      6.7957                 6.8013                 8.8544
 IR Inten    --     10.7537                14.6759                33.6180

 - Thermochemistry -
 -------------------
 Temperature   298.150 Kelvin.  Pressure   1.00000 Atm.
 Atom     1 has atomic number  6 and mass  12.00000

 Molecular mass:   210.16198 amu.
 Principal axes and moments of inertia in atomic units:
                           1         2         3
     Eigenvalues --  2412.639676110.960087575.68884
           X            0.99996  -0.00273  -0.00795
           Y            0.00273   1.00000   0.00077
           Z            0.00795  -0.00079   0.99997
 This molecule is an asymmetric top.
 Rotational symmetry number  1.
 Warning -- assumption of classical behavior for rotation
           may cause significant error
 Rotational temperatures (Kelvin)      0.03590     0.01417     0.01143
 Rotational constants (GHZ):           0.74804     0.29533     0.23823
 Zero-point vibrational energy     853704.5 (Joules/Mol)
                                  204.04027 (Kcal/Mol)
 Warning -- explicit consideration of  27 degrees of freedom as
           vibrations may cause significant error
 Vibrational temperatures:     38.22    56.76    69.13    82.39   109.81
          (Kelvin)            128.31   149.01   159.12   180.17   234.35
                              295.38   314.47   318.81   340.13   359.72
                              425.31   439.30   468.50   518.08   528.60
                              599.29   614.92   629.23   674.16   722.91
                              774.10   834.21   988.37  1149.06  1169.76
                             1215.09  1239.00  1274.04  1288.59  1319.24
                             1332.26  1342.26  1346.27  1356.93  1375.28
                             1392.44  1403.92  1409.66  1432.70  1517.70
                             1522.07  1532.88  1554.57  1569.28  1600.03
                             1621.81  1640.55  1669.19  1711.39  1717.14
                             1739.02  1760.56  1791.02  1809.16  1822.93
                             1877.33  1899.64  1916.62  1924.95  1953.50
                             1965.71  1985.41  1999.29  2012.38  2022.32
                             2046.59  2076.89  2092.11  2113.40  2139.50
                             2143.12  2147.18  2150.41  2163.76  2176.14
                             2184.05  2458.12  2487.74  4288.08  4309.21
                             4319.95  4339.62  4347.88  4352.39  4357.96
                             4371.36  4410.11  4438.95  4448.86  4456.73
                             4483.44  4501.74  4511.29  4524.29  4530.95
                             4537.30  4556.29  4625.75  4631.83  5395.48

 Zero-point correction=                           0.325159 (Hartree/Particle)
 Thermal correction to Energy=                    0.343338
 Thermal correction to Enthalpy=                  0.344283
 Thermal correction to Gibbs Free Energy=         0.277630
 Sum of electronic and zero-point Energies=           -658.639993
 Sum of electronic and thermal Energies=              -658.621814
 Sum of electronic and thermal Enthalpies=            -658.620870
 Sum of electronic and thermal Free Energies=         -658.687522

                     E (Thermal)             CV                S
                      KCal/Mol        Cal/Mol-Kelvin    Cal/Mol-Kelvin
 Total                  215.448             66.275            140.281
 Electronic               0.000              0.000              0.000
 Translational            0.889              2.981             41.932
 Rotational               0.889              2.981             33.079
 Vibrational            213.671             60.314             65.270
 Vibration     1          0.593              1.984              6.071
 Vibration     2          0.594              1.981              5.286
 Vibration     3          0.595              1.978              4.896
 Vibration     4          0.596              1.975              4.549
 Vibration     5          0.599              1.965              3.983
 Vibration     6          0.602              1.957              3.678
 Vibration     7          0.605              1.946              3.386
 Vibration     8          0.606              1.941              3.258
 Vibration     9          0.610              1.928              3.018
 Vibration    10          0.623              1.888              2.516
 Vibration    11          0.640              1.832              2.085
 Vibration    12          0.646              1.813              1.971
 Vibration    13          0.648              1.808              1.946
 Vibration    14          0.655              1.785              1.830
 Vibration    15          0.663              1.763              1.730
 Vibration    16          0.690              1.682              1.442
 Vibration    17          0.696              1.664              1.388
 Vibration    18          0.710              1.624              1.282
 Vibration    19          0.735              1.555              1.122
 Vibration    20          0.740              1.539              1.091
 Vibration    21          0.780              1.434              0.904
 Vibration    22          0.789              1.411              0.867
 Vibration    23          0.798              1.389              0.835
 Vibration    24          0.826              1.320              0.742
 Vibration    25          0.858              1.245              0.652
 Vibration    26          0.893              1.166              0.570
 Vibration    27          0.936              1.075              0.486

 Optimization completed.
    -- Stationary point found.
 Normal termination of Gaussian 16 at Mon May 29 06:38:48 2023.
