 Gaussian 16, Revision A.03,
 Gaussian 16:  ES64L-G16RevA.03 25-Dec-2016

 -----------------------------
 # opt freq b3lyp/6-31g(2df,p)
 -----------------------------

 -------------------
 Title Card Required
 -------------------
 Symbolic Z-matrix:
 Charge =  0 Multiplicity = 1

 SCF Done:  E(RB3LYP) =  -902.192888867     A.U. after   16 cycles
 SCF Done:  E(RB3LYP) =  -902.198434708     A.U. after   12 cycles
 SCF Done:  E(RB3LYP) =  -902.198500463     A.U. after   11 cycles
 SCF Done:  E(RB3LYP) =  -902.198939641     A.U. after   12 cycles
 SCF Done:  E(RB3LYP) =  -902.199165106     A.U. after   10 cycles
 SCF Done:  E(RB3LYP) =  -902.199510378     A.U. after   11 cycles
 SCF Done:  E(RB3LYP) =  -902.201385639     A.U. after   13 cycles
 SCF Done:  E(RB3LYP) =  -902.201893548     A.U. after   13 cycles
 SCF Done:  E(RB3LYP) =  -902.202132813     A.U. after   12 cycles
 SCF Done:  E(RB3LYP) =  -902.202853382     A.U. after   11 cycles
 SCF Done:  E(RB3LYP) =  -902.203024503     A.U. after   11 cycles
 SCF Done:  E(RB3LYP) =  -902.203046267     A.U. after   10 cycles
 SCF Done:  E(RB3LYP) =  -902.203053702     A.U. after   10 cycles
 SCF Done:  E(RB3LYP) =  -902.203063189     A.U. after   11 cycles
 SCF Done:  E(RB3LYP) =  -902.203067004     A.U. after   10 cycles
 SCF Done:  E(RB3LYP) =  -902.203068624     A.U. after    9 cycles
 SCF Done:  E(RB3LYP) =  -902.203068659     A.U. after    6 cycles
 Optimization completed.
    -- Stationary point found.
 Normal termination of Gaussian 16 at Sun May 28 23:26:55 2023.

 ----------------------------------------------------------------------
 #N Geom=AllCheck Guess=TCheck SCRF=Check GenChk RB3LYP/6-31G(2df,p) Fr
 eq
 ----------------------------------------------------------------------

 Structure from the checkpoint file:  "CdCCC1dCqSCCCCrCC1dO.chk"
 -------------------
 Title Card Required
 -------------------
 Charge =  0 Multiplicity = 1

                         Standard orientation:
 ---------------------------------------------------------------------
 Center     Atomic      Atomic             Coordinates (Angstroms)
 Number     Number       Type             X           Y           Z
 ---------------------------------------------------------------------
      1          6           0       -2.663165    3.167306    0.109571
      2          6           0       -2.946009    1.929254    0.502040
      3          6           0       -3.175603    0.760322   -0.422266
      4          6           0       -2.234535   -0.378685   -0.180739
      5          6           0       -0.878890   -0.527171   -0.074863
      6         16           0        0.418141    0.605793   -0.166282
      7          6           0        1.899648   -0.474043   -0.021900
      8          6           0        3.162278    0.389243   -0.038569
      9          6           0        4.439651   -0.453404    0.073140
     10          6           0        5.712407    0.397464    0.058006
     11          6           0       -0.898863   -2.038456    0.163286
     12          6           0       -2.445942   -1.819482    0.042128
     13          8           0       -3.394282   -2.556072    0.113282
     14          1           0       -2.508738    3.970817    0.821673
     15          1           0       -2.578318    3.427259   -0.942006
     16          1           0       -3.019292    1.704927    1.565029
     17          1           0       -3.100921    1.099441   -1.463989
     18          1           0       -4.194279    0.371803   -0.291638
     19          1           0        1.899425   -1.178287   -0.857504
     20          1           0        1.826689   -1.039373    0.910354
     21          1           0        3.123233    1.110217    0.787543
     22          1           0        3.190819    0.978590   -0.963713
     23          1           0        4.470203   -1.176492   -0.752151
     24          1           0        4.403452   -1.045601    0.996672
     25          1           0        5.791396    0.975320   -0.869220
     26          1           0        6.607033   -0.227087    0.138829
     27          1           0        5.724254    1.107125    0.892351
     28          1           0       -0.547942   -2.379608    1.142994
     29          1           0       -0.448868   -2.657248   -0.619964
 ---------------------------------------------------------------------

 SCF Done:  E(RB3LYP) =  -902.203068659     A.U. after    1 cycles

 The electronic state is 1-A.
 Alpha  occ. eigenvalues --  -88.90036 -19.11681 -10.25747 -10.23884 -10.22950
 Alpha  occ. eigenvalues --  -10.20193 -10.19954 -10.19630 -10.19496 -10.19207
 Alpha  occ. eigenvalues --  -10.19027 -10.18441 -10.17715  -7.96254  -5.92697
 Alpha  occ. eigenvalues --   -5.92333  -5.91907  -1.02580  -0.87890  -0.82771
 Alpha  occ. eigenvalues --   -0.79453  -0.77974  -0.71877  -0.71480  -0.65063
 Alpha  occ. eigenvalues --   -0.63362  -0.59595  -0.56107  -0.55115  -0.49399
 Alpha  occ. eigenvalues --   -0.49269  -0.46841  -0.45955  -0.45778  -0.44098
 Alpha  occ. eigenvalues --   -0.43845  -0.43019  -0.42608  -0.41411  -0.38784
 Alpha  occ. eigenvalues --   -0.37708  -0.37652  -0.37194  -0.35899  -0.35287
 Alpha  occ. eigenvalues --   -0.34852  -0.34169  -0.33857  -0.32240  -0.30842
 Alpha  occ. eigenvalues --   -0.26043  -0.23270  -0.22290
 Alpha virt. eigenvalues --   -0.03488   0.01402   0.02297   0.05842   0.07620
 Alpha virt. eigenvalues --    0.08294   0.08999   0.10854   0.11881   0.12900
 Alpha virt. eigenvalues --    0.13062   0.13108   0.14433   0.14916   0.15170

 Mulliken charges:
               1
     1  C   -0.316079
     2  C    0.044996
     3  C   -0.383937
     4  C    0.090886
     5  C    0.143744
     6  S   -0.096096
     7  C   -0.204526
     8  C   -0.178896
     9  C   -0.176555
    10  C   -0.380693
    11  C   -0.445473
    12  C    0.343654
    13  O   -0.328591
    14  H    0.113734
    15  H    0.106397
    16  H    0.095487
    17  H    0.118464
    18  H    0.135177
    19  H    0.136071
    20  H    0.136627
    21  H    0.117713
    22  H    0.117338
    23  H    0.101668
    24  H    0.101670
    25  H    0.118933
    26  H    0.117960
    27  H    0.118996
    28  H    0.125851
    29  H    0.125478
 Sum of Mulliken charges =  -0.00000

 Dipole moment (field-independent basis, Debye):
    X=              4.4177    Y=              1.3868    Z=             -0.0505  Tot=              4.6305
 Quadrupole moment (field-independent basis, Debye-Ang):
   XX=            -90.9290   YY=            -92.1914   ZZ=            -83.8131
   XY=            -11.9443   XZ=              0.7964   YZ=              0.3594

  Exact polarizability: 190.270   9.568 151.444   0.998  -4.422  97.867
 Approx polarizability: 262.564  34.922 234.301  -0.307 -11.098 159.607

                      1                      2                      3
                      A                      A                      A
 Frequencies --     22.6829                26.5032                35.2180
 Red. masses --      2.7335                 2.8693                 2.4171
 Frc consts  --      0.0008                 0.0012                 0.0018
 IR Inten    --      0.4298                 0.5659                 0.2047

                      4                      5                      6
                      A                      A                      A
 Frequencies --     47.9325                74.1963               100.6650
 Red. masses --      3.7221                 3.9685                 2.9721
 Frc consts  --      0.0050                 0.0129                 0.0177
 IR Inten    --      0.1506                 0.9585                 0.0281

                      7                      8                      9
                      A                      A                      A
 Frequencies --    112.2860               122.9858               141.9290
 Red. masses --      4.6940                 2.0342                 2.7554
 Frc consts  --      0.0349                 0.0181                 0.0327
 IR Inten    --      5.9118                 0.0715                 0.1483

                     10                     11                     12
                      A                      A                      A
 Frequencies --    169.0690               193.8404               246.7482
 Red. masses --      3.7801                 2.8440                 1.1167
 Frc consts  --      0.0637                 0.0630                 0.0401
 IR Inten    --      1.4939                 0.8480                 0.0155

                     13                     14                     15
                      A                      A                      A
 Frequencies --    259.7963               301.4682               341.5594
 Red. masses --      6.1717                 4.0473                 2.7885
 Frc consts  --      0.2454                 0.2167                 0.1917
 IR Inten    --      0.9890                 0.3128                 2.0174

                     16                     17                     18
                      A                      A                      A
 Frequencies --    401.6773               420.8233               486.8279
 Red. masses --      2.2292                 2.9264                 8.7476
 Frc consts  --      0.2119                 0.3053                 1.2215
 IR Inten    --      1.5970                 1.1576                 6.5329

                     19                     20                     21
                      A                      A                      A
 Frequencies --    505.5030               551.5551               608.6374
 Red. masses --      4.8865                 3.2848                 1.6563
 Frc consts  --      0.7357                 0.5888                 0.3615
 IR Inten    --      1.1584                 1.1897                 2.6546

                     22                     23                     24
                      A                      A                      A
 Frequencies --    637.3218               738.8810               744.8900
 Red. masses --      2.8115                 1.0697                 5.8840
 Frc consts  --      0.6728                 0.3441                 1.9236
 IR Inten    --      2.3673                 3.9364                 0.6770

                     25                     26                     27
                      A                      A                      A
 Frequencies --    757.3840               789.2524               821.9682
 Red. masses --      3.6012                 1.1511                 3.0572
 Frc consts  --      1.2171                 0.4225                 1.2170
 IR Inten    --     23.4732                 0.0069                 6.5774

                     28                     29                     30
                      A                      A                      A
 Frequencies --    905.0538               923.2208               925.7042
 Red. masses --      1.8128                 1.2155                 1.7000
 Frc consts  --      0.8749                 0.6104                 0.8583
 IR Inten    --      0.5098                 1.3892                10.4693

                     31                     32                     33
                      A                      A                      A
 Frequencies --    948.2625               959.9330              1000.4402
 Red. masses --      1.4308                 2.6626                 2.1569
 Frc consts  --      0.7580                 1.4456                 1.2719
 IR Inten    --     38.7195                22.4146                 0.8998

                     34                     35                     36
                      A                      A                      A
 Frequencies --   1019.3542              1021.6787              1039.8816
 Red. masses --      4.3289                 3.6771                 1.1783
 Frc consts  --      2.6502                 2.2614                 0.7507
 IR Inten    --     33.5745                10.2807                 4.8272

                     37                     38                     39
                      A                      A                      A
 Frequencies --   1062.8321              1068.5609              1083.1423
 Red. masses --      2.4916                 1.1306                 1.1491
 Frc consts  --      1.6583                 0.7606                 0.7943
 IR Inten    --      0.6068                 0.6990                 0.9652

                     40                     41                     42
                      A                      A                      A
 Frequencies --   1107.9358              1120.0681              1129.4590
 Red. masses --      2.6029                 1.8763                 3.3374
 Frc consts  --      1.8825                 1.3869                 2.5084
 IR Inten    --      0.8950                22.1902                 0.2589

                     43                     44                     45
                      A                      A                      A
 Frequencies --   1174.1980              1219.6619              1230.1197
 Red. masses --      1.9109                 1.9160                 1.5339
 Frc consts  --      1.5523                 1.6793                 1.3675
 IR Inten    --     35.0499               108.7322                 0.0370

                     46                     47                     48
                      A                      A                      A
 Frequencies --   1245.4755              1261.5474              1306.0836
 Red. masses --      1.2582                 1.3954                 1.2030
 Frc consts  --      1.1499                 1.3084                 1.2091
 IR Inten    --     34.7943                41.6524                 0.1197

                     49                     50                     51
                      A                      A                      A
 Frequencies --   1324.7977              1332.3601              1336.0111
 Red. masses --      1.2677                 1.0630                 1.3495
 Frc consts  --      1.3109                 1.1118                 1.4192
 IR Inten    --      9.5241                 0.5195                 4.0460

                     52                     53                     54
                      A                      A                      A
 Frequencies --   1344.6398              1393.1268              1414.4425
 Red. masses --      1.7426                 1.5282                 1.2294
 Frc consts  --      1.8564                 1.7475                 1.4491
 IR Inten    --     29.0398                 4.4230                 0.9795

                     55                     56                     57
                      A                      A                      A
 Frequencies --   1452.0924              1467.8305              1469.2275
 Red. masses --      1.1641                 1.1237                 1.1018
 Frc consts  --      1.4462                 1.4265                 1.4013
 IR Inten    --      1.5159                 5.1595                 9.6512

                     58                     59                     60
                      A                      A                      A
 Frequencies --   1479.0575              1486.7033              1497.8617
 Red. masses --      1.0903                 1.0634                 1.0689
 Frc consts  --      1.4052                 1.3848                 1.4129
 IR Inten    --      3.8551                 1.8694                 0.8689

                     61                     62                     63
                      A                      A                      A
 Frequencies --   1499.9464              1512.3055              1617.6411
 Red. masses --      1.0397                 1.0877                 8.9621
 Frc consts  --      1.3783                 1.4657                13.8173
 IR Inten    --      5.6696                 3.2215               120.9174

                     64                     65                     66
                      A                      A                      A
 Frequencies --   1712.5812              1856.4915              3012.2461
 Red. masses --      4.7817                12.6272                 1.0584
 Frc consts  --      8.2630                25.6414                 5.6584
 IR Inten    --      9.3612               486.3161                21.1886

                     67                     68                     69
                      A                      A                      A
 Frequencies --   3016.0602              3026.1727              3033.1493
 Red. masses --      1.0583                 1.0570                 1.0373
 Frc consts  --      5.6721                 5.7034                 5.6228
 IR Inten    --      6.9236                17.3711                39.8972

                     70                     71                     72
                      A                      A                      A
 Frequencies --   3039.2768              3042.8478              3049.7955
 Red. masses --      1.0560                 1.1008                 1.1009
 Frc consts  --      5.7474                 6.0049                 6.0332
 IR Inten    --     23.5490                 2.1495                 6.5641

                     73                     74                     75
                      A                      A                      A
 Frequencies --   3060.6943              3067.3287              3090.0437
 Red. masses --      1.0561                 1.1043                 1.1069
 Frc consts  --      5.8291                 6.1215                 6.2273
 IR Inten    --     19.9676                17.1388                11.6264

                     76                     77                     78
                      A                      A                      A
 Frequencies --   3100.1705              3107.0143              3118.2770
 Red. masses --      1.1024                 1.1011                 1.1091
 Frc consts  --      6.2428                 6.2626                 6.3540
 IR Inten    --     39.9821                32.2694                20.1325

                     79                     80                     81
                      A                      A                      A
 Frequencies --   3138.1993              3147.5529              3225.6108
 Red. masses --      1.0644                 1.0862                 1.1143
 Frc consts  --      6.1764                 6.3400                 6.8311
 IR Inten    --     12.5570                 5.0003                13.7777

 - Thermochemistry -
 -------------------
 Temperature   298.150 Kelvin.  Pressure   1.00000 Atm.
 Atom     1 has atomic number  6 and mass  12.00000

 Molecular mass:   196.09219 amu.
 Principal axes and moments of inertia in atomic units:
                           1         2         3
     Eigenvalues --  1667.974636034.611107548.27151
           X            0.99983  -0.01847   0.00154
           Y            0.01847   0.99983  -0.00039
           Z           -0.00153   0.00042   1.00000
 This molecule is an asymmetric top.
 Rotational symmetry number  1.
 Warning -- assumption of classical behavior for rotation
           may cause significant error
 Rotational temperatures (Kelvin)      0.05193     0.01435     0.01147
 Rotational constants (GHZ):           1.08200     0.29907     0.23909
 Zero-point vibrational energy     639318.9 (Joules/Mol)
                                  152.80088 (Kcal/Mol)
 Warning -- explicit consideration of  21 degrees of freedom as
           vibrations may cause significant error
 Vibrational temperatures:     32.64    38.13    50.67    68.96   106.75
          (Kelvin)            144.83   161.55   176.95   204.20   243.25
                              278.89   355.02   373.79   433.75   491.43
                              577.92   605.47   700.44   727.31   793.56
                              875.69   916.96  1063.09  1071.73  1089.71
                             1135.56  1182.63  1302.17  1328.31  1331.88
                             1364.34  1381.13  1439.41  1466.62  1469.97
                             1496.16  1529.18  1537.42  1558.40  1594.07
                             1611.53  1625.04  1689.41  1754.82  1769.87
                             1791.96  1815.09  1879.16  1906.09  1916.97
                             1922.22  1934.64  2004.40  2035.07  2089.24
                             2111.88  2113.89  2128.03  2139.03  2155.09
                             2158.09  2175.87  2327.42  2464.02  2671.08
                             4333.95  4339.44  4353.99  4364.03  4372.84
                             4377.98  4387.98  4403.66  4413.20  4445.88
                             4460.45  4470.30  4486.51  4515.17  4528.63
                             4640.93

 Zero-point correction=                           0.243504 (Hartree/Particle)
 Thermal correction to Energy=                    0.259026
 Thermal correction to Enthalpy=                  0.259971
 Thermal correction to Gibbs Free Energy=         0.197242
 Sum of electronic and zero-point Energies=           -901.959565
 Sum of electronic and thermal Energies=              -901.944042
 Sum of electronic and thermal Enthalpies=            -901.943098
 Sum of electronic and thermal Free Energies=         -902.005826

                     E (Thermal)             CV                S
                      KCal/Mol        Cal/Mol-Kelvin    Cal/Mol-Kelvin
 Total                  162.542             54.108            132.023
 Electronic               0.000              0.000              0.000
 Translational            0.889              2.981             41.725
 Rotational               0.889              2.981             32.696
 Vibrational            160.764             48.146             57.602
 Vibration     1          0.593              1.985              6.384
 Vibration     2          0.593              1.984              6.075
 Vibration     3          0.594              1.982              5.511
 Vibration     4          0.595              1.978              4.901
 Vibration     5          0.599              1.966              4.039
 Vibration     6          0.604              1.949              3.441
 Vibration     7          0.607              1.939              3.229
 Vibration     8          0.610              1.930              3.053
 Vibration     9          0.615              1.911              2.778
 Vibration    10          0.625              1.881              2.446
 Vibration    11          0.635              1.848              2.191
 Vibration    12          0.661              1.768              1.754
 Vibration    13          0.668              1.746              1.663
 Vibration    14          0.693              1.671              1.409
 Vibration    15          0.721              1.592              1.205
 Vibration    16          0.767              1.467              0.957
 Vibration    17          0.783              1.425              0.889
 Vibration    18          0.843              1.279              0.692
 Vibration    19          0.861              1.238              0.645
 Vibration    20          0.907              1.136              0.541
 Vibration    21          0.968              1.014              0.435

 Optimization completed.
    -- Stationary point found.
 Normal termination of Gaussian 16 at Mon May 29 00:50:14 2023.
