 Gaussian 16, Revision A.03,
 Gaussian 16:  ES64L-G16RevA.03 25-Dec-2016

 -----------------------------
 # opt freq b3lyp/6-31g(2df,p)
 -----------------------------

 -------------------
 Title Card Required
 -------------------
 Symbolic Z-matrix:
 Charge =  0 Multiplicity = 1

 SCF Done:  E(RB3LYP) =  -508.627479398     A.U. after   13 cycles
 SCF Done:  E(RB3LYP) =  -508.633107417     A.U. after   11 cycles
 SCF Done:  E(RB3LYP) =  -508.635094996     A.U. after   11 cycles
 SCF Done:  E(RB3LYP) =  -508.635859432     A.U. after   11 cycles
 SCF Done:  E(RB3LYP) =  -508.636037304     A.U. after   10 cycles
 SCF Done:  E(RB3LYP) =  -508.636369285     A.U. after   11 cycles
 SCF Done:  E(RB3LYP) =  -508.636647029     A.U. after   13 cycles
 SCF Done:  E(RB3LYP) =  -508.637345382     A.U. after   11 cycles
 SCF Done:  E(RB3LYP) =  -508.638086105     A.U. after   10 cycles
 SCF Done:  E(RB3LYP) =  -508.639333608     A.U. after   11 cycles
 SCF Done:  E(RB3LYP) =  -508.639897765     A.U. after   12 cycles
 SCF Done:  E(RB3LYP) =  -508.640090444     A.U. after    9 cycles
 SCF Done:  E(RB3LYP) =  -508.640166785     A.U. after    9 cycles
 SCF Done:  E(RB3LYP) =  -508.640181222     A.U. after    9 cycles
 SCF Done:  E(RB3LYP) =  -508.640184437     A.U. after    8 cycles
 SCF Done:  E(RB3LYP) =  -508.640185380     A.U. after    7 cycles
 SCF Done:  E(RB3LYP) =  -508.640185490     A.U. after    7 cycles
 SCF Done:  E(RB3LYP) =  -508.640185550     A.U. after    6 cycles
 Optimization completed.
    -- Stationary point found.
 Normal termination of Gaussian 16 at Sun May 28 21:24:41 2023.

 ----------------------------------------------------------------------
 #N Geom=AllCheck Guess=TCheck SCRF=Check GenChk RB3LYP/6-31G(2df,p) Fr
 eq
 ----------------------------------------------------------------------

 Structure from the checkpoint file:  "CdCCC1dCCCqCCrCqCrCC1.chk"
 -------------------
 Title Card Required
 -------------------
 Charge =  0 Multiplicity = 1

                         Standard orientation:
 ---------------------------------------------------------------------
 Center     Atomic      Atomic             Coordinates (Angstroms)
 Number     Number       Type             X           Y           Z
 ---------------------------------------------------------------------
      1          6           0       -4.825018    0.267490    0.209054
      2          6           0       -3.803316   -0.297183   -0.427781
      3          6           0       -2.733537   -1.146197    0.211578
      4          6           0       -1.335950   -0.567505    0.044909
      5          6           0       -0.455609   -1.165577   -0.764600
      6          6           0        0.991040   -0.802508   -1.010148
      7          6           0        1.710294   -0.156122    0.194946
      8          6           0        3.224785   -0.448366    0.197208
      9          6           0        3.581992   -1.893025    0.563906
     10          6           0        1.407917    1.359430    0.329777
     11          6           0        2.215831    2.244105   -0.633072
     12          6           0       -0.091292    1.686273    0.176462
     13          6           0       -1.074652    0.703979    0.831449
     14          1           0       -5.564044    0.868219   -0.310868
     15          1           0       -4.967718    0.143645    1.279344
     16          1           0       -3.693366   -0.148523   -1.501660
     17          1           0       -2.757437   -2.149690   -0.231362
     18          1           0       -2.962298   -1.262643    1.279813
     19          1           0       -0.795850   -2.052592   -1.298128
     20          1           0        1.083155   -0.154997   -1.895165
     21          1           0        1.513595   -1.724893   -1.287721
     22          1           0        1.301350   -0.637052    1.093388
     23          1           0        3.712382    0.222872    0.916159
     24          1           0        3.652718   -0.203318   -0.783209
     25          1           0        3.215901   -2.146118    1.565248
     26          1           0        4.666377   -2.042706    0.558506
     27          1           0        3.150013   -2.615992   -0.135697
     28          1           0        1.703266    1.637035    1.352468
     29          1           0        2.030440    1.972191   -1.678859
     30          1           0        3.292384    2.176890   -0.456271
     31          1           0        1.927435    3.294308   -0.516335
     32          1           0       -0.340749    1.756030   -0.890078
     33          1           0       -0.261081    2.688830    0.587826
     34          1           0       -2.036547    1.214042    0.958553
     35          1           0       -0.744826    0.455702    1.851928
 ---------------------------------------------------------------------

 SCF Done:  E(RB3LYP) =  -508.640185550     A.U. after    1 cycles

 The electronic state is 1-A.
 Alpha  occ. eigenvalues --  -10.18356 -10.18201 -10.17864 -10.17862 -10.17659
 Alpha  occ. eigenvalues --  -10.17516 -10.17476 -10.17403 -10.17242 -10.17123
 Alpha  occ. eigenvalues --  -10.16958 -10.16818 -10.16667  -0.83491  -0.80362
 Alpha  occ. eigenvalues --   -0.76873  -0.76078  -0.72913  -0.70098  -0.66590
 Alpha  occ. eigenvalues --   -0.63468  -0.62198  -0.58764  -0.55075  -0.53074
 Alpha  occ. eigenvalues --   -0.50856  -0.47270  -0.46061  -0.44990  -0.44427
 Alpha  occ. eigenvalues --   -0.42830  -0.41881  -0.41475  -0.40848  -0.39733
 Alpha  occ. eigenvalues --   -0.38255  -0.38210  -0.36726  -0.36396  -0.35560
 Alpha  occ. eigenvalues --   -0.34879  -0.34133  -0.33663  -0.32494  -0.30955
 Alpha  occ. eigenvalues --   -0.30155  -0.29583  -0.29480  -0.25299  -0.22735
 Alpha virt. eigenvalues --    0.01152   0.04465   0.08255   0.10166   0.10718
 Alpha virt. eigenvalues --    0.11249   0.12504   0.13123   0.13503   0.14522
 Alpha virt. eigenvalues --    0.15111   0.15605   0.15932   0.16829   0.17188

 Mulliken charges:
               1
     1  C   -0.319425
     2  C    0.045193
     3  C   -0.336966
     4  C    0.319257
     5  C   -0.155715
     6  C   -0.274523
     7  C    0.056824
     8  C   -0.197645
     9  C   -0.393569
    10  C    0.010127
    11  C   -0.397181
    12  C   -0.199606
    13  C   -0.317459
    14  H    0.109923
    15  H    0.102487
    16  H    0.089114
    17  H    0.105562
    18  H    0.097560
    19  H    0.069409
    20  H    0.105310
    21  H    0.096223
    22  H    0.070565
    23  H    0.090758
    24  H    0.095316
    25  H    0.113938
    26  H    0.110206
    27  H    0.117414
    28  H    0.062985
    29  H    0.112606
    30  H    0.112061
    31  H    0.108339
    32  H    0.095567
    33  H    0.089286
    34  H    0.104893
    35  H    0.101164
 Sum of Mulliken charges =  -0.00000

 Dipole moment (field-independent basis, Debye):
    X=              0.3072    Y=              0.0790    Z=              0.1217  Tot=              0.3398
 Quadrupole moment (field-independent basis, Debye-Ang):
   XX=            -83.7436   YY=            -83.5303   ZZ=            -81.4982
   XY=             -0.7409   XZ=             -0.3633   YZ=              0.7854

  Exact polarizability: 174.766 -10.746 128.170 -10.329   5.487 115.463
 Approx polarizability: 216.162 -18.913 184.637 -22.507  14.911 193.206

                      1                      2                      3
                      A                      A                      A
 Frequencies --     43.0835                56.4690                83.0491
 Red. masses --      3.3614                 2.8597                 2.6691
 Frc consts  --      0.0037                 0.0054                 0.0108
 IR Inten    --      0.0132                 0.0257                 0.0799

                      4                      5                      6
                      A                      A                      A
 Frequencies --     92.4970               121.3943               163.9531
 Red. masses --      2.7182                 1.7703                 2.5042
 Frc consts  --      0.0137                 0.0154                 0.0397
 IR Inten    --      0.0197                 0.0151                 0.1827

                      7                      8                      9
                      A                      A                      A
 Frequencies --    194.3428               225.6865               241.1117
 Red. masses --      1.7018                 1.3972                 2.1714
 Frc consts  --      0.0379                 0.0419                 0.0744
 IR Inten    --      0.1252                 0.0015                 0.1940

                     10                     11                     12
                      A                      A                      A
 Frequencies --    253.4493               280.4395               285.8991
 Red. masses --      1.3741                 2.2294                 2.1201
 Frc consts  --      0.0520                 0.1033                 0.1021
 IR Inten    --      0.1679                 0.6243                 0.3014

                     13                     14                     15
                      A                      A                      A
 Frequencies --    296.0502               337.4567               358.2609
 Red. masses --      2.8036                 2.4780                 2.5254
 Frc consts  --      0.1448                 0.1663                 0.1910
 IR Inten    --      0.0726                 0.6898                 0.7130

                     16                     17                     18
                      A                      A                      A
 Frequencies --    373.7326               416.3075               442.3787
 Red. masses --      2.4812                 2.6695                 2.1424
 Frc consts  --      0.2042                 0.2726                 0.2470
 IR Inten    --      0.1260                 1.0789                 1.6233

                     19                     20                     21
                      A                      A                      A
 Frequencies --    486.7370               556.5415               572.7710
 Red. masses --      2.0312                 2.4671                 2.4426
 Frc consts  --      0.2835                 0.4502                 0.4721
 IR Inten    --      4.2041                 0.6635                 1.4044

                     22                     23                     24
                      A                      A                      A
 Frequencies --    603.3445               681.1811               731.4848
 Red. masses --      2.0869                 1.9475                 2.2738
 Frc consts  --      0.4476                 0.5324                 0.7168
 IR Inten    --      1.7327                 3.9701                 1.9502

                     25                     26                     27
                      A                      A                      A
 Frequencies --    780.8854               815.9955               850.7444
 Red. masses --      1.3012                 2.6912                 1.4216
 Frc consts  --      0.4675                 1.0558                 0.6062
 IR Inten    --      0.6005                 1.4427                 6.3260

                     28                     29                     30
                      A                      A                      A
 Frequencies --    864.3365               906.5682               921.1195
 Red. masses --      2.0122                 2.0818                 1.5160
 Frc consts  --      0.8857                 1.0081                 0.7578
 IR Inten    --      0.5946                 7.1895                 1.9520

                     31                     32                     33
                      A                      A                      A
 Frequencies --    926.6150               941.4415               947.7651
 Red. masses --      1.7577                 1.6989                 1.4158
 Frc consts  --      0.8892                 0.8872                 0.7493
 IR Inten    --      2.5186                 6.3285                15.2852

                     34                     35                     36
                      A                      A                      A
 Frequencies --    950.0371               977.5696               985.5481
 Red. masses --      1.6388                 1.8099                 2.0263
 Frc consts  --      0.8715                 1.0191                 1.1596
 IR Inten    --     12.4326                 0.7415                 0.5686

                     37                     38                     39
                      A                      A                      A
 Frequencies --   1028.3324              1042.4589              1054.0082
 Red. masses --      2.0224                 1.1584                 1.7795
 Frc consts  --      1.2600                 0.7417                 1.1648
 IR Inten    --      1.9187                 7.6240                 0.5569

                     40                     41                     42
                      A                      A                      A
 Frequencies --   1066.2414              1069.1711              1099.9263
 Red. masses --      2.1454                 2.1766                 2.3339
 Frc consts  --      1.4370                 1.4660                 1.6636
 IR Inten    --      1.2167                12.5520                 1.5389

                     43                     44                     45
                      A                      A                      A
 Frequencies --   1107.4601              1130.0310              1142.3079
 Red. masses --      1.7803                 1.9089                 1.9636
 Frc consts  --      1.2865                 1.4362                 1.5096
 IR Inten    --      0.6398                 1.8397                 0.9466

                     46                     47                     48
                      A                      A                      A
 Frequencies --   1151.8116              1186.9447              1214.7770
 Red. masses --      1.9979                 1.8426                 1.5007
 Frc consts  --      1.5616                 1.5295                 1.3047
 IR Inten    --      0.6854                 3.0175                 4.3953

                     49                     50                     51
                      A                      A                      A
 Frequencies --   1237.4548              1242.9579              1275.9597
 Red. masses --      1.4749                 1.2408                 1.1489
 Frc consts  --      1.3307                 1.1294                 1.1021
 IR Inten    --      3.0317                 1.3491                 6.4153

                     52                     53                     54
                      A                      A                      A
 Frequencies --   1288.7361              1310.1316              1316.6327
 Red. masses --      1.2517                 1.3523                 1.1986
 Frc consts  --      1.2249                 1.3676                 1.2242
 IR Inten    --      0.1365                 6.2315                 6.1747

                     55                     56                     57
                      A                      A                      A
 Frequencies --   1327.1982              1339.6198              1348.3818
 Red. masses --      1.2549                 1.2942                 1.3856
 Frc consts  --      1.3023                 1.3684                 1.4843
 IR Inten    --      0.5283                 0.8404                 3.3864

                     58                     59                     60
                      A                      A                      A
 Frequencies --   1357.8086              1363.6623              1385.3936
 Red. masses --      1.3447                 1.2565                 1.4527
 Frc consts  --      1.4607                 1.3766                 1.6427
 IR Inten    --      0.5753                 2.7976                 2.0204

                     61                     62                     63
                      A                      A                      A
 Frequencies --   1394.1790              1402.1129              1409.8220
 Red. masses --      1.4379                 1.4978                 1.4633
 Frc consts  --      1.6467                 1.7349                 1.7137
 IR Inten    --      1.4077                 1.3752                 2.2436

                     64                     65                     66
                      A                      A                      A
 Frequencies --   1413.0136              1414.2757              1451.3687
 Red. masses --      1.2646                 1.2420                 1.1708
 Frc consts  --      1.4877                 1.4636                 1.4530
 IR Inten    --      1.9417                 6.3830                 1.7001

                     67                     68                     69
                      A                      A                      A
 Frequencies --   1472.8043              1475.1489              1481.4563
 Red. masses --      1.1012                 1.0856                 1.0831
 Frc consts  --      1.4074                 1.3918                 1.4006
 IR Inten    --      5.0822                 0.7149                 3.0899

                     70                     71                     72
                      A                      A                      A
 Frequencies --   1484.8225              1491.2282              1499.4654
 Red. masses --      1.0693                 1.0750                 1.0551
 Frc consts  --      1.3889                 1.4085                 1.3977
 IR Inten    --      1.5818                 0.6359                 2.4010

                     73                     74                     75
                      A                      A                      A
 Frequencies --   1503.5908              1503.8897              1508.0956
 Red. masses --      1.0563                 1.0490                 1.0595
 Frc consts  --      1.4069                 1.3978                 1.4198
 IR Inten    --      5.7930                 3.8596                 7.2189

                     76                     77                     78
                      A                      A                      A
 Frequencies --   1707.6223              1732.3103              2983.2878
 Red. masses --      4.9317                 6.7690                 1.0815
 Frc consts  --      8.4730                11.9681                 5.6710
 IR Inten    --      8.5438                 1.0235                21.6080

                     79                     80                     81
                      A                      A                      A
 Frequencies --   2991.5905              2995.3435              3007.4748
 Red. masses --      1.0707                 1.0716                 1.0592
 Frc consts  --      5.6458                 5.6646                 5.6448
 IR Inten    --      9.8890                 6.6363                24.7211

                     82                     83                     84
                      A                      A                      A
 Frequencies --   3010.9168              3016.2249              3017.9894
 Red. masses --      1.0718                 1.0689                 1.0600
 Frc consts  --      5.7246                 5.7293                 5.6886
 IR Inten    --     17.5279                32.2261                33.8918

                     85                     86                     87
                      A                      A                      A
 Frequencies --   3030.3182              3030.6698              3048.0780
 Red. masses --      1.0385                 1.0376                 1.0886
 Frc consts  --      5.6189                 5.6152                 5.9592
 IR Inten    --     49.6190                 6.8094                36.9729

                     88                     89                     90
                      A                      A                      A
 Frequencies --   3049.1242              3050.3024              3051.7458
 Red. masses --      1.0992                 1.0979                 1.0961
 Frc consts  --      6.0209                 6.0186                 6.0146
 IR Inten    --      8.0074                25.9771                24.4079

                     91                     92                     93
                      A                      A                      A
 Frequencies --   3056.2509              3089.0820              3097.4549
 Red. masses --      1.0982                 1.1000                 1.1012
 Frc consts  --      6.0435                 6.1846                 6.2250
 IR Inten    --     40.9336                36.4502                43.2457

                     94                     95                     96
                      A                      A                      A
 Frequencies --   3100.4857              3111.1301              3121.6145
 Red. masses --      1.1007                 1.0994                 1.0878
 Frc consts  --      6.2341                 6.2695                 6.2454
 IR Inten    --     40.4872                36.8439                32.9795

                     97                     98                     99
                      A                      A                      A
 Frequencies --   3131.1078              3141.6752              3220.5373
 Red. masses --      1.0718                 1.0782                 1.1142
 Frc consts  --      6.1909                 6.2700                 6.8087
 IR Inten    --     17.5128                 5.4037                16.7327

 - Thermochemistry -
 -------------------
 Temperature   298.150 Kelvin.  Pressure   1.00000 Atm.
 Atom     1 has atomic number  6 and mass  12.00000

 Molecular mass:   178.17215 amu.
 Principal axes and moments of inertia in atomic units:
                           1         2         3
     Eigenvalues --  1249.360864456.874245199.76453
           X            0.99998  -0.00626  -0.00246
           Y            0.00624   0.99993  -0.00968
           Z            0.00252   0.00966   0.99995
 This molecule is an asymmetric top.
 Rotational symmetry number  1.
 Warning -- assumption of classical behavior for rotation
           may cause significant error
 Rotational temperatures (Kelvin)      0.06933     0.01943     0.01666
 Rotational constants (GHZ):           1.44453     0.40493     0.34708
 Zero-point vibrational energy     840683.3 (Joules/Mol)
                                  200.92812 (Kcal/Mol)
 Warning -- explicit consideration of  22 degrees of freedom as
           vibrations may cause significant error
 Vibrational temperatures:     61.99    81.25   119.49   133.08   174.66
          (Kelvin)            235.89   279.62   324.71   346.91   364.66
                              403.49   411.35   425.95   485.52   515.46
                              537.72   598.97   636.48   700.31   800.74
                              824.09   868.08   980.07  1052.44  1123.52
                             1174.04  1224.03  1243.59  1304.35  1325.29
                             1333.19  1354.52  1363.62  1366.89  1406.50
                             1417.98  1479.54  1499.87  1516.48  1534.08
                             1538.30  1582.55  1593.39  1625.86  1643.53
                             1657.20  1707.75  1747.79  1780.42  1788.34
                             1835.82  1854.20  1884.99  1894.34  1909.54
                             1927.41  1940.02  1953.58  1962.01  1993.27
                             2005.91  2017.33  2028.42  2033.01  2034.83
                             2088.20  2119.04  2122.41  2131.49  2136.33
                             2145.54  2157.40  2163.33  2163.76  2169.81
                             2456.89  2492.41  4292.29  4304.23  4309.63
                             4327.09  4332.04  4339.67  4342.21  4359.95
                             4360.46  4385.50  4387.01  4388.70  4390.78
                             4397.26  4444.50  4456.55  4460.91  4476.22
                             4491.31  4504.97  4520.17  4633.63

 Zero-point correction=                           0.320199 (Hartree/Particle)
 Thermal correction to Energy=                    0.334684
 Thermal correction to Enthalpy=                  0.335628
 Thermal correction to Gibbs Free Energy=         0.279176
 Sum of electronic and zero-point Energies=           -508.319986
 Sum of electronic and thermal Energies=              -508.305502
 Sum of electronic and thermal Enthalpies=            -508.304558
 Sum of electronic and thermal Free Energies=         -508.361010

                     E (Thermal)             CV                S
                      KCal/Mol        Cal/Mol-Kelvin    Cal/Mol-Kelvin
 Total                  210.017             55.946            118.813
 Electronic               0.000              0.000              0.000
 Translational            0.889              2.981             41.440
 Rotational               0.889              2.981             31.738
 Vibrational            208.240             49.984             45.635
 Vibration     1          0.595              1.980              5.112
 Vibration     2          0.596              1.975              4.577
 Vibration     3          0.600              1.961              3.817
 Vibration     4          0.602              1.955              3.607
 Vibration     5          0.609              1.931              3.078
 Vibration     6          0.623              1.887              2.504
 Vibration     7          0.635              1.848              2.186
 Vibration     8          0.650              1.802              1.913
 Vibration     9          0.658              1.777              1.795
 Vibration    10          0.665              1.757              1.706
 Vibration    11          0.680              1.710              1.531
 Vibration    12          0.684              1.700              1.498
 Vibration    13          0.690              1.681              1.439
 Vibration    14          0.718              1.601              1.224
 Vibration    15          0.733              1.558              1.130
 Vibration    16          0.745              1.526              1.064
 Vibration    17          0.780              1.435              0.905
 Vibration    18          0.802              1.378              0.819
 Vibration    19          0.843              1.279              0.692
 Vibration    20          0.912              1.125              0.531
 Vibration    21          0.929              1.090              0.499
 Vibration    22          0.962              1.025              0.444

 Optimization completed.
    -- Stationary point found.
 Normal termination of Gaussian 16 at Sun May 28 23:33:32 2023.
