 Gaussian 16, Revision A.03,
 Gaussian 16:  ES64L-G16RevA.03 25-Dec-2016

 -----------------------------
 # opt freq b3lyp/6-31g(2df,p)
 -----------------------------

 -------------------
 Title Card Required
 -------------------
 Symbolic Z-matrix:
 Charge =  0 Multiplicity = 1

 SCF Done:  E(RB3LYP) =  -470.499533096     A.U. after   13 cycles
 SCF Done:  E(RB3LYP) =  -470.507331692     A.U. after   11 cycles
 SCF Done:  E(RB3LYP) =  -470.515020262     A.U. after   11 cycles
 SCF Done:  E(RB3LYP) =  -470.518700204     A.U. after   11 cycles
 SCF Done:  E(RB3LYP) =  -470.521692891     A.U. after   11 cycles
 SCF Done:  E(RB3LYP) =  -470.523451148     A.U. after   11 cycles
 SCF Done:  E(RB3LYP) =  -470.525009754     A.U. after   11 cycles
 SCF Done:  E(RB3LYP) =  -470.526128103     A.U. after   12 cycles
 SCF Done:  E(RB3LYP) =  -470.526612628     A.U. after   10 cycles
 SCF Done:  E(RB3LYP) =  -470.526680938     A.U. after   10 cycles
 SCF Done:  E(RB3LYP) =  -470.526759820     A.U. after    8 cycles
 SCF Done:  E(RB3LYP) =  -470.526760598     A.U. after    7 cycles
 SCF Done:  E(RB3LYP) =  -470.526760639     A.U. after    6 cycles
 SCF Done:  E(RB3LYP) =  -470.526760656     A.U. after    6 cycles
 SCF Done:  E(RB3LYP) =  -470.526760666     A.U. after    6 cycles
 SCF Done:  E(RB3LYP) =  -470.526760680     A.U. after    6 cycles
 SCF Done:  E(RB3LYP) =  -470.526760690     A.U. after    6 cycles
 SCF Done:  E(RB3LYP) =  -470.526760694     A.U. after    6 cycles
 SCF Done:  E(RB3LYP) =  -470.526760695     A.U. after    5 cycles
 Optimization completed.
    -- Stationary point found.
 Normal termination of Gaussian 16 at Sun May 28 13:49:05 2023.

 ----------------------------------------------------------------------
 #N Geom=AllCheck Guess=TCheck SCRF=Check GenChk RB3LYP/6-31G(2df,p) Fr
 eq
 ----------------------------------------------------------------------

 Structure from the checkpoint file:  "CdCCCqCrCqCCrCqdCrCC.chk"
 -------------------
 Title Card Required
 -------------------
 Charge =  0 Multiplicity = 1

                         Standard orientation:
 ---------------------------------------------------------------------
 Center     Atomic      Atomic             Coordinates (Angstroms)
 Number     Number       Type             X           Y           Z
 ---------------------------------------------------------------------
      1          6           0        4.430499   -0.786148    0.369425
      2          6           0        3.396821   -0.463102   -0.401798
      3          6           0        2.181252    0.306583    0.033128
      4          6           0        0.853328   -0.443797   -0.227158
      5          6           0        0.821216   -1.761464    0.561961
      6          6           0       -0.404633    0.413736    0.084951
      7          6           0       -0.403298    1.833239   -0.562018
      8          6           0        0.105583    2.961295    0.344145
      9          6           0       -1.705572   -0.301960   -0.287469
     10          6           0       -1.903408   -0.869050   -1.477730
     11          6           0       -2.770323   -0.248372    0.786724
     12          6           0       -4.132082   -0.852856    0.446618
     13          1           0        5.285328   -1.331560   -0.016582
     14          1           0        4.465090   -0.512742    1.420562
     15          1           0        3.408106   -0.760864   -1.451200
     16          1           0        2.169190    1.255360   -0.516747
     17          1           0        2.265172    0.557336    1.098674
     18          1           0        0.831384   -0.685728   -1.299062
     19          1           0        0.849931   -1.564339    1.641103
     20          1           0        1.686167   -2.385662    0.322797
     21          1           0       -0.085082   -2.331320    0.345150
     22          1           0       -0.421153    0.558480    1.175095
     23          1           0       -1.427276    2.077370   -0.863372
     24          1           0        0.171923    1.804415   -1.496339
     25          1           0       -0.513591    3.042169    1.244721
     26          1           0        0.062330    3.925651   -0.172989
     27          1           0        1.137160    2.806339    0.670936
     28          1           0       -1.131443   -0.894219   -2.239457
     29          1           0       -2.846029   -1.331176   -1.746211
     30          1           0       -2.902049    0.803491    1.082775
     31          1           0       -2.366542   -0.737665    1.685682
     32          1           0       -4.589567   -0.351645   -0.412255
     33          1           0       -4.816256   -0.754552    1.294727
     34          1           0       -4.049089   -1.917761    0.207328
 ---------------------------------------------------------------------

 SCF Done:  E(RB3LYP) =  -470.526760695     A.U. after    1 cycles

 The electronic state is 1-A.
 Alpha  occ. eigenvalues --  -10.18470 -10.18413 -10.18369 -10.18360 -10.18233
 Alpha  occ. eigenvalues --  -10.17909 -10.17825 -10.17271 -10.17147 -10.17038
 Alpha  occ. eigenvalues --  -10.16189 -10.16060  -0.83272  -0.79682  -0.76807
 Alpha  occ. eigenvalues --   -0.74429  -0.71895  -0.67316  -0.66972  -0.63248
 Alpha  occ. eigenvalues --   -0.59492  -0.56174  -0.54835  -0.51012  -0.47046
 Alpha  occ. eigenvalues --   -0.46485  -0.45373  -0.44069  -0.43501  -0.42447
 Alpha  occ. eigenvalues --   -0.41306  -0.40385  -0.39191  -0.38189  -0.37515
 Alpha  occ. eigenvalues --   -0.37285  -0.35491  -0.34765  -0.34320  -0.34022
 Alpha  occ. eigenvalues --   -0.33902  -0.33470  -0.31462  -0.30958  -0.29557
 Alpha  occ. eigenvalues --   -0.24973  -0.23804
 Alpha virt. eigenvalues --    0.02234   0.03212   0.08387   0.09825   0.10486
 Alpha virt. eigenvalues --    0.11541   0.12724   0.13024   0.13753   0.14446
 Alpha virt. eigenvalues --    0.14970   0.15983   0.16137   0.16646   0.16874

 Mulliken charges:
               1
     1  C   -0.324685
     2  C    0.036564
     3  C   -0.246653
     4  C    0.020385
     5  C   -0.399663
     6  C   -0.061497
     7  C   -0.193184
     8  C   -0.384989
     9  C    0.354746
    10  C   -0.419841
    11  C   -0.262840
    12  C   -0.396536
    13  H    0.108595
    14  H    0.100313
    15  H    0.084128
    16  H    0.108283
    17  H    0.092463
    18  H    0.071831
    19  H    0.104972
    20  H    0.117842
    21  H    0.118685
    22  H    0.062968
    23  H    0.098767
    24  H    0.095871
    25  H    0.112966
    26  H    0.110982
    27  H    0.119970
    28  H    0.097891
    29  H    0.102269
    30  H    0.106171
    31  H    0.109130
    32  H    0.121319
    33  H    0.110672
    34  H    0.122103
 Sum of Mulliken charges =  -0.00000

 Dipole moment (field-independent basis, Debye):
    X=             -0.3770    Y=              0.3931    Z=              0.2209  Tot=              0.5878
 Quadrupole moment (field-independent basis, Debye-Ang):
   XX=            -78.5685   YY=            -79.6047   ZZ=            -76.5689
   XY=             -0.5466   XZ=             -1.5550   YZ=              0.5837

  Exact polarizability: 156.838  -2.644 118.099   5.762   5.495 118.117
 Approx polarizability: 191.449  -5.135 166.085  12.582  11.386 197.866

                      1                      2                      3
                      A                      A                      A
 Frequencies --     16.3955                49.9826                69.4308
 Red. masses --      3.2512                 3.2449                 2.2081
 Frc consts  --      0.0005                 0.0048                 0.0063
 IR Inten    --      0.1000                 0.0294                 0.0535

                      4                      5                      6
                      A                      A                      A
 Frequencies --     92.0660               102.0811               120.9877
 Red. masses --      2.4224                 1.9957                 2.3071
 Frc consts  --      0.0121                 0.0123                 0.0199
 IR Inten    --      0.0539                 0.1281                 0.1277

                      7                      8                      9
                      A                      A                      A
 Frequencies --    157.8463               189.0005               194.9287
 Red. masses --      2.5012                 1.4466                 2.1728
 Frc consts  --      0.0367                 0.0304                 0.0486
 IR Inten    --      0.0678                 0.0728                 0.0260

                     10                     11                     12
                      A                      A                      A
 Frequencies --    233.8735               239.1013               264.8671
 Red. masses --      1.5379                 1.5647                 1.3653
 Frc consts  --      0.0496                 0.0527                 0.0564
 IR Inten    --      0.1146                 0.2436                 0.0444

                     13                     14                     15
                      A                      A                      A
 Frequencies --    271.0770               271.9124               316.2656
 Red. masses --      2.3236                 1.6864                 2.7869
 Frc consts  --      0.1006                 0.0735                 0.1642
 IR Inten    --      0.0838                 0.0282                 0.0507

                     16                     17                     18
                      A                      A                      A
 Frequencies --    344.3443               391.5943               434.3671
 Red. masses --      2.6778                 2.1933                 2.1093
 Frc consts  --      0.1871                 0.1982                 0.2345
 IR Inten    --      0.6090                 0.4348                 1.1037

                     19                     20                     21
                      A                      A                      A
 Frequencies --    439.5711               493.6277               538.5508
 Red. masses --      2.5036                 2.4756                 2.0219
 Frc consts  --      0.2850                 0.3554                 0.3455
 IR Inten    --      1.1816                 0.3905                 5.6418

                     22                     23                     24
                      A                      A                      A
 Frequencies --    577.6472               655.1668               719.3591
 Red. masses --      2.2959                 1.5342                 1.2407
 Frc consts  --      0.4514                 0.3880                 0.3783
 IR Inten    --      1.2606                 4.3545                 0.0502

                     25                     26                     27
                      A                      A                      A
 Frequencies --    761.5473               812.0420               830.7459
 Red. masses --      1.3028                 1.1686                 2.5134
 Frc consts  --      0.4452                 0.4540                 1.0220
 IR Inten    --      3.9716                 0.4682                 1.2202

                     28                     29                     30
                      A                      A                      A
 Frequencies --    854.7805               884.8266               892.9396
 Red. masses --      1.8849                 2.2332                 1.3581
 Frc consts  --      0.8114                 1.0301                 0.6380
 IR Inten    --      0.9411                 2.8366                 0.2582

                     31                     32                     33
                      A                      A                      A
 Frequencies --    921.5987               939.3116               945.2741
 Red. masses --      1.3819                 1.9414                 1.3980
 Frc consts  --      0.6915                 1.0092                 0.7360
 IR Inten    --     32.3516                 2.1241                29.3771

                     34                     35                     36
                      A                      A                      A
 Frequencies --    962.4276               968.9997              1020.5477
 Red. masses --      1.8473                 1.8577                 1.5273
 Frc consts  --      1.0082                 1.0277                 0.9372
 IR Inten    --      3.6264                 1.4431                 0.5072

                     37                     38                     39
                      A                      A                      A
 Frequencies --   1026.0762              1041.4527              1052.5859
 Red. masses --      1.7464                 1.2839                 1.9812
 Frc consts  --      1.0833                 0.8204                 1.2933
 IR Inten    --      1.7988                 3.6121                 5.6707

                     40                     41                     42
                      A                      A                      A
 Frequencies --   1068.9159              1084.9135              1099.3289
 Red. masses --      1.7524                 1.8115                 1.9190
 Frc consts  --      1.1797                 1.2563                 1.3664
 IR Inten    --      0.8285                 5.2583                 6.2373

                     43                     44                     45
                      A                      A                      A
 Frequencies --   1104.6517              1127.0540              1163.1039
 Red. masses --      1.7897                 2.1912                 1.9213
 Frc consts  --      1.2867                 1.6400                 1.5313
 IR Inten    --      0.6901                 1.1092                 3.8027

                     46                     47                     48
                      A                      A                      A
 Frequencies --   1179.8755              1211.4067              1248.9403
 Red. masses --      2.0318                 1.8712                 1.3831
 Frc consts  --      1.6665                 1.6179                 1.2711
 IR Inten    --      2.0785                11.8717                 3.5979

                     49                     50                     51
                      A                      A                      A
 Frequencies --   1273.6910              1294.7877              1302.0411
 Red. masses --      1.2690                 1.1663                 1.2229
 Frc consts  --      1.2129                 1.1521                 1.2215
 IR Inten    --      1.3788                 0.4922                 1.1798

                     52                     53                     54
                      A                      A                      A
 Frequencies --   1321.4793              1327.8541              1343.7295
 Red. masses --      1.1837                 1.2587                 1.4023
 Frc consts  --      1.2179                 1.3075                 1.4918
 IR Inten    --      3.1746                 1.4657                 2.2806

                     55                     56                     57
                      A                      A                      A
 Frequencies --   1358.6598              1369.1454              1380.6562
 Red. masses --      1.3258                 1.3637                 1.6155
 Frc consts  --      1.4419                 1.5062                 1.8144
 IR Inten    --      0.2288                 3.7424                 1.0224

                     58                     59                     60
                      A                      A                      A
 Frequencies --   1389.8374              1407.5361              1407.8344
 Red. masses --      1.4837                 1.2632                 1.2402
 Frc consts  --      1.6886                 1.4745                 1.4482
 IR Inten    --      0.5679                 1.6507                 8.4771

                     61                     62                     63
                      A                      A                      A
 Frequencies --   1412.2441              1453.8212              1455.9324
 Red. masses --      1.2262                 1.1576                 1.1665
 Frc consts  --      1.4409                 1.4416                 1.4568
 IR Inten    --      2.7997                 3.6733                 0.3082

                     64                     65                     66
                      A                      A                      A
 Frequencies --   1472.2748              1478.4971              1492.7062
 Red. masses --      1.0798                 1.1064                 1.0550
 Frc consts  --      1.3790                 1.4249                 1.3850
 IR Inten    --      7.8273                 2.2101                 1.6082

                     67                     68                     69
                      A                      A                      A
 Frequencies --   1497.3839              1497.6550              1500.5954
 Red. masses --      1.0489                 1.0419                 1.0454
 Frc consts  --      1.3857                 1.3769                 1.3870
 IR Inten    --      1.0498                 6.2356                 2.0803

                     70                     71                     72
                      A                      A                      A
 Frequencies --   1505.3226              1509.4593              1509.6563
 Red. masses --      1.0474                 1.0615                 1.0616
 Frc consts  --      1.3984                 1.4250                 1.4254
 IR Inten    --      5.4903                 3.8245                 2.3960

                     73                     74                     75
                      A                      A                      A
 Frequencies --   1713.6301              1715.9660              2986.0805
 Red. masses --      5.0168                 4.8344                 1.0752
 Frc consts  --      8.6798                 8.3871                 5.6485
 IR Inten    --     15.6005                10.7309                 2.2366

                     76                     77                     78
                      A                      A                      A
 Frequencies --   2994.6149              3007.1656              3012.7345
 Red. masses --      1.0657                 1.0790                 1.0979
 Frc consts  --      5.6310                 5.7489                 5.8711
 IR Inten    --     22.7584                10.4466                14.1076

                     79                     80                     81
                      A                      A                      A
 Frequencies --   3016.8822              3026.4667              3029.9396
 Red. masses --      1.0594                 1.0649                 1.0444
 Frc consts  --      5.6812                 5.7470                 5.6489
 IR Inten    --     28.7596                17.1610                26.1657

                     82                     83                     84
                      A                      A                      A
 Frequencies --   3033.4751              3037.3946              3059.9767
 Red. masses --      1.0385                 1.0351                 1.0993
 Frc consts  --      5.6305                 5.6266                 6.0646
 IR Inten    --     37.7586                23.6698                27.1203

                     85                     86                     87
                      A                      A                      A
 Frequencies --   3062.3611              3094.1419              3099.5966
 Red. masses --      1.0981                 1.1010                 1.0927
 Frc consts  --      6.0676                 6.2104                 6.1851
 IR Inten    --     16.1352                36.6575                22.9552

                     88                     89                     90
                      A                      A                      A
 Frequencies --   3106.0227              3107.0506              3117.0530
 Red. masses --      1.1016                 1.1014                 1.0989
 Frc consts  --      6.2617                 6.2644                 6.2907
 IR Inten    --     26.2478                28.7887                36.4728

                     91                     92                     93
                      A                      A                      A
 Frequencies --   3119.0335              3126.2676              3140.5150
 Red. masses --      1.0828                 1.1014                 1.0669
 Frc consts  --      6.2063                 6.3422                 6.2001
 IR Inten    --     23.4437                25.2672                 5.9439

                     94                     95                     96
                      A                      A                      A
 Frequencies --   3155.8135              3221.0015              3230.1419
 Red. masses --      1.0610                 1.1143                 1.1128
 Frc consts  --      6.2260                 6.8112                 6.8407
 IR Inten    --      6.3985                17.1711                15.7862

 - Thermochemistry -
 -------------------
 Temperature   298.150 Kelvin.  Pressure   1.00000 Atm.
 Atom     1 has atomic number  6 and mass  12.00000

 Molecular mass:   166.17215 amu.
 Principal axes and moments of inertia in atomic units:
                           1         2         3
     Eigenvalues --  1309.348993825.039104555.25221
           X            0.99999   0.00357  -0.00080
           Y           -0.00357   0.99998   0.00485
           Z            0.00082  -0.00485   0.99999
 This molecule is an asymmetric top.
 Rotational symmetry number  1.
 Warning -- assumption of classical behavior for rotation
           may cause significant error
 Rotational temperatures (Kelvin)      0.06615     0.02264     0.01901
 Rotational constants (GHZ):           1.37835     0.47182     0.39619
 Zero-point vibrational energy     816831.2 (Joules/Mol)
                                  195.22735 (Kcal/Mol)
 Warning -- explicit consideration of  22 degrees of freedom as
           vibrations may cause significant error
 Vibrational temperatures:     23.59    71.91    99.90   132.46   146.87
          (Kelvin)            174.07   227.11   271.93   280.46   336.49
                              344.01   381.08   390.02   391.22   455.04
                              495.43   563.42   624.96   632.44   710.22
                              774.85   831.11   942.64  1035.00  1095.70
                             1168.35  1195.26  1229.84  1273.07  1284.74
                             1325.97  1351.46  1360.04  1384.72  1394.17
                             1468.34  1476.29  1498.42  1514.44  1537.93
                             1560.95  1581.69  1589.35  1621.58  1673.45
                             1697.58  1742.94  1796.95  1832.56  1862.91
                             1873.35  1901.31  1910.49  1933.33  1954.81
                             1969.89  1986.46  1999.67  2025.13  2025.56
                             2031.90  2091.72  2094.76  2118.28  2127.23
                             2147.67  2154.40  2154.79  2159.02  2165.82
                             2171.78  2172.06  2465.53  2468.89  4296.30
                             4308.58  4326.64  4334.65  4340.62  4354.41
                             4359.41  4364.49  4370.13  4402.62  4406.05
                             4451.78  4459.63  4468.87  4470.35  4484.74
                             4487.59  4498.00  4518.50  4540.51  4634.30
                             4647.45

 Zero-point correction=                           0.311115 (Hartree/Particle)
 Thermal correction to Energy=                    0.326440
 Thermal correction to Enthalpy=                  0.327384
 Thermal correction to Gibbs Free Energy=         0.268092
 Sum of electronic and zero-point Energies=           -470.215646
 Sum of electronic and thermal Energies=              -470.200321
 Sum of electronic and thermal Enthalpies=            -470.199377
 Sum of electronic and thermal Free Energies=         -470.258668

                     E (Thermal)             CV                S
                      KCal/Mol        Cal/Mol-Kelvin    Cal/Mol-Kelvin
 Total                  204.844             56.695            124.790
 Electronic               0.000              0.000              0.000
 Translational            0.889              2.981             41.232
 Rotational               0.889              2.981             31.501
 Vibrational            203.067             50.734             52.057
 Vibration     1          0.593              1.986              7.029
 Vibration     2          0.595              1.978              4.818
 Vibration     3          0.598              1.969              4.169
 Vibration     4          0.602              1.955              3.616
 Vibration     5          0.604              1.948              3.414
 Vibration     6          0.609              1.932              3.085
 Vibration     7          0.621              1.894              2.575
 Vibration     8          0.633              1.855              2.238
 Vibration     9          0.636              1.847              2.180
 Vibration    10          0.654              1.789              1.849
 Vibration    11          0.657              1.781              1.810
 Vibration    12          0.671              1.737              1.629
 Vibration    13          0.675              1.727              1.589
 Vibration    14          0.675              1.725              1.584
 Vibration    15          0.703              1.643              1.329
 Vibration    16          0.723              1.587              1.192
 Vibration    17          0.759              1.488              0.994
 Vibration    18          0.795              1.395              0.845
 Vibration    19          0.800              1.384              0.828
 Vibration    20          0.849              1.264              0.674
 Vibration    21          0.894              1.165              0.568
 Vibration    22          0.934              1.080              0.490

 Optimization completed.
    -- Stationary point found.
 Normal termination of Gaussian 16 at Sun May 28 15:23:47 2023.
