 Gaussian 16, Revision A.03,
 Gaussian 16:  ES64L-G16RevA.03 25-Dec-2016

 -----------------------------
 # opt freq b3lyp/6-31g(2df,p)
 -----------------------------

 -------------------
 Title Card Required
 -------------------
 Symbolic Z-matrix:
 Charge =  0 Multiplicity = 1

 SCF Done:  E(RB3LYP) =  -580.003518100     A.U. after   13 cycles
 SCF Done:  E(RB3LYP) =  -580.014763544     A.U. after   11 cycles
 SCF Done:  E(RB3LYP) =  -580.017354623     A.U. after   11 cycles
 SCF Done:  E(RB3LYP) =  -580.019466570     A.U. after   12 cycles
 SCF Done:  E(RB3LYP) =  -580.021664920     A.U. after   11 cycles
 SCF Done:  E(RB3LYP) =  -580.024018833     A.U. after   12 cycles
 SCF Done:  E(RB3LYP) =  -580.025307656     A.U. after   11 cycles
 SCF Done:  E(RB3LYP) =  -580.026508602     A.U. after   13 cycles
 SCF Done:  E(RB3LYP) =  -580.028622346     A.U. after   11 cycles
 SCF Done:  E(RB3LYP) =  -580.030144288     A.U. after   11 cycles
 SCF Done:  E(RB3LYP) =  -580.030678277     A.U. after   10 cycles
 SCF Done:  E(RB3LYP) =  -580.030762073     A.U. after   10 cycles
 SCF Done:  E(RB3LYP) =  -580.030788597     A.U. after    9 cycles
 SCF Done:  E(RB3LYP) =  -580.030795616     A.U. after    8 cycles
 SCF Done:  E(RB3LYP) =  -580.030797686     A.U. after    7 cycles
 SCF Done:  E(RB3LYP) =  -580.030798446     A.U. after    7 cycles
 SCF Done:  E(RB3LYP) =  -580.030798594     A.U. after    6 cycles
 Optimization completed.
    -- Stationary point found.
 Normal termination of Gaussian 16 at Sun May 28 06:40:33 2023.

 ----------------------------------------------------------------------
 #N Geom=AllCheck Guess=TCheck SCRF=Check GenChk RB3LYP/6-31G(2df,p) Fr
 eq
 ----------------------------------------------------------------------

 Structure from the checkpoint file:  "CdCCqNrqNrC1CCCdCqCCrCC1.chk"
 -------------------
 Title Card Required
 -------------------
 Charge =  0 Multiplicity = 1

                         Standard orientation:
 ---------------------------------------------------------------------
 Center     Atomic      Atomic             Coordinates (Angstroms)
 Number     Number       Type             X           Y           Z
 ---------------------------------------------------------------------
      1          6           0       -4.127443    0.964327    0.466547
      2          6           0       -3.260413    0.406831   -0.370817
      3          6           0       -2.150221   -0.571746   -0.009505
      4          7           0       -2.074322   -0.933252    1.413716
      5          7           0       -2.427738   -1.772542   -0.812389
      6          6           0       -0.771485    0.031706   -0.455752
      7          6           0       -0.434020    1.314414    0.327886
      8          6           0        0.731426    2.144517   -0.251453
      9          6           0        2.107208    1.590675    0.026699
     10          6           0        2.540021    0.378140   -0.328273
     11          6           0        3.935550   -0.088224    0.017489
     12          6           0        3.963646   -1.223174    1.056381
     13          6           0        1.669178   -0.591832   -1.104632
     14          6           0        0.350745   -1.021637   -0.426026
     15          1           0       -4.904749    1.635042    0.116369
     16          1           0       -4.095073    0.778735    1.535969
     17          1           0       -3.330038    0.619241   -1.436545
     18          1           0       -2.972765   -1.299592    1.717324
     19          1           0       -1.885024   -0.117269    1.989093
     20          1           0       -3.411789   -2.011486   -0.723144
     21          1           0       -1.907763   -2.550584   -0.416221
     22          1           0       -0.918769    0.314665   -1.507608
     23          1           0       -0.189738    1.065369    1.368594
     24          1           0       -1.325788    1.950184    0.352615
     25          1           0        0.670468    3.156832    0.161431
     26          1           0        0.576822    2.256186   -1.335591
     27          1           0        2.789204    2.243176    0.569106
     28          1           0        4.521788    0.757994    0.392636
     29          1           0        4.438173   -0.436218   -0.896556
     30          1           0        3.520178   -0.893914    2.001435
     31          1           0        4.990858   -1.545255    1.255561
     32          1           0        3.402920   -2.098981    0.713687
     33          1           0        2.249469   -1.496180   -1.317808
     34          1           0        1.429914   -0.158048   -2.087139
     35          1           0        0.544875   -1.326123    0.607851
     36          1           0       -0.003912   -1.907203   -0.961612
 ---------------------------------------------------------------------

 SCF Done:  E(RB3LYP) =  -580.030798594     A.U. after    1 cycles

 The electronic state is 1-A.
 Alpha  occ. eigenvalues --  -14.30676 -14.30484 -10.23977 -10.18315 -10.17894
 Alpha  occ. eigenvalues --  -10.17727 -10.17538 -10.17457 -10.17293 -10.17144
 Alpha  occ. eigenvalues --  -10.17136 -10.16896 -10.16692 -10.16096  -0.92060
 Alpha  occ. eigenvalues --   -0.83138  -0.82219  -0.77991  -0.76205  -0.74924
 Alpha  occ. eigenvalues --   -0.72552  -0.66720  -0.63380  -0.62183  -0.59014
 Alpha  occ. eigenvalues --   -0.55614  -0.53812  -0.49933  -0.49431  -0.47863
 Alpha  occ. eigenvalues --   -0.47072  -0.46105  -0.45134  -0.44155  -0.42705
 Alpha  occ. eigenvalues --   -0.41649  -0.40384  -0.39402  -0.39014  -0.38323
 Alpha  occ. eigenvalues --   -0.37621  -0.35804  -0.35565  -0.35078  -0.34278
 Alpha  occ. eigenvalues --   -0.32325  -0.31593  -0.31215  -0.30755  -0.29511
 Alpha  occ. eigenvalues --   -0.26215  -0.25317  -0.23540  -0.22140
 Alpha virt. eigenvalues --    0.01393   0.03069   0.07770   0.09423   0.10465
 Alpha virt. eigenvalues --    0.11412   0.11966   0.12794   0.13628   0.14202
 Alpha virt. eigenvalues --    0.14800   0.15125   0.15812   0.16758   0.17068

 Mulliken charges:
               1
     1  C   -0.355229
     2  C    0.022911
     3  C    0.159795
     4  N   -0.536315
     5  N   -0.535302
     6  C    0.069075
     7  C   -0.209673
     8  C   -0.269383
     9  C   -0.162570
    10  C    0.345290
    11  C   -0.278050
    12  C   -0.368624
    13  C   -0.317013
    14  C   -0.212686
    15  H    0.114381
    16  H    0.091023
    17  H    0.098658
    18  H    0.215460
    19  H    0.227141
    20  H    0.219937
    21  H    0.231038
    22  H    0.069823
    23  H    0.092942
    24  H    0.095451
    25  H    0.091896
    26  H    0.101329
    27  H    0.069960
    28  H    0.094422
    29  H    0.096267
    30  H    0.117350
    31  H    0.109532
    32  H    0.118326
    33  H    0.090571
    34  H    0.103135
    35  H    0.104879
    36  H    0.094252
 Sum of Mulliken charges =  -0.00000

 Dipole moment (field-independent basis, Debye):
    X=             -1.1479    Y=              0.0826    Z=              0.8118  Tot=              1.4084
 Quadrupole moment (field-independent basis, Debye-Ang):
   XX=            -82.0098   YY=            -86.6172   ZZ=            -88.5983
   XY=             -0.1071   XZ=             -2.9803   YZ=              0.2062

  Exact polarizability: 171.227 -12.878 138.706  -2.940   5.938 117.142
 Approx polarizability: 210.320 -20.739 212.266  -7.967  15.418 192.608

                      1                      2                      3
                      A                      A                      A
 Frequencies --     39.1078                52.8151                87.2822
 Red. masses --      3.5122                 3.2083                 2.7696
 Frc consts  --      0.0032                 0.0053                 0.0124
 IR Inten    --      0.2662                 0.0506                 0.0980

                      4                      5                      6
                      A                      A                      A
 Frequencies --     93.7088               128.6045               159.7796
 Red. masses --      2.5436                 3.2318                 2.2164
 Frc consts  --      0.0132                 0.0315                 0.0333
 IR Inten    --      0.1582                 0.0737                 0.4432

                      7                      8                      9
                      A                      A                      A
 Frequencies --    208.8547               218.9616               225.1531
 Red. masses --      1.7928                 2.5963                 1.4010
 Frc consts  --      0.0461                 0.0733                 0.0418
 IR Inten    --      1.0792                 0.2252                 0.0391

                     10                     11                     12
                      A                      A                      A
 Frequencies --    260.5536               289.5436               297.5803
 Red. masses --      3.5201                 1.2284                 2.4370
 Frc consts  --      0.1408                 0.0607                 0.1272
 IR Inten    --      1.9534                12.2085                 2.6388

                     13                     14                     15
                      A                      A                      A
 Frequencies --    302.4680               311.7700               328.2164
 Red. masses --      1.7746                 2.3808                 2.0272
 Frc consts  --      0.0957                 0.1363                 0.1287
 IR Inten    --     22.3762                 0.4543                 2.3570

                     16                     17                     18
                      A                      A                      A
 Frequencies --    339.8902               371.7942               399.8400
 Red. masses --      1.6240                 1.9149                 2.5346
 Frc consts  --      0.1105                 0.1560                 0.2387
 IR Inten    --     32.2266                36.6242                 3.2874

                     19                     20                     21
                      A                      A                      A
 Frequencies --    412.4906               445.2482               477.9135
 Red. masses --      2.4948                 2.2832                 2.3654
 Frc consts  --      0.2501                 0.2667                 0.3183
 IR Inten    --      2.6569                 8.0119                 7.9244

                     22                     23                     24
                      A                      A                      A
 Frequencies --    505.9070               581.7587               595.4828
 Red. masses --      2.5555                 2.4950                 2.1995
 Frc consts  --      0.3854                 0.4975                 0.4595
 IR Inten    --      1.4323                 6.6513                 2.1452

                     25                     26                     27
                      A                      A                      A
 Frequencies --    615.6183               726.8346               738.5647
 Red. masses --      2.6976                 2.1028                 2.2380
 Frc consts  --      0.6023                 0.6545                 0.7193
 IR Inten    --      2.0802                 8.2323                 2.1980

                     28                     29                     30
                      A                      A                      A
 Frequencies --    775.2688               791.0119               810.6382
 Red. masses --      2.5857                 1.2165                 2.4575
 Frc consts  --      0.9157                 0.4485                 0.9515
 IR Inten    --      7.5896                 0.8849                12.2351

                     31                     32                     33
                      A                      A                      A
 Frequencies --    858.9854               875.0553               880.4166
 Red. masses --      1.3387                 1.8398                 1.6793
 Frc consts  --      0.5820                 0.8300                 0.7669
 IR Inten    --      6.7194                61.3895                60.0305

                     34                     35                     36
                      A                      A                      A
 Frequencies --    896.1896               907.3974               935.4260
 Red. masses --      1.7495                 2.1748                 1.9846
 Frc consts  --      0.8279                 1.0550                 1.0232
 IR Inten    --     72.2902                15.5967                37.1799

                     37                     38                     39
                      A                      A                      A
 Frequencies --    944.1974               953.6433               964.7647
 Red. masses --      1.9700                 1.3774                 2.0195
 Frc consts  --      1.0348                 0.7380                 1.1075
 IR Inten    --     15.8205                22.5249                10.6843

                     40                     41                     42
                      A                      A                      A
 Frequencies --    997.0734              1020.7387              1046.1626
 Red. masses --      1.9818                 1.7653                 1.9510
 Frc consts  --      1.1608                 1.0837                 1.2581
 IR Inten    --      2.1199                 3.6779                 3.1486

                     43                     44                     45
                      A                      A                      A
 Frequencies --   1050.7295              1051.7098              1064.5430
 Red. masses --      1.3093                 1.6889                 1.9915
 Frc consts  --      0.8517                 1.1007                 1.3297
 IR Inten    --     11.4102                11.3387                 0.3923

                     46                     47                     48
                      A                      A                      A
 Frequencies --   1072.8833              1098.5344              1112.1906
 Red. masses --      1.9185                 1.9812                 2.2400
 Frc consts  --      1.3011                 1.4086                 1.6325
 IR Inten    --      6.4395                 5.4015                 0.8592

                     49                     50                     51
                      A                      A                      A
 Frequencies --   1131.0455              1154.1117              1167.2762
 Red. masses --      1.9034                 1.6410                 1.7116
 Frc consts  --      1.4346                 1.2878                 1.3741
 IR Inten    --      2.2723                 4.8679                 9.8454

                     52                     53                     54
                      A                      A                      A
 Frequencies --   1199.0554              1230.0252              1280.7151
 Red. masses --      1.6760                 1.4989                 1.2990
 Frc consts  --      1.4198                 1.3362                 1.2553
 IR Inten    --      0.5625                 9.0385                 3.4137

                     55                     56                     57
                      A                      A                      A
 Frequencies --   1281.3102              1290.5998              1295.8843
 Red. masses --      1.1913                 1.2212                 1.3785
 Frc consts  --      1.1523                 1.1984                 1.3640
 IR Inten    --      0.1923                 5.1913                19.7168

                     58                     59                     60
                      A                      A                      A
 Frequencies --   1304.1017              1325.4717              1332.0559
 Red. masses --      1.4670                 1.3742                 1.4200
 Frc consts  --      1.4700                 1.4225                 1.4846
 IR Inten    --     11.9396                 2.3807                 0.5814

                     61                     62                     63
                      A                      A                      A
 Frequencies --   1345.8970              1347.8645              1363.6068
 Red. masses --      1.5402                 1.4151                 1.3433
 Frc consts  --      1.6438                 1.5147                 1.4717
 IR Inten    --     16.7799                 5.1330                 1.2855

                     64                     65                     66
                      A                      A                      A
 Frequencies --   1364.5835              1383.4983              1396.6460
 Red. masses --      1.3233                 1.3992                 1.4646
 Frc consts  --      1.4518                 1.5779                 1.6833
 IR Inten    --      0.4122                 0.9190                 0.1795

                     67                     68                     69
                      A                      A                      A
 Frequencies --   1407.0882              1411.7957              1444.4675
 Red. masses --      1.2807                 1.4484                 1.1950
 Frc consts  --      1.4940                 1.7009                 1.4691
 IR Inten    --      1.9795                 0.2410                10.3533

                     70                     71                     72
                      A                      A                      A
 Frequencies --   1478.8197              1481.3476              1485.1987
 Red. masses --      1.0792                 1.0827                 1.0891
 Frc consts  --      1.3906                 1.3999                 1.4154
 IR Inten    --      0.7415                 0.3754                 2.4479

                     73                     74                     75
                      A                      A                      A
 Frequencies --   1487.9585              1496.7798              1500.3766
 Red. masses --      1.0869                 1.0891                 1.0508
 Frc consts  --      1.4178                 1.4376                 1.3938
 IR Inten    --      4.2625                 1.4680                 8.2649

                     76                     77                     78
                      A                      A                      A
 Frequencies --   1507.0547              1644.9161              1657.3844
 Red. masses --      1.0708                 1.0983                 1.0969
 Frc consts  --      1.4328                 1.7509                 1.7753
 IR Inten    --      2.9746                40.0651                31.5587

                     79                     80                     81
                      A                      A                      A
 Frequencies --   1710.3615              1733.1597              2989.6049
 Red. masses --      4.9858                 7.2533                 1.0700
 Frc consts  --      8.5934                12.8369                 5.6347
 IR Inten    --      3.3628                 1.1386                25.6077

                     82                     83                     84
                      A                      A                      A
 Frequencies --   2995.7731              3001.9704              3004.1961
 Red. masses --      1.0685                 1.0668                 1.0790
 Frc consts  --      5.6502                 5.6640                 5.7377
 IR Inten    --      8.4651                35.7212                19.0739

                     85                     86                     87
                      A                      A                      A
 Frequencies --   3020.0650              3032.5986              3041.8813
 Red. masses --      1.0616                 1.0345                 1.0646
 Frc consts  --      5.7049                 5.6055                 5.8037
 IR Inten    --     29.4595                24.4259                13.4785

                     88                     89                     90
                      A                      A                      A
 Frequencies --   3057.7707              3059.6453              3061.3728
 Red. masses --      1.0931                 1.0914                 1.0908
 Frc consts  --      6.0219                 6.0198                 6.0230
 IR Inten    --     12.3233                58.7312                15.5809

                     91                     92                     93
                      A                      A                      A
 Frequencies --   3069.4777              3090.8084              3101.4731
 Red. masses --      1.0974                 1.1031                 1.1011
 Frc consts  --      6.0918                 6.2087                 6.2404
 IR Inten    --     40.6133                30.0695                41.7618

                     94                     95                     96
                      A                      A                      A
 Frequencies --   3106.1675              3134.4801              3137.5660
 Red. masses --      1.1024                 1.0889                 1.0681
 Frc consts  --      6.2668                 6.3031                 6.1950
 IR Inten    --     34.0088                36.5318                14.4359

                     97                     98                     99
                      A                      A                      A
 Frequencies --   3149.3786              3224.1230              3479.4508
 Red. masses --      1.0813                 1.1138                 1.0488
 Frc consts  --      6.3191                 6.8218                 7.4814
 IR Inten    --      4.0120                12.1899                 1.4210

                    100                    101                    102
                      A                      A                      A
 Frequencies --   3483.9069              3562.0215              3563.4611
 Red. masses --      1.0491                 1.0919                 1.0917
 Frc consts  --      7.5026                 8.1624                 8.1679
 IR Inten    --      0.3630                 0.5253                 0.8237

 - Thermochemistry -
 -------------------
 Temperature   298.150 Kelvin.  Pressure   1.00000 Atm.
 Atom     1 has atomic number  6 and mass  12.00000

 Molecular mass:   194.17830 amu.
 Principal axes and moments of inertia in atomic units:
                           1         2         3
     Eigenvalues --  1371.546904947.604955528.80256
           X            0.99993  -0.01161   0.00162
           Y            0.01161   0.99993  -0.00151
           Z           -0.00160   0.00153   1.00000
 This molecule is an asymmetric top.
 Rotational symmetry number  1.
 Warning -- assumption of classical behavior for rotation
           may cause significant error
 Rotational temperatures (Kelvin)      0.06315     0.01751     0.01567
 Rotational constants (GHZ):           1.31584     0.36477     0.32643
 Zero-point vibrational energy     857309.5 (Joules/Mol)
                                  204.90188 (Kcal/Mol)
 Warning -- explicit consideration of  25 degrees of freedom as
           vibrations may cause significant error
 Vibrational temperatures:     56.27    75.99   125.58   134.83   185.03
          (Kelvin)            229.89   300.50   315.04   323.95   374.88
                              416.59   428.15   435.18   448.57   472.23
                              489.03   534.93   575.28   593.48   640.61
                              687.61   727.89   837.02   856.77   885.74
                             1045.75  1062.63  1115.44  1138.09  1166.33
                             1235.89  1259.01  1266.72  1289.42  1305.54
                             1345.87  1358.49  1372.08  1388.08  1434.57
                             1468.62  1505.19  1511.77  1513.18  1531.64
                             1543.64  1580.55  1600.19  1627.32  1660.51
                             1679.45  1725.17  1769.73  1842.66  1843.52
                             1856.89  1864.49  1876.31  1907.06  1916.53
                             1936.45  1939.28  1961.93  1963.33  1990.55
                             2009.46  2024.49  2031.26  2078.27  2127.69
                             2131.33  2136.87  2140.84  2153.53  2158.71
                             2168.32  2366.67  2384.61  2460.83  2493.63
                             4301.37  4310.25  4319.17  4322.37  4345.20
                             4363.23  4376.59  4399.45  4402.15  4404.63
                             4416.29  4446.98  4462.33  4469.08  4509.82
                             4514.26  4531.25  4638.79  5006.15  5012.57
                             5124.95  5127.03

 Zero-point correction=                           0.326532 (Hartree/Particle)
 Thermal correction to Energy=                    0.341998
 Thermal correction to Enthalpy=                  0.342943
 Thermal correction to Gibbs Free Energy=         0.284732
 Sum of electronic and zero-point Energies=           -579.704267
 Sum of electronic and thermal Energies=              -579.688800
 Sum of electronic and thermal Enthalpies=            -579.687856
 Sum of electronic and thermal Free Energies=         -579.746067

                     E (Thermal)             CV                S
                      KCal/Mol        Cal/Mol-Kelvin    Cal/Mol-Kelvin
 Total                  214.607             60.821            122.515
 Electronic               0.000              0.000              0.000
 Translational            0.889              2.981             41.696
 Rotational               0.889              2.981             31.995
 Vibrational            212.830             54.859             48.823
 Vibration     1          0.594              1.981              5.304
 Vibration     2          0.596              1.976              4.709
 Vibration     3          0.601              1.958              3.720
 Vibration     4          0.603              1.954              3.581
 Vibration     5          0.611              1.925              2.967
 Vibration     6          0.622              1.892              2.552
 Vibration     7          0.642              1.827              2.054
 Vibration     8          0.647              1.812              1.968
 Vibration     9          0.650              1.803              1.917
 Vibration    10          0.669              1.745              1.658
 Vibration    11          0.686              1.693              1.477
 Vibration    12          0.691              1.678              1.430
 Vibration    13          0.694              1.669              1.403
 Vibration    14          0.700              1.651              1.353
 Vibration    15          0.711              1.619              1.269
 Vibration    16          0.720              1.596              1.213
 Vibration    17          0.743              1.530              1.072
 Vibration    18          0.766              1.470              0.963
 Vibration    19          0.776              1.443              0.918
 Vibration    20          0.805              1.371              0.810
 Vibration    21          0.834              1.299              0.716
 Vibration    22          0.861              1.237              0.644
 Vibration    23          0.939              1.071              0.482
 Vibration    24          0.953              1.041              0.457
 Vibration    25          0.975              0.999              0.424

                           ! Non-Optimized Parameters !
 Normal termination of Gaussian 16 at Sun May 28 09:35:01 2023.
