 Gaussian 16, Revision A.03,
 Gaussian 16:  ES64L-G16RevA.03 25-Dec-2016

 -----------------------------
 # opt freq b3lyp/6-31g(2df,p)
 -----------------------------

 -------------------
 Title Card Required
 -------------------
 Symbolic Z-matrix:
 Charge =  0 Multiplicity = 1

 SCF Done:  E(RB3LYP) =  -797.098809348     A.U. after   15 cycles
 SCF Done:  E(RB3LYP) =  -797.116626399     A.U. after   14 cycles
 SCF Done:  E(RB3LYP) =  -797.122773798     A.U. after   14 cycles
 SCF Done:  E(RB3LYP) =  -797.123764139     A.U. after   13 cycles
 SCF Done:  E(RB3LYP) =  -797.122292032     A.U. after   13 cycles
 SCF Done:  E(RB3LYP) =  -797.123603725     A.U. after   12 cycles
 SCF Done:  E(RB3LYP) =  -797.123999980     A.U. after    9 cycles
 SCF Done:  E(RB3LYP) =  -797.124167073     A.U. after   11 cycles
 SCF Done:  E(RB3LYP) =  -797.124223858     A.U. after   12 cycles
 SCF Done:  E(RB3LYP) =  -797.124391247     A.U. after   13 cycles
 SCF Done:  E(RB3LYP) =  -797.152790709     A.U. after   12 cycles
 SCF Done:  E(RB3LYP) =  -797.152816694     A.U. after   10 cycles
 SCF Done:  E(RB3LYP) =  -797.152822667     A.U. after   10 cycles
 SCF Done:  E(RB3LYP) =  -797.152823779     A.U. after    9 cycles
 SCF Done:  E(RB3LYP) =  -797.152825279     A.U. after    9 cycles
 SCF Done:  E(RB3LYP) =  -797.152826020     A.U. after    8 cycles
 SCF Done:  E(RB3LYP) =  -797.152826456     A.U. after    8 cycles
 SCF Done:  E(RB3LYP) =  -797.152826592     A.U. after    7 cycles
 SCF Done:  E(RB3LYP) =  -797.152826620     A.U. after    7 cycles
 Optimization completed.
    -- Stationary point found.
 Normal termination of Gaussian 16 at Wed May 24 08:08:17 2023.

 ----------------------------------------------------------------------
 #N Geom=AllCheck Guess=TCheck SCRF=Check GenChk RB3LYP/6-31G(2df,p) Fr
 eq
 ----------------------------------------------------------------------

 Structure from the checkpoint file:  "CdCdNCCqdOrNCCCqNOCrd[N+]qCr[O-].chk"
 -------------------
 Title Card Required
 -------------------
 Charge =  0 Multiplicity = 1

                         Standard orientation:
 ---------------------------------------------------------------------
 Center     Atomic      Atomic             Coordinates (Angstroms)
 Number     Number       Type             X           Y           Z
 ---------------------------------------------------------------------
      1          6           0       -5.476551    1.354406   -0.118720
      2          6           0       -4.885306    0.202820    0.061760
      3          7           0       -4.426996   -0.906257    0.291655
      4          6           0       -3.273991   -1.429778   -0.422338
      5          6           0       -1.974111   -0.794022    0.103574
      6          8           0       -1.908462    0.384544    0.397197
      7          7           0       -0.915367   -1.645452    0.178139
      8          6           0        0.407925   -1.190758    0.571286
      9          6           0        1.230276   -0.629831   -0.614010
     10          6           0        2.477629    0.059249   -0.159527
     11          7           0        2.392508    1.378343    0.271372
     12          8           0        1.665786    2.202827   -0.632223
     13          6           0        0.642978    2.898382    0.078431
     14          7           0        3.664285   -0.485920   -0.007387
     15          6           0        3.960505   -1.899503   -0.248457
     16          8           0        4.673692    0.199234    0.430169
     17          1           0       -5.117960    2.237885    0.393249
     18          1           0       -6.319212    1.441889   -0.792775
     19          1           0       -3.323902   -1.206157   -1.496837
     20          1           0       -3.254301   -2.516616   -0.302348
     21          1           0       -1.044449   -2.609162   -0.081728
     22          1           0        0.934365   -2.025305    1.043706
     23          1           0        0.280931   -0.405283    1.318937
     24          1           0        0.622913    0.118737   -1.128315
     25          1           0        1.446023   -1.420548   -1.336041
     26          1           0        3.347980    1.734104    0.366972
     27          1           0        0.198892    3.577064   -0.654750
     28          1           0        1.064662    3.480178    0.906286
     29          1           0       -0.123471    2.212482    0.454480
     30          1           0        3.105144   -2.443461   -0.647186
     31          1           0        4.281109   -2.342678    0.697199
     32          1           0        4.796028   -1.936747   -0.950445
 ---------------------------------------------------------------------

 SCF Done:  E(RB3LYP) =  -797.152826620     A.U. after    1 cycles

 The electronic state is 1-A.
 Alpha  occ. eigenvalues --  -19.17368 -19.12212 -19.08802 -14.44239 -14.37890
 Alpha  occ. eigenvalues --  -14.37494 -14.34788 -10.29713 -10.25323 -10.24287
 Alpha  occ. eigenvalues --  -10.24038 -10.23977 -10.22960 -10.21669 -10.21146
 Alpha  occ. eigenvalues --  -10.17805  -1.08681  -1.06321  -1.05211  -0.94351
 Alpha  occ. eigenvalues --   -0.94173  -0.88550  -0.82836  -0.78828  -0.76217
 Alpha  occ. eigenvalues --   -0.72998  -0.71763  -0.66731  -0.65954  -0.60274
 Alpha  occ. eigenvalues --   -0.56549  -0.54985  -0.54350  -0.51904  -0.50256
 Alpha  occ. eigenvalues --   -0.49639  -0.48353  -0.47828  -0.47009  -0.45547
 Alpha  occ. eigenvalues --   -0.45107  -0.44848  -0.44236  -0.43876  -0.43278
 Alpha  occ. eigenvalues --   -0.41756  -0.41692  -0.39204  -0.38709  -0.37198
 Alpha  occ. eigenvalues --   -0.36940  -0.36215  -0.34535  -0.31635  -0.28484
 Alpha  occ. eigenvalues --   -0.27732  -0.27291  -0.26641  -0.22992  -0.22648
 Alpha  occ. eigenvalues --   -0.18573
 Alpha virt. eigenvalues --   -0.00931  -0.00454   0.01772   0.04100   0.05522
 Alpha virt. eigenvalues --    0.07914   0.09630   0.11243   0.11550   0.12364
 Alpha virt. eigenvalues --    0.12902   0.13695   0.14137   0.14568   0.15280

 Mulliken charges:
               1
     1  C   -0.490005
     2  C    0.422190
     3  N   -0.271768
     4  C   -0.305484
     5  C    0.422700
     6  O   -0.354422
     7  N   -0.315139
     8  C   -0.171299
     9  C   -0.302923
    10  C    0.388853
    11  N   -0.268057
    12  O   -0.248027
    13  C   -0.237610
    14  N    0.183707
    15  C   -0.322260
    16  O   -0.575738
    17  H    0.150581
    18  H    0.140036
    19  H    0.141738
    20  H    0.115148
    21  H    0.251862
    22  H    0.112331
    23  H    0.162975
    24  H    0.158120
    25  H    0.111697
    26  H    0.269904
    27  H    0.124793
    28  H    0.115767
    29  H    0.155233
    30  H    0.122522
    31  H    0.154292
    32  H    0.158281
 Sum of Mulliken charges =  -0.00000

 Dipole moment (field-independent basis, Debye):
    X=             -1.7331    Y=             -4.2196    Z=             -2.2583  Tot=              5.0900
 Quadrupole moment (field-independent basis, Debye-Ang):
   XX=           -118.4365   YY=            -79.0495   ZZ=            -95.0990
   XY=             -8.8198   XZ=              3.3230   YZ=              3.4371

  Exact polarizability: 193.044 -34.792 159.086  10.456   3.039  90.181
 Approx polarizability: 258.584 -51.104 251.656  21.861   1.807 146.224

                      1                      2                      3
                      A                      A                      A
 Frequencies --     17.0930                26.4932                44.4135
 Red. masses --      4.3752                 4.6275                 7.3217
 Frc consts  --      0.0008                 0.0019                 0.0085
 IR Inten    --      0.9128                 1.1203                 4.9002

                      4                      5                      6
                      A                      A                      A
 Frequencies --     53.7523                58.4935                71.9716
 Red. masses --      4.7309                 4.5743                 3.7534
 Frc consts  --      0.0081                 0.0092                 0.0115
 IR Inten    --      2.6529                 5.8712                 3.0796

                      7                      8                      9
                      A                      A                      A
 Frequencies --     90.5688               109.1107               115.4603
 Red. masses --      3.3787                 3.1143                 2.9436
 Frc consts  --      0.0163                 0.0218                 0.0231
 IR Inten    --      2.8890                 2.3727                 7.7254

                     10                     11                     12
                      A                      A                      A
 Frequencies --    148.1536               178.6136               183.8107
 Red. masses --      1.2838                 3.5436                 2.0208
 Frc consts  --      0.0166                 0.0666                 0.0402
 IR Inten    --      3.4738                 2.8286                 5.4488

                     13                     14                     15
                      A                      A                      A
 Frequencies --    205.2963               236.3851               252.4160
 Red. masses --      1.9597                 2.9634                 2.1029
 Frc consts  --      0.0487                 0.0976                 0.0789
 IR Inten    --      2.1111                 0.7682                 3.6814

                     16                     17                     18
                      A                      A                      A
 Frequencies --    307.4728               319.9709               336.0788
 Red. masses --      3.4829                 4.4700                 3.9401
 Frc consts  --      0.1940                 0.2696                 0.2622
 IR Inten    --     18.2883                12.6006                 3.8255

                     19                     20                     21
                      A                      A                      A
 Frequencies --    374.4285               384.6457               406.1879
 Red. masses --      1.8905                 2.9258                 3.0589
 Frc consts  --      0.1562                 0.2550                 0.2973
 IR Inten    --      2.6581                 0.8507                20.5888

                     22                     23                     24
                      A                      A                      A
 Frequencies --    416.5126               457.6256               472.2963
 Red. masses --      1.3404                 4.0090                 3.8850
 Frc consts  --      0.1370                 0.4947                 0.5106
 IR Inten    --     47.7821                10.9774                14.8790

                     25                     26                     27
                      A                      A                      A
 Frequencies --    503.8176               551.7984               595.0987
 Red. masses --      3.4608                 2.0626                 4.1884
 Frc consts  --      0.5176                 0.3700                 0.8739
 IR Inten    --     10.3063                 1.1276                16.1373

                     28                     29                     30
                      A                      A                      A
 Frequencies --    609.0020               635.3740               681.3964
 Red. masses --      2.6543                 4.3446                 5.6944
 Frc consts  --      0.5800                 1.0334                 1.5577
 IR Inten    --      7.9361                 8.1205                20.8043

                     31                     32                     33
                      A                      A                      A
 Frequencies --    713.3770               734.7050               783.0454
 Red. masses --      1.2774                 1.7767                 2.3864
 Frc consts  --      0.3830                 0.5651                 0.8621
 IR Inten    --     77.5055                 5.8796                 3.1499

                     34                     35                     36
                      A                      A                      A
 Frequencies --    793.9897               864.4534               912.3379
 Red. masses --      3.1677                 3.1181                 3.3173
 Frc consts  --      1.1766                 1.3728                 1.6269
 IR Inten    --     66.0849                42.0272                 8.1091

                     37                     38                     39
                      A                      A                      A
 Frequencies --    929.1081               986.9293               994.9432
 Red. masses --      4.3790                 2.2071                 1.7959
 Frc consts  --      2.2272                 1.2666                 1.0475
 IR Inten    --      8.9501               108.0065                14.3078

                     40                     41                     42
                      A                      A                      A
 Frequencies --    999.8025              1006.8433              1016.8497
 Red. masses --      2.3124                 3.0677                 2.9749
 Frc consts  --      1.3619                 1.8323                 1.8123
 IR Inten    --     13.5848                25.6583                31.1037

                     43                     44                     45
                      A                      A                      A
 Frequencies --   1067.9736              1082.2695              1108.1810
 Red. masses --      2.0400                 3.3431                 2.6478
 Frc consts  --      1.3709                 2.3071                 1.9158
 IR Inten    --      2.6160                 5.0984                 2.4864

                     46                     47                     48
                      A                      A                      A
 Frequencies --   1142.6615              1170.4891              1189.6714
 Red. masses --      1.3850                 1.8987                 1.3181
 Frc consts  --      1.0654                 1.5326                 1.0992
 IR Inten    --      0.1157                 3.2613                 2.1074

                     49                     50                     51
                      A                      A                      A
 Frequencies --   1205.8969              1218.0465              1232.9266
 Red. masses --      1.5173                 1.5264                 1.5122
 Frc consts  --      1.3000                 1.3342                 1.3544
 IR Inten    --     42.5397                 6.4586                31.1816

                     52                     53                     54
                      A                      A                      A
 Frequencies --   1252.2834              1270.7226              1283.8447
 Red. masses --      1.7786                 5.3174                 1.7125
 Frc consts  --      1.6433                 5.0588                 1.6630
 IR Inten    --     91.6369               138.4925                31.1921

                     55                     56                     57
                      A                      A                      A
 Frequencies --   1297.7844              1336.3770              1368.1010
 Red. masses --      1.3156                 1.1295                 1.3397
 Frc consts  --      1.3055                 1.1885                 1.4773
 IR Inten    --      6.4291                28.2387                19.4871

                     58                     59                     60
                      A                      A                      A
 Frequencies --   1395.2065              1407.5686              1432.6642
 Red. masses --      1.3491                 1.9613                 1.2254
 Frc consts  --      1.5473                 2.2894                 1.4819
 IR Inten    --      3.2282                 6.0624                 1.7806

                     61                     62                     63
                      A                      A                      A
 Frequencies --   1446.0434              1454.6589              1464.8392
 Red. masses --      1.8447                 1.6179                 1.0475
 Frc consts  --      2.2726                 2.0171                 1.3243
 IR Inten    --     97.0881                 2.7054                12.0787

                     64                     65                     66
                      A                      A                      A
 Frequencies --   1465.4740              1471.2775              1483.3844
 Red. masses --      1.1203                 1.1035                 1.0892
 Frc consts  --      1.4175                 1.4074                 1.4122
 IR Inten    --      6.7765                 6.1065                17.5400

                     67                     68                     69
                      A                      A                      A
 Frequencies --   1486.7815              1488.9161              1504.6742
 Red. masses --      1.0758                 1.0993                 1.0975
 Frc consts  --      1.4012                 1.4358                 1.4640
 IR Inten    --      2.9659                 6.3923                12.4406

                     70                     71                     72
                      A                      A                      A
 Frequencies --   1513.6100              1536.5312              1667.1535
 Red. masses --      1.0591                 1.9105                 5.6498
 Frc consts  --      1.4296                 2.6575                 9.2520
 IR Inten    --      4.5587               243.2705                42.3788

                     73                     74                     75
                      A                      A                      A
 Frequencies --   1780.8617              2148.2488              3014.2520
 Red. masses --      9.6232                11.1613                 1.0641
 Frc consts  --     17.9816                30.3483                 5.6961
 IR Inten    --    133.8358               442.5365                29.9775

                     76                     77                     78
                      A                      A                      A
 Frequencies --   3018.9434              3059.4656              3061.8766
 Red. masses --      1.0309                 1.0462                 1.0488
 Frc consts  --      5.5359                 5.7696                 5.7931
 IR Inten    --     48.4367                 2.7838                44.0256

                     79                     80                     81
                      A                      A                      A
 Frequencies --   3076.3036              3084.4371              3097.4208
 Red. masses --      1.0601                 1.0979                 1.1052
 Frc consts  --      5.9111                 6.1543                 6.2472
 IR Inten    --     18.1009                25.0615                16.2573

                     82                     83                     84
                      A                      A                      A
 Frequencies --   3114.5030              3124.9079              3133.2011
 Red. masses --      1.0990                 1.1037                 1.1046
 Frc consts  --      6.2808                 6.3502                 6.3887
 IR Inten    --      3.5184                17.8031                 8.2337

                     85                     86                     87
                      A                      A                      A
 Frequencies --   3134.2194              3164.9613              3171.8072
 Red. masses --      1.1038                 1.1032                 1.0571
 Frc consts  --      6.3884                 6.5108                 6.2660
 IR Inten    --      6.6375                16.6749                 6.6632

                     88                     89                     90
                      A                      A                      A
 Frequencies --   3259.1262              3418.2429              3648.4733
 Red. masses --      1.1151                 1.0738                 1.0775
 Frc consts  --      6.9785                 7.3922                 8.4505
 IR Inten    --      0.5308                31.7182                25.8645

 - Thermochemistry -
 -------------------
 Temperature   298.150 Kelvin.  Pressure   1.00000 Atm.
 Atom     1 has atomic number  6 and mass  12.00000

 Molecular mass:   228.12224 amu.
 Principal axes and moments of inertia in atomic units:
                           1         2         3
     Eigenvalues --  1770.220628253.893729745.74014
           X            0.99989  -0.01458   0.00258
           Y            0.01454   0.99980   0.01381
           Z           -0.00278  -0.01377   0.99990
 This molecule is an asymmetric top.
 Rotational symmetry number  1.
 Warning -- assumption of classical behavior for rotation
           may cause significant error
 Rotational temperatures (Kelvin)      0.04893     0.01049     0.00889
 Rotational constants (GHZ):           1.01950     0.21865     0.18518
 Zero-point vibrational energy     685085.7 (Joules/Mol)
                                  163.73942 (Kcal/Mol)
 Warning -- explicit consideration of  28 degrees of freedom as
           vibrations may cause significant error
 Vibrational temperatures:     24.59    38.12    63.90    77.34    84.16
          (Kelvin)            103.55   130.31   156.99   166.12   213.16
                              256.99   264.46   295.38   340.11   363.17
                              442.38   460.37   483.54   538.72   553.42
                              584.41   599.27   658.42   679.53   724.88
                              793.91   856.21   876.22   914.16   980.38
                             1026.39  1057.08  1126.63  1142.37  1243.76
                             1312.65  1336.78  1419.97  1431.50  1438.49
                             1448.62  1463.02  1536.58  1557.14  1594.43
                             1644.04  1684.07  1711.67  1735.02  1752.50
                             1773.91  1801.76  1828.29  1847.17  1867.22
                             1922.75  1968.39  2007.39  2025.18  2061.28
                             2080.53  2092.93  2107.58  2108.49  2116.84
                             2134.26  2139.15  2142.22  2164.89  2177.75
                             2210.73  2398.66  2562.26  3090.85  4336.84
                             4343.59  4401.89  4405.36  4426.11  4437.82
                             4456.50  4481.08  4496.05  4507.98  4509.44
                             4553.67  4563.52  4689.16  4918.09  5249.34

 Zero-point correction=                           0.260935 (Hartree/Particle)
 Thermal correction to Energy=                    0.279367
 Thermal correction to Enthalpy=                  0.280311
 Thermal correction to Gibbs Free Energy=         0.211530
 Sum of electronic and zero-point Energies=           -796.891891
 Sum of electronic and thermal Energies=              -796.873459
 Sum of electronic and thermal Enthalpies=            -796.872515
 Sum of electronic and thermal Free Energies=         -796.941297

                     E (Thermal)             CV                S
                      KCal/Mol        Cal/Mol-Kelvin    Cal/Mol-Kelvin
 Total                  175.306             64.974            144.764
 Electronic               0.000              0.000              0.000
 Translational            0.889              2.981             42.176
 Rotational               0.889              2.981             33.320
 Vibrational            173.528             59.013             69.267
 Vibration     1          0.593              1.986              6.946
 Vibration     2          0.593              1.984              6.076
 Vibration     3          0.595              1.980              5.052
 Vibration     4          0.596              1.976              4.674
 Vibration     5          0.596              1.974              4.507
 Vibration     6          0.598              1.967              4.099
 Vibration     7          0.602              1.956              3.648
 Vibration     8          0.606              1.942              3.285
 Vibration     9          0.608              1.937              3.175
 Vibration    10          0.618              1.905              2.696
 Vibration    11          0.629              1.869              2.343
 Vibration    12          0.631              1.862              2.289
 Vibration    13          0.640              1.832              2.085
 Vibration    14          0.655              1.785              1.830
 Vibration    15          0.664              1.759              1.714
 Vibration    16          0.697              1.660              1.376
 Vibration    17          0.706              1.635              1.310
 Vibration    18          0.717              1.603              1.231
 Vibration    19          0.746              1.525              1.062
 Vibration    20          0.754              1.503              1.021
 Vibration    21          0.771              1.457              0.940
 Vibration    22          0.780              1.434              0.904
 Vibration    23          0.816              1.344              0.773
 Vibration    24          0.829              1.312              0.731
 Vibration    25          0.859              1.242              0.649
 Vibration    26          0.907              1.136              0.540
 Vibration    27          0.953              1.042              0.458
 Vibration    28          0.968              1.013              0.434

                           ! Non-Optimized Parameters !
 Normal termination of Gaussian 16 at Wed May 24 10:21:53 2023.
