 Gaussian 16, Revision A.03,
 Gaussian 16:  ES64L-G16RevA.03 25-Dec-2016

 -----------------------------
 # opt freq b3lyp/6-31g(2df,p)
 -----------------------------

 -------------------
 Title Card Required
 -------------------
 Symbolic Z-matrix:
 Charge =  0 Multiplicity = 1

 SCF Done:  E(RB3LYP) =  -602.051951556     A.U. after   13 cycles
 SCF Done:  E(RB3LYP) =  -602.062442981     A.U. after   11 cycles
 SCF Done:  E(RB3LYP) =  -602.071465736     A.U. after   11 cycles
 SCF Done:  E(RB3LYP) =  -602.078121509     A.U. after   12 cycles
 SCF Done:  E(RB3LYP) =  -602.083684436     A.U. after   11 cycles
 SCF Done:  E(RB3LYP) =  -602.080856787     A.U. after   14 cycles
 SCF Done:  E(RB3LYP) =  -602.087604038     A.U. after   11 cycles
 SCF Done:  E(RB3LYP) =  -602.088541653     A.U. after   11 cycles
 SCF Done:  E(RB3LYP) =  -602.088899729     A.U. after   10 cycles
 SCF Done:  E(RB3LYP) =  -602.089076883     A.U. after   11 cycles
 SCF Done:  E(RB3LYP) =  -602.090410735     A.U. after   11 cycles
 SCF Done:  E(RB3LYP) =  -602.091364175     A.U. after   10 cycles
 SCF Done:  E(RB3LYP) =  -602.091449338     A.U. after   10 cycles
 SCF Done:  E(RB3LYP) =  -602.091470799     A.U. after    9 cycles
 SCF Done:  E(RB3LYP) =  -602.091479580     A.U. after    9 cycles
 SCF Done:  E(RB3LYP) =  -602.091481933     A.U. after    7 cycles
 SCF Done:  E(RB3LYP) =  -602.091482324     A.U. after    7 cycles
 SCF Done:  E(RB3LYP) =  -602.091482693     A.U. after    7 cycles
 SCF Done:  E(RB3LYP) =  -602.091482771     A.U. after    6 cycles
 Optimization completed.
    -- Stationary point found.
 Normal termination of Gaussian 16 at Sun May 28 20:25:12 2023.

 ----------------------------------------------------------------------
 #N Geom=AllCheck Guess=TCheck SCRF=Check GenChk RB3LYP/6-31G(2df,p) Fr
 eq
 ----------------------------------------------------------------------

 Structure from the checkpoint file:  "CdCNCCC1dCCdCqCCCrC1CC.chk"
 -------------------
 Title Card Required
 -------------------
 Charge =  0 Multiplicity = 1

                         Standard orientation:
 ---------------------------------------------------------------------
 Center     Atomic      Atomic             Coordinates (Angstroms)
 Number     Number       Type             X           Y           Z
 ---------------------------------------------------------------------
      1          6           0       -5.942366   -1.096148   -0.857599
      2          6           0       -4.633740   -1.082400   -0.586216
      3          7           0       -3.902143   -0.031896   -0.055720
      4          6           0       -2.494271    0.115572   -0.391686
      5          6           0       -1.794720    1.078009    0.583630
      6          6           0       -0.337721    1.269310    0.295828
      7          6           0        0.269400    2.402124   -0.106337
      8          6           0        1.697075    2.159897   -0.298489
      9          6           0        1.995583    0.875464   -0.017243
     10          6           0        3.349765    0.241959   -0.136749
     11          6           0        3.441415   -0.867111   -1.203909
     12          6           0        4.847946   -1.459284   -1.321556
     13          6           0        0.711285    0.168565    0.405116
     14          6           0        0.740127   -0.491963    1.807869
     15          6           0        1.437692   -1.854625    1.876977
     16          1           0       -6.423955   -2.005884   -1.189645
     17          1           0       -6.568379   -0.218581   -0.731213
     18          1           0       -4.036949   -1.981288   -0.731811
     19          1           0       -4.405392    0.845749   -0.030875
     20          1           0       -2.336297    0.469199   -1.424267
     21          1           0       -2.034239   -0.877425   -0.326985
     22          1           0       -1.957799    0.696885    1.600893
     23          1           0       -2.294152    2.054249    0.536582
     24          1           0       -0.219960    3.355236   -0.272930
     25          1           0        2.406839    2.910198   -0.628409
     26          1           0        3.671686   -0.174050    0.828469
     27          1           0        4.077436    1.026282   -0.380531
     28          1           0        3.127582   -0.453605   -2.170111
     29          1           0        2.727063   -1.664583   -0.966208
     30          1           0        5.580485   -0.689930   -1.590217
     31          1           0        4.889356   -2.240182   -2.087257
     32          1           0        5.171632   -1.904673   -0.373955
     33          1           0        0.477908   -0.621086   -0.327725
     34          1           0       -0.294932   -0.627776    2.141885
     35          1           0        1.198730    0.207568    2.516494
     36          1           0        0.969767   -2.569546    1.190634
     37          1           0        1.364861   -2.271290    2.886756
     38          1           0        2.498882   -1.798392    1.622630
 ---------------------------------------------------------------------

 SCF Done:  E(RB3LYP) =  -602.091482771     A.U. after    1 cycles

 The electronic state is 1-A.
 Alpha  occ. eigenvalues --  -14.33090 -10.21454 -10.20371 -10.18897 -10.18715
 Alpha  occ. eigenvalues --  -10.18689 -10.18172 -10.18049 -10.17724 -10.17679
 Alpha  occ. eigenvalues --  -10.17643 -10.17331 -10.17128 -10.16910 -10.14750
 Alpha  occ. eigenvalues --   -0.92037  -0.85868  -0.79182  -0.77130  -0.76966
 Alpha  occ. eigenvalues --   -0.72764  -0.70251  -0.68324  -0.65498  -0.61528
 Alpha  occ. eigenvalues --   -0.60204  -0.58706  -0.58018  -0.52225  -0.51906
 Alpha  occ. eigenvalues --   -0.49093  -0.47492  -0.46915  -0.45757  -0.44586
 Alpha  occ. eigenvalues --   -0.44012  -0.42079  -0.41153  -0.40850  -0.40032
 Alpha  occ. eigenvalues --   -0.39643  -0.38368  -0.38230  -0.37465  -0.36241
 Alpha  occ. eigenvalues --   -0.35691  -0.34879  -0.34678  -0.34072  -0.33299
 Alpha  occ. eigenvalues --   -0.32770  -0.31691  -0.30912  -0.30634  -0.28634
 Alpha  occ. eigenvalues --   -0.19995  -0.19241
 Alpha virt. eigenvalues --   -0.01063   0.05027   0.07138   0.08195   0.09327
 Alpha virt. eigenvalues --    0.09689   0.11453   0.11754   0.12063   0.12849
 Alpha virt. eigenvalues --    0.13370   0.14092   0.14928   0.15536   0.15840

 Mulliken charges:
               1
     1  C   -0.404575
     2  C    0.107018
     3  N   -0.282869
     4  C   -0.133139
     5  C   -0.331132
     6  C    0.293200
     7  C   -0.216321
     8  C   -0.200316
     9  C    0.293928
    10  C   -0.300204
    11  C   -0.158746
    12  C   -0.380494
    13  C   -0.201143
    14  C   -0.180798
    15  C   -0.392259
    16  H    0.102712
    17  H    0.081299
    18  H    0.092941
    19  H    0.228424
    20  H    0.098831
    21  H    0.109114
    22  H    0.112740
    23  H    0.095970
    24  H    0.088005
    25  H    0.087088
    26  H    0.101166
    27  H    0.095738
    28  H    0.099920
    29  H    0.098320
    30  H    0.114893
    31  H    0.111834
    32  H    0.113194
    33  H    0.093953
    34  H    0.102724
    35  H    0.106205
    36  H    0.113184
    37  H    0.114166
    38  H    0.125431
 Sum of Mulliken charges =  -0.00000

 Dipole moment (field-independent basis, Debye):
    X=              1.3105    Y=              0.3025    Z=              0.0469  Tot=              1.3458
 Quadrupole moment (field-independent basis, Debye-Ang):
   XX=           -101.0488   YY=            -91.0732   ZZ=            -96.3188
   XY=             -5.4026   XZ=             -0.4822   YZ=             -0.5627

  Exact polarizability: 213.796   1.678 158.288  -1.536  -4.509 116.616
 Approx polarizability: 268.075   5.014 243.324   0.119  -9.408 178.836

                      1                      2                      3
                      A                      A                      A
 Frequencies --     25.5073                36.0772                57.3821
 Red. masses --      3.3332                 3.8915                 2.1094
 Frc consts  --      0.0013                 0.0030                 0.0041
 IR Inten    --      0.1472                 0.1199                 0.4009

                      4                      5                      6
                      A                      A                      A
 Frequencies --     61.2023                71.6899                82.3151
 Red. masses --      3.2560                 2.0415                 2.3946
 Frc consts  --      0.0072                 0.0062                 0.0096
 IR Inten    --      0.2156                 0.2128                 0.1052

                      7                      8                      9
                      A                      A                      A
 Frequencies --     90.4441               112.4366               140.9036
 Red. masses --      2.0815                 2.1986                 2.7547
 Frc consts  --      0.0100                 0.0164                 0.0322
 IR Inten    --      0.2980                 0.8827                 0.1876

                     10                     11                     12
                      A                      A                      A
 Frequencies --    157.2249               198.3740               217.0835
 Red. masses --      2.6661                 2.0741                 2.4582
 Frc consts  --      0.0388                 0.0481                 0.0683
 IR Inten    --      1.7397                 0.5678                 1.5067

                     13                     14                     15
                      A                      A                      A
 Frequencies --    239.4301               244.8211               268.0998
 Red. masses --      1.3471                 1.5061                 1.9811
 Frc consts  --      0.0455                 0.0532                 0.0839
 IR Inten    --      0.0843                 0.3642                 0.8312

                     16                     17                     18
                      A                      A                      A
 Frequencies --    284.9621               314.7838               331.8244
 Red. masses --      2.8100                 2.7189                 3.2944
 Frc consts  --      0.1344                 0.1587                 0.2137
 IR Inten    --      0.0507                 0.6245                 0.7713

                     19                     20                     21
                      A                      A                      A
 Frequencies --    385.4561               411.5036               452.6031
 Red. masses --      3.0546                 3.7296                 2.4720
 Frc consts  --      0.2674                 0.3721                 0.2984
 IR Inten    --      2.8666                 0.6226                 0.8358

                     22                     23                     24
                      A                      A                      A
 Frequencies --    505.2477               559.6449               600.6119
 Red. masses --      1.9516                 3.2672                 2.4497
 Frc consts  --      0.2935                 0.6029                 0.5207
 IR Inten    --     33.6863                11.1278                 8.1009

                     25                     26                     27
                      A                      A                      A
 Frequencies --    634.5236               669.9452               718.0467
 Red. masses --      1.5365                 2.6302                 1.6450
 Frc consts  --      0.3645                 0.6955                 0.4997
 IR Inten    --     60.4396                 0.5973                10.7647

                     28                     29                     30
                      A                      A                      A
 Frequencies --    739.0935               745.6684               757.2720
 Red. masses --      1.8991                 1.2344                 1.8869
 Frc consts  --      0.6112                 0.4044                 0.6375
 IR Inten    --      1.8557                 1.2710                 6.4391

                     31                     32                     33
                      A                      A                      A
 Frequencies --    788.1739               808.3625               840.3815
 Red. masses --      1.2140                 1.4413                 2.0061
 Frc consts  --      0.4443                 0.5549                 0.8348
 IR Inten    --      1.4577                47.1004                 2.5629

                     34                     35                     36
                      A                      A                      A
 Frequencies --    870.3246               874.9558               888.8449
 Red. masses --      1.2928                 2.5455                 1.3470
 Frc consts  --      0.5770                 1.1482                 0.6270
 IR Inten    --     10.3063                 0.4169                14.6924

                     37                     38                     39
                      A                      A                      A
 Frequencies --    903.1349               916.1042               946.1750
 Red. masses --      1.9053                 1.4948                 1.7618
 Frc consts  --      0.9156                 0.7391                 0.9293
 IR Inten    --      0.6678                 0.1476                 3.4358

                     40                     41                     42
                      A                      A                      A
 Frequencies --    964.9711              1009.7776              1015.0312
 Red. masses --      2.4063                 1.7064                 1.1508
 Frc consts  --      1.3201                 1.0251                 0.6986
 IR Inten    --      0.6677                 5.8718                16.2157

                     43                     44                     45
                      A                      A                      A
 Frequencies --   1038.1705              1040.6298              1053.0498
 Red. masses --      2.8819                 2.8297                 1.6581
 Frc consts  --      1.8301                 1.8054                 1.0833
 IR Inten    --      1.4840                 1.4186                 5.9988

                     46                     47                     48
                      A                      A                      A
 Frequencies --   1056.0377              1082.5443              1100.4872
 Red. masses --      1.7930                 1.5361                 1.7227
 Frc consts  --      1.1781                 1.0606                 1.2292
 IR Inten    --      1.6549                 2.3528                 3.5811

                     49                     50                     51
                      A                      A                      A
 Frequencies --   1108.0020              1118.1588              1127.1193
 Red. masses --      2.1688                 2.0071                 1.9666
 Frc consts  --      1.5688                 1.4785                 1.4720
 IR Inten    --      3.3950                 2.0133                 8.4100

                     52                     53                     54
                      A                      A                      A
 Frequencies --   1175.3398              1187.8339              1213.1553
 Red. masses --      1.5268                 2.0912                 2.1636
 Frc consts  --      1.2427                 1.7384                 1.8761
 IR Inten    --      3.1204               123.4009                25.0571

                     55                     56                     57
                      A                      A                      A
 Frequencies --   1242.4733              1250.9135              1255.8345
 Red. masses --      1.3640                 1.5288                 1.5426
 Frc consts  --      1.2407                 1.4095                 1.4334
 IR Inten    --      1.7684                10.1892                 2.2763

                     58                     59                     60
                      A                      A                      A
 Frequencies --   1270.3503              1298.7006              1307.0977
 Red. masses --      1.8399                 1.7380                 1.3953
 Frc consts  --      1.7495                 1.7271                 1.4046
 IR Inten    --     26.0960                 0.3281                 4.1655

                     61                     62                     63
                      A                      A                      A
 Frequencies --   1308.8791              1317.1615              1324.3068
 Red. masses --      1.5584                 1.2300                 1.1258
 Frc consts  --      1.5730                 1.2573                 1.1633
 IR Inten    --     40.9275                10.3162                 4.1897

                     64                     65                     66
                      A                      A                      A
 Frequencies --   1339.7996              1345.2215              1365.2349
 Red. masses --      1.4402                 1.1914                 1.6946
 Frc consts  --      1.5232                 1.2702                 1.8610
 IR Inten    --      6.5322                11.9195                 3.4733

                     67                     68                     69
                      A                      A                      A
 Frequencies --   1371.9941              1381.5511              1387.0634
 Red. masses --      1.5577                 1.4674                 1.4805
 Frc consts  --      1.7276                 1.6502                 1.6782
 IR Inten    --     14.6510                 6.3853                12.9738

                     70                     71                     72
                      A                      A                      A
 Frequencies --   1410.5550              1411.8350              1431.2922
 Red. masses --      1.2311                 1.2326                 1.2415
 Frc consts  --      1.4432                 1.4476                 1.4985
 IR Inten    --      1.8789                 0.8216                 2.8400

                     73                     74                     75
                      A                      A                      A
 Frequencies --   1477.5204              1481.1988              1484.5557
 Red. masses --      1.0807                 1.0922                 1.0632
 Frc consts  --      1.3901                 1.4118                 1.3806
 IR Inten    --      0.6863                 2.6256                 0.8144

                     76                     77                     78
                      A                      A                      A
 Frequencies --   1491.1850              1498.7315              1500.6779
 Red. masses --      1.0629                 1.0409                 1.0521
 Frc consts  --      1.3926                 1.3775                 1.3960
 IR Inten    --      0.4085                 4.5193                 2.6388

                     79                     80                     81
                      A                      A                      A
 Frequencies --   1503.0106              1505.3860              1510.6825
 Red. masses --      1.3218                 1.0562                 1.0793
 Frc consts  --      1.7593                 1.4103                 1.4512
 IR Inten    --     19.7477                 7.4826                 3.5460

                     82                     83                     84
                      A                      A                      A
 Frequencies --   1513.2943              1615.3074              1678.5636
 Red. masses --      1.0882                 8.5113                 6.4876
 Frc consts  --      1.4682                13.0845                10.7699
 IR Inten    --     14.4418                 7.2016                 3.5204

                     85                     86                     87
                      A                      A                      A
 Frequencies --   1717.2527              2960.1939              2982.2042
 Red. masses --      4.3492                 1.0710                 1.0793
 Frc consts  --      7.5567                 5.5297                 5.6557
 IR Inten    --    227.5427                52.3127                10.6918

                     88                     89                     90
                      A                      A                      A
 Frequencies --   3001.4302              3009.7616              3026.9447
 Red. masses --      1.0623                 1.0591                 1.0445
 Frc consts  --      5.6382                 5.6528                 5.6388
 IR Inten    --     23.6632                36.5823                11.2876

                     91                     92                     93
                      A                      A                      A
 Frequencies --   3029.2215              3030.9673              3034.5651
 Red. masses --      1.0515                 1.0598                 1.0397
 Frc consts  --      5.6850                 5.7363                 5.6407
 IR Inten    --     53.5822                22.3687                25.1484

                     94                     95                     96
                      A                      A                      A
 Frequencies --   3039.6020              3041.1595              3061.8771
 Red. masses --      1.0945                 1.0931                 1.0971
 Frc consts  --      5.9579                 5.9564                 6.0600
 IR Inten    --     14.2023                 3.5201                37.3642

                     97                     98                     99
                      A                      A                      A
 Frequencies --   3063.7298              3065.9149              3095.3872
 Red. masses --      1.1026                 1.1002                 1.1023
 Frc consts  --      6.0975                 6.0933                 6.2228
 IR Inten    --     13.0150                30.8105                71.7923

                    100                    101                    102
                      A                      A                      A
 Frequencies --   3096.7104              3101.2909              3120.9767
 Red. masses --      1.1008                 1.1008                 1.0988
 Frc consts  --      6.2194                 6.2380                 6.3057
 IR Inten    --     22.0387                35.1105                32.1639

                    103                    104                    105
                      A                      A                      A
 Frequencies --   3146.9467              3155.8148              3185.5825
 Red. masses --      1.0783                 1.0726                 1.0905
 Frc consts  --      6.2920                 6.2936                 6.5199
 IR Inten    --     15.6929                 0.7384                27.4978

                    106                    107                    108
                      A                      A                      A
 Frequencies --   3200.9118              3249.3877              3565.5492
 Red. masses --      1.0978                 1.1123                 1.0741
 Frc consts  --      6.6273                 6.9197                 8.0454
 IR Inten    --     20.6434                10.9871                 3.4884

 - Thermochemistry -
 -------------------
 Temperature   298.150 Kelvin.  Pressure   1.00000 Atm.
 Atom     1 has atomic number  6 and mass  12.00000

 Molecular mass:   205.18305 amu.
 Principal axes and moments of inertia in atomic units:
                           1         2         3
     Eigenvalues --  1884.303767727.384568266.09032
           X            0.99994  -0.01085  -0.00204
           Y            0.01083   0.99989  -0.00995
           Z            0.00215   0.00993   0.99995
 This molecule is an asymmetric top.
 Rotational symmetry number  1.
 Warning -- assumption of classical behavior for rotation
           may cause significant error
 Rotational temperatures (Kelvin)      0.04597     0.01121     0.01048
 Rotational constants (GHZ):           0.95778     0.23355     0.21833
 Zero-point vibrational energy     894236.7 (Joules/Mol)
                                  213.72771 (Kcal/Mol)
 Warning -- explicit consideration of  24 degrees of freedom as
           vibrations may cause significant error
 Vibrational temperatures:     36.70    51.91    82.56    88.06   103.15
          (Kelvin)            118.43   130.13   161.77   202.73   226.21
                              285.42   312.33   344.49   352.24   385.74
                              410.00   452.90   477.42   554.59   592.06
                              651.19   726.94   805.20   864.15   912.94
                              963.90  1033.11  1063.39  1072.85  1089.55
                             1134.01  1163.05  1209.12  1252.20  1258.87
                             1278.85  1299.41  1318.07  1361.33  1388.38
                             1452.84  1460.40  1493.70  1497.23  1515.10
                             1519.40  1557.54  1583.36  1594.17  1608.78
                             1621.67  1691.05  1709.03  1745.46  1787.64
                             1799.79  1806.87  1827.75  1868.54  1880.62
                             1883.19  1895.10  1905.38  1927.67  1935.47
                             1964.27  1973.99  1987.74  1995.67  2029.47
                             2031.32  2059.31  2125.82  2131.11  2135.94
                             2145.48  2156.34  2159.14  2162.50  2165.91
                             2173.54  2177.29  2324.07  2415.08  2470.74
                             4259.06  4290.73  4318.39  4330.38  4355.10
                             4358.37  4360.89  4366.06  4373.31  4375.55
                             4405.36  4408.02  4411.17  4453.57  4455.48
                             4462.07  4490.39  4527.75  4540.51  4583.34
                             4605.40  4675.14  5130.03

 Zero-point correction=                           0.340597 (Hartree/Particle)
 Thermal correction to Energy=                    0.358205
 Thermal correction to Enthalpy=                  0.359149
 Thermal correction to Gibbs Free Energy=         0.293409
 Sum of electronic and zero-point Energies=           -601.750886
 Sum of electronic and thermal Energies=              -601.733278
 Sum of electronic and thermal Enthalpies=            -601.732334
 Sum of electronic and thermal Free Energies=         -601.798074

                     E (Thermal)             CV                S
                      KCal/Mol        Cal/Mol-Kelvin    Cal/Mol-Kelvin
 Total                  224.777             64.624            138.362
 Electronic               0.000              0.000              0.000
 Translational            0.889              2.981             41.860
 Rotational               0.889              2.981             33.153
 Vibrational            223.000             58.662             63.348
 Vibration     1          0.593              1.985              6.151
 Vibration     2          0.594              1.982              5.464
 Vibration     3          0.596              1.975              4.545
 Vibration     4          0.597              1.973              4.418
 Vibration     5          0.598              1.968              4.106
 Vibration     6          0.600              1.961              3.835
 Vibration     7          0.602              1.956              3.650
 Vibration     8          0.607              1.939              3.226
 Vibration     9          0.615              1.912              2.792
 Vibration    10          0.621              1.895              2.583
 Vibration    11          0.637              1.842              2.148
 Vibration    12          0.646              1.815              1.983
 Vibration    13          0.657              1.780              1.807
 Vibration    14          0.660              1.771              1.768
 Vibration    15          0.673              1.732              1.608
 Vibration    16          0.683              1.702              1.504
 Vibration    17          0.702              1.645              1.337
 Vibration    18          0.714              1.612              1.251
 Vibration    19          0.754              1.501              1.018
 Vibration    20          0.775              1.445              0.921
 Vibration    21          0.811              1.355              0.788
 Vibration    22          0.860              1.238              0.645
 Vibration    23          0.915              1.119              0.525
 Vibration    24          0.959              1.030              0.449

 Optimization completed.
    -- Stationary point found.
 Normal termination of Gaussian 16 at Sun May 28 23:27:32 2023.
