 Gaussian 16, Revision A.03,
 Gaussian 16:  ES64L-G16RevA.03 25-Dec-2016

 -----------------------------
 # opt freq b3lyp/6-31g(2df,p)
 -----------------------------

 -------------------
 Title Card Required
 -------------------
 Symbolic Z-matrix:
 Charge =  0 Multiplicity = 1

 SCF Done:  E(RB3LYP) =  -972.456586714     A.U. after   14 cycles
 SCF Done:  E(RB3LYP) =  -972.460150524     A.U. after   13 cycles
 SCF Done:  E(RB3LYP) =  -972.466682789     A.U. after   11 cycles
 SCF Done:  E(RB3LYP) =  -972.474711126     A.U. after   12 cycles
 SCF Done:  E(RB3LYP) =  -972.479420523     A.U. after   13 cycles
 SCF Done:  E(RB3LYP) =  -972.481683069     A.U. after   12 cycles
 SCF Done:  E(RB3LYP) =  -972.484763567     A.U. after   13 cycles
 SCF Done:  E(RB3LYP) =  -972.486011551     A.U. after   13 cycles
 SCF Done:  E(RB3LYP) =  -972.488058722     A.U. after   12 cycles
 SCF Done:  E(RB3LYP) =  -972.488560218     A.U. after   12 cycles
 SCF Done:  E(RB3LYP) =  -972.512690919     A.U. after   12 cycles
 SCF Done:  E(RB3LYP) =  -972.513797966     A.U. after   12 cycles
 SCF Done:  E(RB3LYP) =  -972.513928960     A.U. after   11 cycles
 SCF Done:  E(RB3LYP) =  -972.514265066     A.U. after   12 cycles
 SCF Done:  E(RB3LYP) =  -972.514362395     A.U. after   12 cycles
 SCF Done:  E(RB3LYP) =  -972.514419340     A.U. after   10 cycles
 SCF Done:  E(RB3LYP) =  -972.514425109     A.U. after    8 cycles
 SCF Done:  E(RB3LYP) =  -972.514426515     A.U. after    8 cycles
 SCF Done:  E(RB3LYP) =  -972.514426727     A.U. after    7 cycles
 Optimization completed.
    -- Stationary point found.
 Normal termination of Gaussian 16 at Mon May 29 19:01:54 2023.

 ----------------------------------------------------------------------
 #N Geom=AllCheck Guess=TCheck SCRF=Check GenChk RB3LYP/6-31G(2df,p) Fr
 eq
 ----------------------------------------------------------------------

 Structure from the checkpoint file:  "CdCNCCqOOrdCqCrCNSC.chk"
 -------------------
 Title Card Required
 -------------------
 Charge =  0 Multiplicity = 1

                         Standard orientation:
 ---------------------------------------------------------------------
 Center     Atomic      Atomic             Coordinates (Angstroms)
 Number     Number       Type             X           Y           Z
 ---------------------------------------------------------------------
      1          6           0       -4.929148   -0.747971    1.536715
      2          6           0       -4.244174   -0.361930    0.460612
      3          7           0       -2.852128   -0.245537    0.361413
      4          6           0       -2.310488    0.868645   -0.440041
      5          6           0       -0.882470    0.584171   -0.820489
      6          8           0       -0.775035   -0.509640   -1.666758
      7          8           0       -0.692250   -1.729923   -0.843692
      8          6           0        0.229523    1.237283   -0.454021
      9          6           0        0.265451    2.442903    0.441215
     10          6           0        1.582788    0.701725   -0.877651
     11          7           0        2.017371   -0.266197    0.149361
     12         16           0        3.632446   -0.839245    0.013222
     13          6           0        4.344147   -0.167219    1.546039
     14          1           0       -6.000388   -0.889672    1.484017
     15          1           0       -4.446172   -0.958003    2.485791
     16          1           0       -4.753087   -0.153476   -0.477887
     17          1           0       -2.393066   -0.309141    1.263897
     18          1           0       -2.416526    1.833821    0.070300
     19          1           0       -2.908552    0.918855   -1.357359
     20          1           0       -1.597712   -1.733443   -0.475283
     21          1           0       -0.703550    2.708583    0.866459
     22          1           0        0.646725    3.316303   -0.102551
     23          1           0        0.963836    2.252842    1.264577
     24          1           0        2.316766    1.512689   -0.900071
     25          1           0        1.525964    0.261660   -1.878444
     26          1           0        1.372581   -1.051090    0.160365
     27          1           0        5.391320   -0.483857    1.564287
     28          1           0        3.829634   -0.569207    2.420873
     29          1           0        4.300893    0.924067    1.553383
 ---------------------------------------------------------------------

 SCF Done:  E(RB3LYP) =  -972.514426727     A.U. after    1 cycles

 The electronic state is 1-A.
 Alpha  occ. eigenvalues --  -88.87799 -19.19529 -19.18361 -14.35804 -14.33249
 Alpha  occ. eigenvalues --  -10.23597 -10.23334 -10.22265 -10.20976 -10.20676
 Alpha  occ. eigenvalues --  -10.19668 -10.19379 -10.17088  -7.93739  -5.90318
 Alpha  occ. eigenvalues --   -5.89906  -5.89213  -1.10861  -0.94123  -0.91835
 Alpha  occ. eigenvalues --   -0.90100  -0.80523  -0.76678  -0.74438  -0.70533
 Alpha  occ. eigenvalues --   -0.68429  -0.64381  -0.60290  -0.59930  -0.55790
 Alpha  occ. eigenvalues --   -0.51046  -0.49611  -0.48895  -0.47475  -0.46101
 Alpha  occ. eigenvalues --   -0.45478  -0.44445  -0.42831  -0.41800  -0.41611
 Alpha  occ. eigenvalues --   -0.41348  -0.40956  -0.39780  -0.39572  -0.37916
 Alpha  occ. eigenvalues --   -0.37606  -0.35365  -0.34489  -0.33912  -0.29594
 Alpha  occ. eigenvalues --   -0.26888  -0.25559  -0.23005  -0.22100  -0.21595
 Alpha virt. eigenvalues --   -0.02568   0.02504   0.03703   0.05271   0.07435
 Alpha virt. eigenvalues --    0.08544   0.09555   0.10753   0.11599   0.12321
 Alpha virt. eigenvalues --    0.13077   0.13803   0.15359   0.15567   0.15785

 Mulliken charges:
               1
     1  C   -0.391393
     2  C    0.098241
     3  N   -0.306291
     4  C   -0.247050
     5  C    0.297694
     6  O   -0.221763
     7  O   -0.349164
     8  C    0.175572
     9  C   -0.492309
    10  C   -0.211215
    11  N   -0.315764
    12  S   -0.095389
    13  C   -0.350104
    14  H    0.116185
    15  H    0.093912
    16  H    0.108790
    17  H    0.239117
    18  H    0.109348
    19  H    0.131878
    20  H    0.303351
    21  H    0.122027
    22  H    0.135878
    23  H    0.147089
    24  H    0.108651
    25  H    0.124487
    26  H    0.258024
    27  H    0.137466
    28  H    0.138784
    29  H    0.133949
 Sum of Mulliken charges =  -0.00000

 Dipole moment (field-independent basis, Debye):
    X=             -1.8068    Y=              2.8024    Z=              2.1164  Tot=              3.9493
 Quadrupole moment (field-independent basis, Debye-Ang):
   XX=            -83.5971   YY=            -86.5374   ZZ=            -86.2582
   XY=              2.3299   XZ=              4.2184   YZ=             -3.2841

  Exact polarizability: 185.411  10.345 116.319  -0.838  -1.965 113.300
 Approx polarizability: 228.478  17.107 181.537  -0.036  -2.601 179.681

                      1                      2                      3
                      A                      A                      A
 Frequencies --     29.6045                37.9865                57.3943
 Red. masses --      4.2590                 4.5741                 4.0018
 Frc consts  --      0.0022                 0.0039                 0.0078
 IR Inten    --      0.0925                 1.2321                 0.8926

                      4                      5                      6
                      A                      A                      A
 Frequencies --     57.7857                99.5225               110.3194
 Red. masses --      3.8010                 2.9876                 3.0424
 Frc consts  --      0.0075                 0.0174                 0.0218
 IR Inten    --      0.3525                 1.8652                 1.3073

                      7                      8                      9
                      A                      A                      A
 Frequencies --    124.5403               140.1458               151.7301
 Red. masses --      2.9439                 3.1607                 1.1667
 Frc consts  --      0.0269                 0.0366                 0.0158
 IR Inten    --      2.6835                 7.0762                 0.1684

                     10                     11                     12
                      A                      A                      A
 Frequencies --    178.1048               182.4375               198.0157
 Red. masses --      3.8030                 1.5872                 1.5918
 Frc consts  --      0.0711                 0.0311                 0.0368
 IR Inten    --      4.7141                 0.7512                 0.8664

                     13                     14                     15
                      A                      A                      A
 Frequencies --    250.5178               266.8357               287.7405
 Red. masses --      5.9743                 3.3622                 3.9096
 Frc consts  --      0.2209                 0.1410                 0.1907
 IR Inten    --      0.8370                 2.2061                 1.4073

                     16                     17                     18
                      A                      A                      A
 Frequencies --    303.6264               348.7881               381.9441
 Red. masses --      3.1989                 2.6233                 2.6503
 Frc consts  --      0.1738                 0.1880                 0.2278
 IR Inten    --      1.7737                 3.0937                 4.4649

                     19                     20                     21
                      A                      A                      A
 Frequencies --    462.7575               470.0723               499.8798
 Red. masses --      2.5586                 2.7888                 2.3824
 Frc consts  --      0.3228                 0.3631                 0.3507
 IR Inten    --      1.9793                21.3884                40.4517

                     22                     23                     24
                      A                      A                      A
 Frequencies --    538.7905               565.3866               646.6980
 Red. masses --      1.7579                 3.0103                 3.1638
 Frc consts  --      0.3007                 0.5670                 0.7796
 IR Inten    --     83.9549                38.8897                27.4067

                     25                     26                     27
                      A                      A                      A
 Frequencies --    690.4280               704.5518               718.1925
 Red. masses --      4.0355                 1.4879                 2.8741
 Frc consts  --      1.1334                 0.4352                 0.8734
 IR Inten    --      9.1486                12.0709                12.7381

                     28                     29                     30
                      A                      A                      A
 Frequencies --    794.7194               810.7989               847.7575
 Red. masses --      1.8941                 2.7973                 1.5166
 Frc consts  --      0.7048                 1.0835                 0.6422
 IR Inten    --     21.7495                21.5651                51.7749

                     31                     32                     33
                      A                      A                      A
 Frequencies --    850.1172               876.3773               925.1906
 Red. masses --      4.2212                 1.5705                 2.8149
 Frc consts  --      1.7974                 0.7107                 1.4197
 IR Inten    --      2.3169                23.7366                40.8316

                     34                     35                     36
                      A                      A                      A
 Frequencies --    942.7831               961.3457               968.4110
 Red. masses --      1.9512                 1.1975                 1.3986
 Frc consts  --      1.0218                 0.6521                 0.7728
 IR Inten    --      0.7872                 1.5096                12.6364

                     37                     38                     39
                      A                      A                      A
 Frequencies --    989.0130               994.5585              1018.4319
 Red. masses --      1.4633                 1.5985                 1.1250
 Frc consts  --      0.8433                 0.9316                 0.6875
 IR Inten    --      7.7830                14.9009                17.4556

                     40                     41                     42
                      A                      A                      A
 Frequencies --   1039.2809              1070.6509              1093.9642
 Red. masses --      2.1519                 2.8129                 3.0119
 Frc consts  --      1.3694                 1.8997                 2.1237
 IR Inten    --     21.6355                11.9677                22.9665

                     43                     44                     45
                      A                      A                      A
 Frequencies --   1124.3577              1155.2271              1204.4386
 Red. masses --      2.2016                 4.2878                 1.5665
 Frc consts  --      1.6399                 3.3715                 1.3389
 IR Inten    --     90.7029                12.4892                51.0001

                     46                     47                     48
                      A                      A                      A
 Frequencies --   1230.3602              1285.7967              1290.6914
 Red. masses --      1.6706                 1.8090                 1.7448
 Frc consts  --      1.4900                 1.7621                 1.7125
 IR Inten    --     28.0450                17.1747                 9.7303

                     49                     50                     51
                      A                      A                      A
 Frequencies --   1338.4232              1341.9876              1363.3355
 Red. masses --      1.1680                 1.1836                 1.3296
 Frc consts  --      1.2328                 1.2559                 1.4560
 IR Inten    --      3.9717                 3.3183                47.6517

                     52                     53                     54
                      A                      A                      A
 Frequencies --   1367.4790              1406.1946              1423.5547
 Red. masses --      1.3834                 1.2550                 1.2072
 Frc consts  --      1.5242                 1.4622                 1.4413
 IR Inten    --      2.3441                 3.6311                18.0301

                     55                     56                     57
                      A                      A                      A
 Frequencies --   1430.7903              1455.3904              1458.1537
 Red. masses --      1.1205                 1.0835                 1.1168
 Frc consts  --      1.3515                 1.3522                 1.3991
 IR Inten    --     36.0789                10.1170                 8.3297

                     58                     59                     60
                      A                      A                      A
 Frequencies --   1478.2680              1478.9698              1481.4999
 Red. masses --      1.0610                 1.0574                 1.0604
 Frc consts  --      1.3660                 1.3627                 1.3713
 IR Inten    --      1.6350                11.2138                 4.4599

                     61                     62                     63
                      A                      A                      A
 Frequencies --   1491.7338              1498.1037              1506.7505
 Red. masses --      1.2474                 1.0761                 1.0825
 Frc consts  --      1.6354                 1.4229                 1.4479
 IR Inten    --     21.4644                20.2066                 1.1481

                     64                     65                     66
                      A                      A                      A
 Frequencies --   1715.6232              1726.8918              3019.7934
 Red. masses --      4.7128                 7.0482                 1.0574
 Frc consts  --      8.1728                12.3840                 5.6810
 IR Inten    --    150.7225                20.4447                22.1368

                     67                     68                     69
                      A                      A                      A
 Frequencies --   3026.8306              3039.1836              3040.7213
 Red. masses --      1.0433                 1.0311                 1.0549
 Frc consts  --      5.6314                 5.6116                 5.7467
 IR Inten    --     29.7984                29.0269                23.8335

                     70                     71                     72
                      A                      A                      A
 Frequencies --   3065.8695              3077.1022              3089.6062
 Red. masses --      1.1015                 1.0974                 1.1059
 Frc consts  --      6.1001                 6.1219                 6.2199
 IR Inten    --     18.4758                 9.9568                19.5717

                     73                     74                     75
                      A                      A                      A
 Frequencies --   3127.6461              3132.0518              3135.8064
 Red. masses --      1.1036                 1.0972                 1.1071
 Frc consts  --      6.3604                 6.3416                 6.4140
 IR Inten    --     10.4456                24.7755                10.3869

                     76                     77                     78
                      A                      A                      A
 Frequencies --   3154.1140              3162.8513              3250.3483
 Red. masses --      1.0611                 1.0915                 1.1127
 Frc consts  --      6.2196                 6.4335                 6.9264
 IR Inten    --      9.5986                 4.1283                 8.4062

                     79                     80                     81
                      A                      A                      A
 Frequencies --   3520.0209              3535.2759              3584.3419
 Red. masses --      1.0753                 1.0743                 1.0679
 Frc consts  --      7.8501                 7.9107                 8.0836
 IR Inten    --     49.4307                 3.4436               255.8806

 - Thermochemistry -
 -------------------
 Temperature   298.150 Kelvin.  Pressure   1.00000 Atm.
 Atom     1 has atomic number  6 and mass  12.00000

 Molecular mass:   204.09325 amu.
 Principal axes and moments of inertia in atomic units:
                           1         2         3
     Eigenvalues --  1438.914776416.029856629.50925
           X            0.99997   0.00758   0.00241
           Y           -0.00750   0.99950  -0.03069
           Z           -0.00264   0.03067   0.99953
 This molecule is an asymmetric top.
 Rotational symmetry number  1.
 Warning -- assumption of classical behavior for rotation
           may cause significant error
 Rotational temperatures (Kelvin)      0.06019     0.01350     0.01306
 Rotational constants (GHZ):           1.25424     0.28129     0.27223
 Zero-point vibrational energy     633439.3 (Joules/Mol)
                                  151.39563 (Kcal/Mol)
 Warning -- explicit consideration of  23 degrees of freedom as
           vibrations may cause significant error
 Vibrational temperatures:     42.59    54.65    82.58    83.14   143.19
          (Kelvin)            158.73   179.19   201.64   218.31   256.25
                              262.49   284.90   360.44   383.92   413.99
                              436.85   501.83   549.53   665.80   676.33
                              719.22   775.20   813.47   930.45   993.37
                             1013.69  1033.32  1143.42  1166.56  1219.73
                             1223.13  1260.91  1331.14  1356.45  1383.16
                             1393.33  1422.97  1430.95  1465.30  1495.29
                             1540.43  1573.97  1617.70  1662.11  1732.92
                             1770.21  1849.97  1857.02  1925.69  1930.82
                             1961.54  1967.50  2023.20  2048.18  2058.59
                             2093.98  2097.96  2126.90  2127.91  2131.55
                             2146.27  2155.44  2167.88  2468.40  2484.61
                             4344.81  4354.93  4372.71  4374.92  4411.10
                             4427.26  4445.25  4499.99  4506.32  4511.73
                             4538.07  4550.64  4676.53  5064.52  5086.47
                             5157.07

 Zero-point correction=                           0.241264 (Hartree/Particle)
 Thermal correction to Energy=                    0.257644
 Thermal correction to Enthalpy=                  0.258588
 Thermal correction to Gibbs Free Energy=         0.195907
 Sum of electronic and zero-point Energies=           -972.273162
 Sum of electronic and thermal Energies=              -972.256783
 Sum of electronic and thermal Enthalpies=            -972.255839
 Sum of electronic and thermal Free Energies=         -972.318520

                     E (Thermal)             CV                S
                      KCal/Mol        Cal/Mol-Kelvin    Cal/Mol-Kelvin
 Total                  161.674             58.068            131.924
 Electronic               0.000              0.000              0.000
 Translational            0.889              2.981             41.845
 Rotational               0.889              2.981             32.481
 Vibrational            159.896             52.107             57.598
 Vibration     1          0.593              1.984              5.856
 Vibration     2          0.594              1.982              5.361
 Vibration     3          0.596              1.975              4.545
 Vibration     4          0.596              1.974              4.531
 Vibration     5          0.604              1.949              3.464
 Vibration     6          0.606              1.941              3.263
 Vibration     7          0.610              1.928              3.029
 Vibration     8          0.615              1.913              2.802
 Vibration     9          0.619              1.901              2.650
 Vibration    10          0.629              1.869              2.348
 Vibration    11          0.630              1.864              2.303
 Vibration    12          0.637              1.843              2.151
 Vibration    13          0.663              1.762              1.727
 Vibration    14          0.672              1.734              1.617
 Vibration    15          0.685              1.696              1.487
 Vibration    16          0.695              1.667              1.397
 Vibration    17          0.726              1.578              1.172
 Vibration    18          0.751              1.509              1.031
 Vibration    19          0.820              1.333              0.758
 Vibration    20          0.827              1.316              0.737
 Vibration    21          0.855              1.250              0.658
 Vibration    22          0.894              1.164              0.568
 Vibration    23          0.921              1.106              0.513

                           ! Non-Optimized Parameters !
 Normal termination of Gaussian 16 at Mon May 29 20:15:24 2023.
