 Gaussian 16, Revision A.03,
 Gaussian 16:  ES64L-G16RevA.03 25-Dec-2016

 -----------------------------
 # opt freq b3lyp/6-31g(2df,p)
 -----------------------------

 -------------------
 Title Card Required
 -------------------
 Symbolic Z-matrix:
 Charge =  0 Multiplicity = 1

 SCF Done:  E(RB3LYP) =  -958.373401213     A.U. after   26 cycles
 SCF Done:  E(RB3LYP) =  -958.427456332     A.U. after   17 cycles
 SCF Done:  E(RB3LYP) =  -958.474244661     A.U. after   17 cycles
 SCF Done:  E(RB3LYP) =  -958.539526596     A.U. after   14 cycles
 SCF Done:  E(RB3LYP) =  -958.590541163     A.U. after   15 cycles
 SCF Done:  E(RB3LYP) =  -958.600843668     A.U. after   13 cycles
 SCF Done:  E(RB3LYP) =  -958.605612588     A.U. after   12 cycles
 SCF Done:  E(RB3LYP) =  -958.606835809     A.U. after   10 cycles
 SCF Done:  E(RB3LYP) =  -958.598028482     A.U. after   13 cycles
 SCF Done:  E(RB3LYP) =  -958.585547927     A.U. after   15 cycles
 SCF Done:  E(RB3LYP) =  -958.734135728     A.U. after    7 cycles
 SCF Done:  E(RB3LYP) =  -958.734136061     A.U. after    7 cycles
 SCF Done:  E(RB3LYP) =  -958.734136312     A.U. after    7 cycles
 SCF Done:  E(RB3LYP) =  -958.734136549     A.U. after    7 cycles
 SCF Done:  E(RB3LYP) =  -958.734136804     A.U. after    7 cycles
 SCF Done:  E(RB3LYP) =  -958.734137100     A.U. after    7 cycles
 SCF Done:  E(RB3LYP) =  -958.734137375     A.U. after    7 cycles
 SCF Done:  E(RB3LYP) =  -958.734137527     A.U. after    7 cycles
 SCF Done:  E(RB3LYP) =  -958.734137570     A.U. after    6 cycles
 Optimization completed.
    -- Stationary point found.
 Normal termination of Gaussian 16 at Sun May 28 13:29:01 2023.

 ----------------------------------------------------------------------
 #N Geom=AllCheck Guess=TCheck SCRF=Check GenChk RB3LYP/6-31G(2df,p) Fr
 eq
 ----------------------------------------------------------------------

 Structure from the checkpoint file:  "CdCNqCrC[SH]qCOCrC1CdCCdC1.chk"
 -------------------
 Title Card Required
 -------------------
 Charge =  0 Multiplicity = 1

                         Standard orientation:
 ---------------------------------------------------------------------
 Center     Atomic      Atomic             Coordinates (Angstroms)
 Number     Number       Type             X           Y           Z
 ---------------------------------------------------------------------
      1          6           0       -3.646528    1.956584    0.220911
      2          6           0       -3.418345    0.694459    0.607293
      3          7           0       -3.139739   -0.397458   -0.194467
      4          6           0       -3.002012   -0.200126   -1.624220
      5          6           0       -2.547443   -1.559757    0.383214
      6         16           0       -0.690941   -1.760519    0.226012
      7          6           0       -0.103784   -0.181378    0.881851
      8          8           0       -0.146475    0.817425   -0.114764
      9          6           0        0.191908    2.095482    0.396338
     10          6           0        3.325023   -1.152562   -0.304075
     11          6           0        3.059117   -0.012123   -1.248744
     12          6           0        3.818257    1.128957   -0.628651
     13          6           0        4.410893    0.703196    0.503718
     14          6           0        4.103301   -0.717847    0.706328
     15          1           0       -3.933671    2.694795    0.957822
     16          1           0       -3.574595    2.284552   -0.807521
     17          1           0       -3.493162    0.434084    1.660750
     18          1           0       -3.879606    0.331336   -2.005485
     19          1           0       -2.940309   -1.172439   -2.118399
     20          1           0       -2.098701    0.373406   -1.867203
     21          1           0       -2.918313   -2.470567   -0.098300
     22          1           0       -2.799244   -1.599566    1.444668
     23          1           0        1.983437    0.205865   -1.325877
     24          1           0        0.927014   -0.355061    1.220640
     25          1           0       -0.715408    0.107693    1.749076
     26          1           0        0.125894    2.798288   -0.436898
     27          1           0        1.215703    2.109335    0.797674
     28          1           0       -0.511729    2.409305    1.180205
     29          1           0        2.932892   -2.151169   -0.442748
     30          1           0        3.397002   -0.231666   -2.271776
     31          1           0        3.860468    2.124323   -1.050512
     32          1           0        5.024417    1.296156    1.171085
     33          1           0        4.460619   -1.306873    1.542201
 ---------------------------------------------------------------------

 SCF Done:  E(RB3LYP) =  -958.734137570     A.U. after    1 cycles

 The electronic state is 1-A.
 Alpha  occ. eigenvalues --  -88.86268 -19.14740 -14.35138 -10.25248 -10.24665
 Alpha  occ. eigenvalues --  -10.22202 -10.21071 -10.20541 -10.17905 -10.17563
 Alpha  occ. eigenvalues --  -10.17511 -10.17399 -10.17322 -10.15373  -7.92673
 Alpha  occ. eigenvalues --   -5.89137  -5.88785  -5.88222  -1.03694  -0.95043
 Alpha  occ. eigenvalues --   -0.84579  -0.78542  -0.74643  -0.72206  -0.69614
 Alpha  occ. eigenvalues --   -0.69323  -0.68024  -0.64714  -0.59554  -0.55324
 Alpha  occ. eigenvalues --   -0.54244  -0.52183  -0.50504  -0.50267  -0.48864
 Alpha  occ. eigenvalues --   -0.48426  -0.47940  -0.44672  -0.44118  -0.42200
 Alpha  occ. eigenvalues --   -0.41658  -0.40590  -0.40207  -0.38980  -0.38460
 Alpha  occ. eigenvalues --   -0.36949  -0.36529  -0.36010  -0.34951  -0.34805
 Alpha  occ. eigenvalues --   -0.33449  -0.31320  -0.29861  -0.29451  -0.25948
 Alpha  occ. eigenvalues --   -0.23355  -0.21184  -0.19319
 Alpha virt. eigenvalues --   -0.00921   0.03102   0.04811   0.07432   0.08360
 Alpha virt. eigenvalues --    0.08756   0.09317   0.11214   0.12024   0.12362
 Alpha virt. eigenvalues --    0.13445   0.14217   0.14542   0.15818   0.15973

 Mulliken charges:
               1
     1  C   -0.414686
     2  C    0.083441
     3  N    0.002418
     4  C   -0.333021
     5  C   -0.204801
     6  S   -0.160385
     7  C   -0.078457
     8  O   -0.212191
     9  C   -0.243170
    10  C   -0.088218
    11  C   -0.308901
    12  C   -0.087239
    13  C   -0.090769
    14  C   -0.092021
    15  H    0.099933
    16  H    0.096216
    17  H    0.094335
    18  H    0.127215
    19  H    0.124376
    20  H    0.145750
    21  H    0.132261
    22  H    0.136302
    23  H    0.159792
    24  H    0.135861
    25  H    0.108875
    26  H    0.127615
    27  H    0.116910
    28  H    0.114836
    29  H    0.106633
    30  H    0.123583
    31  H    0.093764
    32  H    0.091264
    33  H    0.092483
 Sum of Mulliken charges =  -0.00000

 Dipole moment (field-independent basis, Debye):
    X=             -0.5956    Y=              0.6027    Z=              0.6084  Tot=              1.0432
 Quadrupole moment (field-independent basis, Debye-Ang):
   XX=            -95.4060   YY=            -91.7769   ZZ=            -88.1694
   XY=              5.1214   XZ=              1.1546   YZ=              0.4135

  Exact polarizability: 151.620  -4.514 161.746  13.448  -1.295 127.979
 Approx polarizability: 205.598  -6.079 257.927  25.051  -3.283 212.213

                      1                      2                      3
                      A                      A                      A
 Frequencies --     14.6953                19.4427                29.1004
 Red. masses --      4.5653                 4.6081                 4.1027
 Frc consts  --      0.0006                 0.0010                 0.0020
 IR Inten    --      0.0065                 0.0842                 0.0525

                      4                      5                      6
                      A                      A                      A
 Frequencies --     40.9858                58.2062                60.1568
 Red. masses --      4.7353                 3.4403                 3.4614
 Frc consts  --      0.0047                 0.0069                 0.0074
 IR Inten    --      0.3847                 0.1297                 1.2551

                      7                      8                      9
                      A                      A                      A
 Frequencies --     73.7788                91.0583                95.9115
 Red. masses --      3.6068                 3.4657                 3.5160
 Frc consts  --      0.0116                 0.0169                 0.0191
 IR Inten    --      2.5541                 0.0500                 0.7708

                     10                     11                     12
                      A                      A                      A
 Frequencies --    133.1215               146.2536               192.2694
 Red. masses --      1.9401                 2.9060                 1.5663
 Frc consts  --      0.0203                 0.0366                 0.0341
 IR Inten    --     20.1991                 3.3629                 1.4887

                     13                     14                     15
                      A                      A                      A
 Frequencies --    208.3808               244.3065               252.5748
 Red. masses --      1.4952                 1.5890                 2.3773
 Frc consts  --      0.0383                 0.0559                 0.0894
 IR Inten    --      0.6627                 3.4549                 3.2993

                     16                     17                     18
                      A                      A                      A
 Frequencies --    276.4962               311.7567               366.9356
 Red. masses --      2.7537                 2.1858                 1.7967
 Frc consts  --      0.1240                 0.1252                 0.1425
 IR Inten    --      8.4109                 2.0629                14.7691

                     19                     20                     21
                      A                      A                      A
 Frequencies --    370.3767               415.8840               418.0470
 Red. masses --      2.5559                 2.4560                 4.0961
 Frc consts  --      0.2066                 0.2503                 0.4218
 IR Inten    --      4.2147                 7.4343                 2.1124

                     22                     23                     24
                      A                      A                      A
 Frequencies --    529.7072               583.3427               642.5655
 Red. masses --      2.4252                 2.4942                 5.4348
 Frc consts  --      0.4009                 0.5001                 1.3221
 IR Inten    --      0.0451                 9.0879                52.3795

                     25                     26                     27
                      A                      A                      A
 Frequencies --    695.0275               698.9980               725.3999
 Red. masses --      1.1890                 1.5296                 1.2734
 Frc consts  --      0.3384                 0.4403                 0.3948
 IR Inten    --     66.6175                 3.1865                 1.5697

                     28                     29                     30
                      A                      A                      A
 Frequencies --    772.5763               800.7126               811.9067
 Red. masses --      4.1663                 1.4044                 5.0208
 Frc consts  --      1.4652                 0.5305                 1.9500
 IR Inten    --      9.6341                51.7709                 0.2680

                     31                     32                     33
                      A                      A                      A
 Frequencies --    812.8032               813.5817               883.8281
 Red. masses --      2.9809                 5.4896                 1.4503
 Frc consts  --      1.1603                 2.1409                 0.6675
 IR Inten    --      6.3324                 4.5673                 1.8676

                     34                     35                     36
                      A                      A                      A
 Frequencies --    926.2320               927.1741               955.3519
 Red. masses --      2.1616                 1.8966                 1.2719
 Frc consts  --      1.0926                 0.9606                 0.6840
 IR Inten    --      9.4434                22.7280                 0.1695

                     37                     38                     39
                      A                      A                      A
 Frequencies --    956.5624               960.5771               976.4894
 Red. masses --      4.5237                 1.3377                 1.6644
 Frc consts  --      2.4388                 0.7272                 0.9350
 IR Inten    --     19.2175                 0.3749                 7.3316

                     40                     41                     42
                      A                      A                      A
 Frequencies --    979.4599               998.8231              1016.0173
 Red. masses --      1.6941                 1.1546                 2.6553
 Frc consts  --      0.9576                 0.6786                 1.6150
 IR Inten    --     15.9708                11.6592                 0.1540

                     43                     44                     45
                      A                      A                      A
 Frequencies --   1036.9624              1098.3040              1115.8157
 Red. masses --      1.5360                 2.1810                 4.1645
 Frc consts  --      0.9731                 1.5501                 3.0549
 IR Inten    --     10.3085                72.7913               136.2378

                     46                     47                     48
                      A                      A                      A
 Frequencies --   1115.8740              1132.1684              1135.4221
 Red. masses --      1.1716                 1.2362                 1.1273
 Frc consts  --      0.8596                 0.9336                 0.8562
 IR Inten    --     15.6964                 0.0597                 0.4725

                     49                     50                     51
                      A                      A                      A
 Frequencies --   1149.0307              1180.8183              1208.5025
 Red. masses --      1.3317                 1.2518                 1.3142
 Frc consts  --      1.0359                 1.0284                 1.1308
 IR Inten    --     10.7527                 0.1741                35.6256

                     52                     53                     54
                      A                      A                      A
 Frequencies --   1212.6719              1257.7408              1272.4527
 Red. masses --      1.4418                 1.1179                 1.5926
 Frc consts  --      1.2492                 1.0420                 1.5193
 IR Inten    --     19.3648                 1.7793                 1.6002

                     55                     56                     57
                      A                      A                      A
 Frequencies --   1290.9720              1314.1194              1315.8495
 Red. masses --      2.0262                 1.3613                 1.6912
 Frc consts  --      1.9896                 1.3850                 1.7253
 IR Inten    --    100.6740                25.2675                 0.6022

                     58                     59                     60
                      A                      A                      A
 Frequencies --   1351.3609              1358.7783              1399.3495
 Red. masses --      1.4348                 1.2406                 1.6713
 Frc consts  --      1.5438                 1.3495                 1.9282
 IR Inten    --      7.8013                15.8916                13.0853

                     61                     62                     63
                      A                      A                      A
 Frequencies --   1404.0077              1416.4826              1444.1522
 Red. masses --      1.8181                 1.2164                 1.1925
 Frc consts  --      2.1116                 1.4379                 1.4653
 IR Inten    --     53.8353                 5.2151                10.4652

                     64                     65                     66
                      A                      A                      A
 Frequencies --   1463.8663              1467.7745              1478.6897
 Red. masses --      1.1189                 1.1870                 1.1458
 Frc consts  --      1.4127                 1.5067                 1.4760
 IR Inten    --      3.3715                17.5094                 1.0315

                     67                     68                     69
                      A                      A                      A
 Frequencies --   1480.6514              1486.7010              1487.8415
 Red. masses --      1.0543                 1.0708                 1.0654
 Frc consts  --      1.3619                 1.3945                 1.3896
 IR Inten    --      8.2271                 4.3311                 2.7983

                     70                     71                     72
                      A                      A                      A
 Frequencies --   1505.1875              1521.5761              1552.4582
 Red. masses --      1.0750                 1.0991                 5.7289
 Frc consts  --      1.4350                 1.4993                 8.1350
 IR Inten    --      9.2168                16.2917                 0.7752

                     73                     74                     75
                      A                      A                      A
 Frequencies --   1638.8474              1697.0143              2982.3186
 Red. masses --      5.2351                 4.5417                 1.0465
 Frc consts  --      8.2842                 7.7062                 5.4842
 IR Inten    --      0.4391               188.0062                19.9222

                     76                     77                     78
                      A                      A                      A
 Frequencies --   2991.2965              3014.5246              3020.6369
 Red. masses --      1.0431                 1.0609                 1.0361
 Frc consts  --      5.4993                 5.6803                 5.5698
 IR Inten    --     48.7063                 8.6953                28.8603

                     79                     80                     81
                      A                      A                      A
 Frequencies --   3036.0209              3042.6708              3042.7366
 Red. masses --      1.1057                 1.0764                 1.0816
 Frc consts  --      6.0047                 5.8711                 5.8999
 IR Inten    --     29.4475                15.8563                18.0966

                     82                     83                     84
                      A                      A                      A
 Frequencies --   3046.6813              3085.2469              3112.6499
 Red. masses --      1.1048                 1.1004                 1.1045
 Frc consts  --      6.0423                 6.1712                 6.3051
 IR Inten    --     28.9365                22.0459                 5.4871

                     85                     86                     87
                      A                      A                      A
 Frequencies --   3121.7780              3122.4278              3151.5714
 Red. masses --      1.1015                 1.0978                 1.0849
 Frc consts  --      6.3247                 6.3063                 6.3487
 IR Inten    --     11.5605                17.7249                13.6677

                     88                     89                     90
                      A                      A                      A
 Frequencies --   3179.1559              3196.2688              3207.1728
 Red. masses --      1.0634                 1.0854                 1.0882
 Frc consts  --      6.3326                 6.5335                 6.5948
 IR Inten    --      0.0646                 4.9194                13.7987

                     91                     92                     93
                      A                      A                      A
 Frequencies --   3227.3251              3234.1901              3261.3051
 Red. masses --      1.0999                 1.1058                 1.1151
 Frc consts  --      6.7500                 6.8149                 6.9879
 IR Inten    --     17.1622                 2.6390                 9.1059

 - Thermochemistry -
 -------------------
 Temperature   298.150 Kelvin.  Pressure   1.00000 Atm.
 Atom     1 has atomic number  6 and mass  12.00000

 Molecular mass:   213.11874 amu.
 Principal axes and moments of inertia in atomic units:
                           1         2         3
     Eigenvalues --  1667.025476399.264577187.58530
           X            0.99999  -0.00289   0.00302
           Y            0.00287   0.99996   0.00898
           Z           -0.00305  -0.00897   0.99996
 This molecule is an asymmetric top.
 Rotational symmetry number  1.
 Warning -- assumption of classical behavior for rotation
           may cause significant error
 Rotational temperatures (Kelvin)      0.05196     0.01353     0.01205
 Rotational constants (GHZ):           1.08261     0.28202     0.25109
 Zero-point vibrational energy     737822.5 (Joules/Mol)
                                  176.34382 (Kcal/Mol)
 Warning -- explicit consideration of  23 degrees of freedom as
           vibrations may cause significant error
 Vibrational temperatures:     21.14    27.97    41.87    58.97    83.75
          (Kelvin)             86.55   106.15   131.01   138.00   191.53
                              210.43   276.63   299.81   351.50   363.40
                              397.82   448.55   527.94   532.89   598.36
                              601.48   762.13   839.30   924.51   999.99
                             1005.70  1043.69  1111.56  1152.05  1168.15
                             1169.44  1170.56  1271.63  1332.64  1334.00
                             1374.54  1376.28  1382.06  1404.95  1409.22
                             1437.08  1461.82  1491.96  1580.21  1605.41
                             1605.49  1628.94  1633.62  1653.20  1698.93
                             1738.77  1744.76  1809.61  1830.78  1857.42
                             1890.72  1893.21  1944.31  1954.98  2013.35
                             2020.05  2038.00  2077.81  2106.18  2111.80
                             2127.50  2130.33  2139.03  2140.67  2165.63
                             2189.21  2233.64  2357.94  2441.63  4290.89
                             4303.81  4337.23  4346.02  4368.16  4377.72
                             4377.82  4383.49  4438.98  4478.41  4491.54
                             4492.48  4534.41  4574.10  4598.72  4614.41
                             4643.40  4653.28  4692.29

 Zero-point correction=                           0.281022 (Hartree/Particle)
 Thermal correction to Energy=                    0.298897
 Thermal correction to Enthalpy=                  0.299842
 Thermal correction to Gibbs Free Energy=         0.230675
 Sum of electronic and zero-point Energies=           -958.453116
 Sum of electronic and thermal Energies=              -958.435240
 Sum of electronic and thermal Enthalpies=            -958.434296
 Sum of electronic and thermal Free Energies=         -958.503462

                     E (Thermal)             CV                S
                      KCal/Mol        Cal/Mol-Kelvin    Cal/Mol-Kelvin
 Total                  187.561             61.923            145.573
 Electronic               0.000              0.000              0.000
 Translational            0.889              2.981             41.974
 Rotational               0.889              2.981             32.705
 Vibrational            185.784             55.961             70.894
 Vibration     1          0.593              1.986              7.246
 Vibration     2          0.593              1.986              6.690
 Vibration     3          0.593              1.984              5.890
 Vibration     4          0.594              1.981              5.211
 Vibration     5          0.596              1.974              4.517
 Vibration     6          0.597              1.973              4.452
 Vibration     7          0.599              1.966              4.050
 Vibration     8          0.602              1.956              3.637
 Vibration     9          0.603              1.952              3.536
 Vibration    10          0.613              1.920              2.900
 Vibration    11          0.617              1.907              2.720
 Vibration    12          0.634              1.851              2.206
 Vibration    13          0.642              1.828              2.058
 Vibration    14          0.660              1.772              1.771
 Vibration    15          0.664              1.758              1.713
 Vibration    16          0.678              1.717              1.555
 Vibration    17          0.700              1.651              1.353
 Vibration    18          0.740              1.540              1.093
 Vibration    19          0.742              1.533              1.078
 Vibration    20          0.779              1.436              0.906
 Vibration    21          0.781              1.431              0.899
 Vibration    22          0.885              1.184              0.588
 Vibration    23          0.940              1.067              0.479

                           ! Non-Optimized Parameters !
 Normal termination of Gaussian 16 at Sun May 28 15:21:29 2023.
