 Gaussian 16, Revision A.03,
 Gaussian 16:  ES64L-G16RevA.03 25-Dec-2016

 -----------------------------
 # opt freq b3lyp/6-31g(2df,p)
 -----------------------------

 -------------------
 Title Card Required
 -------------------
 Symbolic Z-matrix:
 Charge =  0 Multiplicity = 1

 SCF Done:  E(RB3LYP) =  -875.473681530     A.U. after   15 cycles
 SCF Done:  E(RB3LYP) =  -875.484354620     A.U. after   13 cycles
 SCF Done:  E(RB3LYP) =  -875.486901923     A.U. after   13 cycles
 SCF Done:  E(RB3LYP) =  -875.488215151     A.U. after   13 cycles
 SCF Done:  E(RB3LYP) =  -875.490954489     A.U. after   12 cycles
 SCF Done:  E(RB3LYP) =  -875.493425249     A.U. after   13 cycles
 SCF Done:  E(RB3LYP) =  -875.494127098     A.U. after   12 cycles
 SCF Done:  E(RB3LYP) =  -875.494548326     A.U. after   12 cycles
 SCF Done:  E(RB3LYP) =  -875.494642611     A.U. after   11 cycles
 SCF Done:  E(RB3LYP) =  -875.494752724     A.U. after   10 cycles
 SCF Done:  E(RB3LYP) =  -875.495074714     A.U. after    8 cycles
 SCF Done:  E(RB3LYP) =  -875.495073727     A.U. after   12 cycles
 SCF Done:  E(RB3LYP) =  -875.495099624     A.U. after   11 cycles
 SCF Done:  E(RB3LYP) =  -875.495108314     A.U. after    9 cycles
 SCF Done:  E(RB3LYP) =  -875.495109420     A.U. after    8 cycles
 SCF Done:  E(RB3LYP) =  -875.495110416     A.U. after    8 cycles
 SCF Done:  E(RB3LYP) =  -875.495110636     A.U. after    7 cycles
 SCF Done:  E(RB3LYP) =  -875.495110828     A.U. after    8 cycles
 SCF Done:  E(RB3LYP) =  -875.495110864     A.U. after    7 cycles
 Optimization completed.
    -- Stationary point found.
 Normal termination of Gaussian 16 at Sun May 28 20:04:07 2023.

 ----------------------------------------------------------------------
 #N Geom=AllCheck Guess=TCheck SCRF=Check GenChk RB3LYP/6-31G(2df,p) Fr
 eq
 ----------------------------------------------------------------------

 Structure from the checkpoint file:  "CdCOC1dCqCSrNqCdOrC1.chk"
 -------------------
 Title Card Required
 -------------------
 Charge =  0 Multiplicity = 1

                         Standard orientation:
 ---------------------------------------------------------------------
 Center     Atomic      Atomic             Coordinates (Angstroms)
 Number     Number       Type             X           Y           Z
 ---------------------------------------------------------------------
      1          6           0        4.408255   -0.466695    0.244056
      2          6           0        3.222137    0.124770    0.247542
      3          8           0        2.093413   -0.534321   -0.167456
      4          6           0        0.927726    0.130385   -0.177935
      5          6           0       -0.335448   -0.243220   -0.460942
      6          6           0       -1.048830   -1.480527   -0.824909
      7         16           0       -2.249606   -2.087373    0.453107
      8          7           0       -0.832618    1.101776   -0.338264
      9          6           0       -2.023868    1.681309   -0.034207
     10          8           0       -2.139057    2.832263    0.336120
     11          6           0        0.524143    1.591617   -0.004841
     12          1           0        5.279045    0.078647    0.580806
     13          1           0        4.533091   -1.489889   -0.087455
     14          1           0        3.060352    1.147186    0.575087
     15          1           0       -0.325958   -2.268636   -1.041224
     16          1           0       -1.669282   -1.336017   -1.714750
     17          1           0       -1.362380   -2.167053    1.462233
     18          1           0       -2.875801    0.997823   -0.201138
     19          1           0        0.584510    2.014608    1.001163
     20          1           0        0.918903    2.299508   -0.738486
 ---------------------------------------------------------------------

 SCF Done:  E(RB3LYP) =  -875.495110864     A.U. after    1 cycles

 The electronic state is 1-A.
 Alpha  occ. eigenvalues --  -88.88233 -19.21665 -19.10329 -14.37048 -10.27427
 Alpha  occ. eigenvalues --  -10.26152 -10.26113 -10.24733 -10.24364 -10.23856
 Alpha  occ. eigenvalues --  -10.18886  -7.94844  -5.91302  -5.90960  -5.90339
 Alpha  occ. eigenvalues --   -1.11357  -1.03343  -0.97742  -0.81495  -0.79987
 Alpha  occ. eigenvalues --   -0.76780  -0.71300  -0.66019  -0.64463  -0.59050
 Alpha  occ. eigenvalues --   -0.55018  -0.52309  -0.51619  -0.49934  -0.47779
 Alpha  occ. eigenvalues --   -0.45619  -0.44212  -0.43523  -0.42377  -0.41497
 Alpha  occ. eigenvalues --   -0.40590  -0.38957  -0.38435  -0.36497  -0.34674
 Alpha  occ. eigenvalues --   -0.30812  -0.27261  -0.25547  -0.24801  -0.20372
 Alpha virt. eigenvalues --   -0.01656   0.01345   0.02323   0.03233   0.07378
 Alpha virt. eigenvalues --    0.07826   0.09696   0.10312   0.12229   0.12543
 Alpha virt. eigenvalues --    0.12836   0.15047   0.15514   0.17628   0.17942

 Mulliken charges:
               1
     1  C   -0.397996
     2  C    0.122189
     3  O   -0.221487
     4  C    0.212202
     5  C    0.227295
     6  C   -0.342220
     7  S   -0.246942
     8  N   -0.122810
     9  C    0.129791
    10  O   -0.335966
    11  C   -0.275215
    12  H    0.128617
    13  H    0.123752
    14  H    0.125749
    15  H    0.159584
    16  H    0.155606
    17  H    0.164834
    18  H    0.093621
    19  H    0.152194
    20  H    0.147203
 Sum of Mulliken charges =  -0.00000

 Dipole moment (field-independent basis, Debye):
    X=              3.6439    Y=             -1.8766    Z=             -0.6904  Tot=              4.1565
 Quadrupole moment (field-independent basis, Debye-Ang):
   XX=            -72.6593   YY=            -81.7067   ZZ=            -68.9087
   XY=              8.2931   XZ=              4.5016   YZ=             -0.6170

  Exact polarizability: 167.887  -2.858 110.745   1.855   3.922  69.056
 Approx polarizability: 237.354 -10.847 164.402   3.416   9.423 115.125

                      1                      2                      3
                      A                      A                      A
 Frequencies --     41.7308                50.3248                56.1105
 Red. masses --      5.1409                 3.7711                 2.0296
 Frc consts  --      0.0053                 0.0056                 0.0038
 IR Inten    --      1.0694                 0.9843                 1.6708

                      4                      5                      6
                      A                      A                      A
 Frequencies --     83.4467                99.7164               113.8392
 Red. masses --      7.4852                 6.8291                 3.5516
 Frc consts  --      0.0307                 0.0400                 0.0271
 IR Inten    --      2.1557                 1.2790                 2.4423

                      7                      8                      9
                      A                      A                      A
 Frequencies --    171.0538               227.9156               247.4745
 Red. masses --      1.9853                 1.5648                 3.7443
 Frc consts  --      0.0342                 0.0479                 0.1351
 IR Inten    --      3.4741                 9.8081                 6.0688

                     10                     11                     12
                      A                      A                      A
 Frequencies --    274.7567               325.2900               340.9285
 Red. masses --      2.6708                 6.1314                 2.5085
 Frc consts  --      0.1188                 0.3823                 0.1718
 IR Inten    --      4.7307                10.7474                20.0660

                     13                     14                     15
                      A                      A                      A
 Frequencies --    394.2492               440.5624               548.2211
 Red. masses --      3.3460                 4.6897                 4.0696
 Frc consts  --      0.3064                 0.5363                 0.7206
 IR Inten    --     10.8487                 8.6977                 3.7153

                     16                     17                     18
                      A                      A                      A
 Frequencies --    639.5623               665.5338               700.5296
 Red. masses --      4.3060                 4.1186                 2.4906
 Frc consts  --      1.0377                 1.0748                 0.7201
 IR Inten    --      3.1299                15.0616                12.3065

                     19                     20                     21
                      A                      A                      A
 Frequencies --    705.3563               756.6430               834.0455
 Red. masses --      1.5093                 2.3600                 2.7809
 Frc consts  --      0.4424                 0.7961                 1.1398
 IR Inten    --      4.6206                 5.2226                14.8092

                     22                     23                     24
                      A                      A                      A
 Frequencies --    855.7955               871.4533               975.8646
 Red. masses --      2.5978                 1.4033                 1.1012
 Frc consts  --      1.1210                 0.6279                 0.6178
 IR Inten    --     37.9798                38.8500                17.1108

                     25                     26                     27
                      A                      A                      A
 Frequencies --    984.0261               999.9518              1013.6351
 Red. masses --      1.9160                 1.6462                 1.7142
 Frc consts  --      1.0931                 0.9698                 1.0377
 IR Inten    --     27.2357                 3.8289                13.7159

                     28                     29                     30
                      A                      A                      A
 Frequencies --   1024.9153              1103.8835              1123.1298
 Red. masses --      1.7871                 2.7513                 1.2685
 Frc consts  --      1.1061                 1.9753                 0.9427
 IR Inten    --     16.2184                 2.0873                 2.1860

                     31                     32                     33
                      A                      A                      A
 Frequencies --   1151.5624              1194.1087              1224.0776
 Red. masses --      2.5989                 3.6674                 1.2782
 Frc consts  --      2.0305                 3.0810                 1.1284
 IR Inten    --     77.9480               179.3761                 3.1517

                     34                     35                     36
                      A                      A                      A
 Frequencies --   1260.7415              1272.5925              1348.0232
 Red. masses --      1.6664                 1.4713                 1.2082
 Frc consts  --      1.5606                 1.4039                 1.2936
 IR Inten    --     70.3395                13.4073                 3.0742

                     37                     38                     39
                      A                      A                      A
 Frequencies --   1386.8384              1414.1735              1429.1031
 Red. masses --      2.2979                 1.6941                 1.1970
 Frc consts  --      2.6040                 1.9962                 1.4404
 IR Inten    --     39.9943               238.0212                51.1764

                     40                     41                     42
                      A                      A                      A
 Frequencies --   1453.8603              1462.4807              1490.7913
 Red. masses --      2.1341                 1.5323                 1.2572
 Frc consts  --      2.6578                 1.9310                 1.6463
 IR Inten    --     94.6398               156.0575                32.3177

                     43                     44                     45
                      A                      A                      A
 Frequencies --   1714.5292              1770.2515              1780.2348
 Red. masses --      5.0669                 9.5518                 8.7002
 Frc consts  --      8.7757                17.6361                16.2455
 IR Inten    --    445.2151               128.4102               498.6444

                     46                     47                     48
                      A                      A                      A
 Frequencies --   2679.4637              2974.4397              3060.9365
 Red. masses --      1.0386                 1.0854                 1.0614
 Frc consts  --      4.3932                 5.6576                 5.8595
 IR Inten    --      2.3906                61.6146                 7.7482

                     49                     50                     51
                      A                      A                      A
 Frequencies --   3067.1420              3123.1514              3125.0025
 Red. masses --      1.0559                 1.1091                 1.1025
 Frc consts  --      5.8526                 6.3736                 6.3435
 IR Inten    --     15.4255                 6.5337                 3.0596

                     52                     53                     54
                      A                      A                      A
 Frequencies --   3174.0828              3188.1379              3275.0914
 Red. masses --      1.0640                 1.0899                 1.1164
 Frc consts  --      6.3158                 6.5268                 7.0552
 IR Inten    --      9.0280                 2.9071                 1.7330

 - Thermochemistry -
 -------------------
 Temperature   298.150 Kelvin.  Pressure   1.00000 Atm.
 Atom     1 has atomic number  6 and mass  12.00000

 Molecular mass:   171.03540 amu.
 Principal axes and moments of inertia in atomic units:
                           1         2         3
     Eigenvalues --  1573.489613048.124204397.26383
           X            0.99993   0.00850   0.00766
           Y           -0.00855   0.99994   0.00642
           Z           -0.00761  -0.00649   0.99995
 This molecule is an asymmetric top.
 Rotational symmetry number  1.
 Warning -- assumption of classical behavior for rotation
           may cause significant error
 Rotational temperatures (Kelvin)      0.05505     0.02842     0.01970
 Rotational constants (GHZ):           1.14697     0.59208     0.41042
 Zero-point vibrational energy     392918.0 (Joules/Mol)
                                   93.90966 (Kcal/Mol)
 Warning -- explicit consideration of  15 degrees of freedom as
           vibrations may cause significant error
 Vibrational temperatures:     60.04    72.41    80.73   120.06   143.47
          (Kelvin)            163.79   246.11   327.92   356.06   395.31
                              468.02   490.52   567.24   633.87   788.77
                              920.19   957.55  1007.91  1014.85  1088.64
                             1200.01  1231.30  1253.83  1404.05  1415.79
                             1438.71  1458.39  1474.62  1588.24  1615.93
                             1656.84  1718.06  1761.17  1813.93  1830.98
                             1939.50  1995.35  2034.68  2056.16  2091.78
                             2104.18  2144.92  2466.83  2547.00  2561.36
                             3855.15  4279.56  4404.00  4412.93  4493.52
                             4496.18  4566.80  4587.02  4712.13

 Zero-point correction=                           0.149655 (Hartree/Particle)
 Thermal correction to Energy=                    0.161951
 Thermal correction to Enthalpy=                  0.162895
 Thermal correction to Gibbs Free Energy=         0.109082
 Sum of electronic and zero-point Energies=           -875.345456
 Sum of electronic and thermal Energies=              -875.333160
 Sum of electronic and thermal Enthalpies=            -875.332216
 Sum of electronic and thermal Free Energies=         -875.386029

                     E (Thermal)             CV                S
                      KCal/Mol        Cal/Mol-Kelvin    Cal/Mol-Kelvin
 Total                  101.626             42.221            113.260
 Electronic               0.000              0.000              0.000
 Translational            0.889              2.981             41.318
 Rotational               0.889              2.981             31.423
 Vibrational             99.848             36.259             40.520
 Vibration     1          0.594              1.981              5.175
 Vibration     2          0.595              1.977              4.805
 Vibration     3          0.596              1.975              4.590
 Vibration     4          0.600              1.961              3.808
 Vibration     5          0.604              1.949              3.460
 Vibration     6          0.607              1.938              3.202
 Vibration     7          0.626              1.878              2.424
 Vibration     8          0.651              1.798              1.895
 Vibration     9          0.661              1.767              1.748
 Vibration    10          0.677              1.720              1.566
 Vibration    11          0.709              1.625              1.283
 Vibration    12          0.720              1.594              1.208
 Vibration    13          0.761              1.482              0.984
 Vibration    14          0.800              1.382              0.825
 Vibration    15          0.903              1.144              0.548

 Optimization completed.
    -- Stationary point found.
 Normal termination of Gaussian 16 at Sun May 28 20:41:06 2023.
