 Gaussian 16, Revision A.03,
 Gaussian 16:  ES64L-G16RevA.03 25-Dec-2016

 -----------------------------
 # opt freq b3lyp/6-31g(2df,p)
 -----------------------------

 -------------------
 Title Card Required
 -------------------
 Symbolic Z-matrix:
 Charge =  0 Multiplicity = 1

 SCF Done:  E(RB3LYP) =  -581.709883565     A.U. after   14 cycles
 SCF Done:  E(RB3LYP) =  -581.714152443     A.U. after   12 cycles
 SCF Done:  E(RB3LYP) =  -581.714490885     A.U. after   10 cycles
 SCF Done:  E(RB3LYP) =  -581.714450359     A.U. after    9 cycles
 SCF Done:  E(RB3LYP) =  -581.714514806     A.U. after    9 cycles
 SCF Done:  E(RB3LYP) =  -581.714520191     A.U. after    8 cycles
 SCF Done:  E(RB3LYP) =  -581.714522709     A.U. after    8 cycles
 SCF Done:  E(RB3LYP) =  -581.715267412     A.U. after   11 cycles
 SCF Done:  E(RB3LYP) =  -581.717000909     A.U. after   12 cycles
 SCF Done:  E(RB3LYP) =  -581.718606958     A.U. after   14 cycles
 SCF Done:  E(RB3LYP) =  -581.719913716     A.U. after    8 cycles
 SCF Done:  E(RB3LYP) =  -581.719916743     A.U. after    8 cycles
 SCF Done:  E(RB3LYP) =  -581.719919919     A.U. after    9 cycles
 SCF Done:  E(RB3LYP) =  -581.719924923     A.U. after    9 cycles
 SCF Done:  E(RB3LYP) =  -581.719928414     A.U. after    9 cycles
 SCF Done:  E(RB3LYP) =  -581.719929667     A.U. after    9 cycles
 SCF Done:  E(RB3LYP) =  -581.719930986     A.U. after    9 cycles
 SCF Done:  E(RB3LYP) =  -581.719931089     A.U. after    8 cycles
 SCF Done:  E(RB3LYP) =  -581.719931135     A.U. after    6 cycles
 Optimization completed.
    -- Stationary point found.
 Normal termination of Gaussian 16 at Tue May 23 11:20:31 2023.

 ----------------------------------------------------------------------
 #N Geom=AllCheck Guess=TCheck SCRF=Check GenChk RB3LYP/6-31G(2df,p) Fr
 eq
 ----------------------------------------------------------------------

 Structure from the checkpoint file:  "CdCqCrCCCCqdOrOCCqCrC.chk"
 -------------------
 Title Card Required
 -------------------
 Charge =  0 Multiplicity = 1

                         Standard orientation:
 ---------------------------------------------------------------------
 Center     Atomic      Atomic             Coordinates (Angstroms)
 Number     Number       Type             X           Y           Z
 ---------------------------------------------------------------------
      1          6           0        5.309403   -0.494960   -1.095464
      2          6           0        4.506404   -0.214800   -0.069333
      3          6           0        4.913125    0.746073    1.019189
      4          6           0        3.142495   -0.854918    0.064017
      5          6           0        1.973378    0.137629   -0.071103
      6          6           0        0.613480   -0.553312    0.031346
      7          6           0       -0.548648    0.419114   -0.015716
      8          8           0       -0.462682    1.619283    0.065305
      9          8           0       -1.718259   -0.238609   -0.149712
     10          6           0       -2.904720    0.578532   -0.177704
     11          6           0       -4.117353   -0.339285   -0.294356
     12          6           0       -4.233993   -1.277819    0.913226
     13          6           0       -5.385487    0.504746   -0.477677
     14          1           0        6.289091   -0.038277   -1.195980
     15          1           0        5.018359   -1.193048   -1.874308
     16          1           0        5.926678    1.123211    0.862357
     17          1           0        4.876304    0.261762    2.003616
     18          1           0        4.237444    1.607873    1.071792
     19          1           0        3.068690   -1.351429    1.043364
     20          1           0        3.037384   -1.641542   -0.692327
     21          1           0        2.046913    0.659750   -1.031609
     22          1           0        2.031994    0.912666    0.698697
     23          1           0        0.531544   -1.113852    0.972587
     24          1           0        0.474776   -1.295963   -0.762580
     25          1           0       -2.838169    1.268618   -1.025284
     26          1           0       -2.944449    1.183035    0.735992
     27          1           0       -3.974453   -0.950984   -1.195296
     28          1           0       -4.399339   -0.707073    1.835157
     29          1           0       -3.324221   -1.869480    1.041101
     30          1           0       -5.076466   -1.966134    0.793033
     31          1           0       -5.558973    1.149785    0.391762
     32          1           0       -6.264260   -0.136848   -0.592881
     33          1           0       -5.319824    1.146529   -1.362475
 ---------------------------------------------------------------------

 SCF Done:  E(RB3LYP) =  -581.719931135     A.U. after    1 cycles

 The electronic state is 1-A.
 Alpha  occ. eigenvalues --  -19.17683 -19.12098 -10.30034 -10.23308 -10.19473
 Alpha  occ. eigenvalues --  -10.19390 -10.18803 -10.18332 -10.18261 -10.17919
 Alpha  occ. eigenvalues --  -10.17641 -10.17396 -10.16402  -1.09578  -1.00866
 Alpha  occ. eigenvalues --   -0.81879  -0.81055  -0.77786  -0.71867  -0.68682
 Alpha  occ. eigenvalues --   -0.68380  -0.67511  -0.60862  -0.57042  -0.55637
 Alpha  occ. eigenvalues --   -0.52335  -0.49527  -0.48671  -0.47591  -0.46402
 Alpha  occ. eigenvalues --   -0.45039  -0.44255  -0.43024  -0.42702  -0.41609
 Alpha  occ. eigenvalues --   -0.40134  -0.39123  -0.38425  -0.37497  -0.36954
 Alpha  occ. eigenvalues --   -0.36157  -0.35988  -0.34828  -0.34053  -0.33342
 Alpha  occ. eigenvalues --   -0.32948  -0.32729  -0.32310  -0.29528  -0.26612
 Alpha  occ. eigenvalues --   -0.24190
 Alpha virt. eigenvalues --    0.01864   0.02854   0.08164   0.08863   0.10902
 Alpha virt. eigenvalues --    0.12034   0.12737   0.12826   0.13705   0.14421
 Alpha virt. eigenvalues --    0.14714   0.15125   0.16017   0.16671   0.16921

 Mulliken charges:
               1
     1  C   -0.407316
     2  C    0.384147
     3  C   -0.472651
     4  C   -0.288456
     5  C   -0.168445
     6  C   -0.332948
     7  C    0.444380
     8  O   -0.357265
     9  O   -0.252608
    10  C   -0.051304
    11  C    0.013621
    12  C   -0.382869
    13  C   -0.393906
    14  H    0.099818
    15  H    0.096602
    16  H    0.120920
    17  H    0.120341
    18  H    0.132468
    19  H    0.096141
    20  H    0.097107
    21  H    0.112657
    22  H    0.119461
    23  H    0.129553
    24  H    0.127328
    25  H    0.115244
    26  H    0.115519
    27  H    0.083814
    28  H    0.111171
    29  H    0.125386
    30  H    0.111877
    31  H    0.117577
    32  H    0.117055
    33  H    0.115581
 Sum of Mulliken charges =  -0.00000

 Dipole moment (field-independent basis, Debye):
    X=             -1.0986    Y=             -1.4707    Z=              0.1858  Tot=              1.8451
 Quadrupole moment (field-independent basis, Debye-Ang):
   XX=            -75.6522   YY=            -85.6937   ZZ=            -79.2366
   XY=              0.6377   XZ=              2.0209   YZ=              0.4297

  Exact polarizability: 164.669   1.504 109.796  -6.942   4.755 110.146
 Approx polarizability: 183.222   3.138 171.878 -13.513  10.266 171.091

                      1                      2                      3
                      A                      A                      A
 Frequencies --     12.4020                31.2213                40.9409
 Red. masses --      3.3299                 2.9289                 5.0247
 Frc consts  --      0.0003                 0.0017                 0.0050
 IR Inten    --      0.1382                 0.1899                 1.0393

                      4                      5                      6
                      A                      A                      A
 Frequencies --     51.2103                63.8520                82.8497
 Red. masses --      4.0045                 2.4770                 2.0915
 Frc consts  --      0.0062                 0.0060                 0.0085
 IR Inten    --      0.1877                 0.3780                 0.0533

                      7                      8                      9
                      A                      A                      A
 Frequencies --    106.6133               124.8756               187.7023
 Red. masses --      2.3917                 3.4675                 1.4036
 Frc consts  --      0.0160                 0.0319                 0.0291
 IR Inten    --      0.2510                 1.0291                 0.7990

                     10                     11                     12
                      A                      A                      A
 Frequencies --    191.8239               207.2509               221.9037
 Red. masses --      1.8167                 2.5407                 1.1808
 Frc consts  --      0.0394                 0.0643                 0.0343
 IR Inten    --      2.2318                 0.6114                 0.4643

                     13                     14                     15
                      A                      A                      A
 Frequencies --    239.9197               254.2162               296.3599
 Red. masses --      1.9600                 1.4975                 4.7618
 Frc consts  --      0.0665                 0.0570                 0.2464
 IR Inten    --      0.9156                 0.5782                10.4710

                     16                     17                     18
                      A                      A                      A
 Frequencies --    332.5566               389.4888               408.0738
 Red. masses --      2.8201                 2.2578                 2.3432
 Frc consts  --      0.1838                 0.2018                 0.2299
 IR Inten    --      2.2639                 2.0210                 1.0640

                     19                     20                     21
                      A                      A                      A
 Frequencies --    424.5153               449.8917               499.0517
 Red. masses --      2.0335                 2.2380                 3.3907
 Frc consts  --      0.2159                 0.2669                 0.4975
 IR Inten    --      4.0694                 5.7654                 1.2007

                     22                     23                     24
                      A                      A                      A
 Frequencies --    559.9308               591.4992               701.0347
 Red. masses --      2.5825                 2.3598                 3.5215
 Frc consts  --      0.4770                 0.4864                 1.0197
 IR Inten    --      5.2932                 3.9418                 3.2142

                     25                     26                     27
                      A                      A                      A
 Frequencies --    733.2764               744.9370               823.2108
 Red. masses --      1.2187                 1.2152                 2.9892
 Frc consts  --      0.3861                 0.3973                 1.1935
 IR Inten    --      0.2632                 4.2687                 0.8294

                     28                     29                     30
                      A                      A                      A
 Frequencies --    841.3438               866.0488               911.7059
 Red. masses --      2.6240                 1.6162                 1.3335
 Frc consts  --      1.0944                 0.7142                 0.6531
 IR Inten    --      1.8842                 3.2682                 2.9639

                     31                     32                     33
                      A                      A                      A
 Frequencies --    930.5698               930.8262               943.4349
 Red. masses --      1.2418                 1.3460                 3.7539
 Frc consts  --      0.6336                 0.6871                 1.9686
 IR Inten    --      1.4032                32.6474                 6.7667

                     34                     35                     36
                      A                      A                      A
 Frequencies --    958.3611               977.9226               988.7197
 Red. masses --      1.5863                 1.9192                 1.8298
 Frc consts  --      0.8584                 1.0814                 1.0539
 IR Inten    --      3.8145                 4.6100                 3.1026

                     37                     38                     39
                      A                      A                      A
 Frequencies --   1002.3602              1019.6054              1043.6651
 Red. masses --      1.6119                 2.7316                 2.7335
 Frc consts  --      0.9542                 1.6731                 1.7543
 IR Inten    --      6.9263                25.3495                15.2854

                     40                     41                     42
                      A                      A                      A
 Frequencies --   1061.3681              1089.5652              1098.4664
 Red. masses --      1.6964                 2.7377                 1.8384
 Frc consts  --      1.1259                 1.9149                 1.3070
 IR Inten    --      0.6824                15.6190                 7.3767

                     43                     44                     45
                      A                      A                      A
 Frequencies --   1153.6579              1164.1848              1188.0579
 Red. masses --      2.2403                 1.2783                 1.9063
 Frc consts  --      1.7568                 1.0208                 1.5853
 IR Inten    --      0.3635                 8.6984                45.1524

                     46                     47                     48
                      A                      A                      A
 Frequencies --   1196.7577              1201.9642              1272.8424
 Red. masses --      2.2485                 1.8167                 1.1750
 Frc consts  --      1.8973                 1.5463                 1.1216
 IR Inten    --    353.5014                52.1834                 5.5036

                     49                     50                     51
                      A                      A                      A
 Frequencies --   1277.9049              1281.3402              1310.0546
 Red. masses --      1.6507                 1.5249                 1.6622
 Frc consts  --      1.5883                 1.4751                 1.6807
 IR Inten    --     26.2892                99.9372                16.5757

                     52                     53                     54
                      A                      A                      A
 Frequencies --   1323.6227              1328.7294              1361.7408
 Red. masses --      1.1049                 1.3364                 1.5716
 Frc consts  --      1.1405                 1.3902                 1.7171
 IR Inten    --      2.4394                 1.5970                49.4722

                     55                     56                     57
                      A                      A                      A
 Frequencies --   1373.3442              1392.9537              1399.2103
 Red. masses --      1.3801                 1.5777                 1.2829
 Frc consts  --      1.5336                 1.8036                 1.4798
 IR Inten    --      6.1533                13.5598                 5.6086

                     58                     59                     60
                      A                      A                      A
 Frequencies --   1409.7610              1411.9523              1428.8803
 Red. masses --      1.4642                 1.2924                 1.3368
 Frc consts  --      1.7145                 1.5180                 1.6080
 IR Inten    --     22.3419                16.5075                 3.1840

                     61                     62                     63
                      A                      A                      A
 Frequencies --   1451.4731              1459.0367              1474.0266
 Red. masses --      1.1665                 1.0825                 1.0697
 Frc consts  --      1.4480                 1.3577                 1.3694
 IR Inten    --      0.2948                 9.9412                 2.6102

                     64                     65                     66
                      A                      A                      A
 Frequencies --   1485.5529              1488.8117              1490.6794
 Red. masses --      1.0587                 1.0537                 1.0465
 Frc consts  --      1.3766                 1.3760                 1.3702
 IR Inten    --      5.6256                 0.2243                 1.3111

                     67                     68                     69
                      A                      A                      A
 Frequencies --   1497.8353              1502.2738              1503.7484
 Red. masses --      1.0687                 1.0983                 1.0513
 Frc consts  --      1.4126                 1.4604                 1.4006
 IR Inten    --      6.2832                 6.7886                 4.0537

                     70                     71                     72
                      A                      A                      A
 Frequencies --   1507.7723              1514.6795              1722.4890
 Red. masses --      1.0761                 1.0668                 5.3053
 Frc consts  --      1.4414                 1.4421                 9.2742
 IR Inten    --      2.0350                12.9377                16.1972

                     73                     74                     75
                      A                      A                      A
 Frequencies --   1814.5281              2994.2914              3016.2952
 Red. masses --     11.8085                 1.0649                 1.0815
 Frc consts  --     22.9072                 5.6255                 5.7973
 IR Inten    --    188.6498                23.7935                 5.9551

                     76                     77                     78
                      A                      A                      A
 Frequencies --   3020.5972              3026.1668              3026.9685
 Red. masses --      1.0395                 1.0645                 1.0368
 Frc consts  --      5.5881                 5.7436                 5.5971
 IR Inten    --     23.3412                 8.2280                18.6859

                     79                     80                     81
                      A                      A                      A
 Frequencies --   3030.2672              3039.1193              3050.8479
 Red. masses --      1.0409                 1.0549                 1.0647
 Frc consts  --      5.6314                 5.7406                 5.8385
 IR Inten    --     18.2330                32.5418                24.7194

                     82                     83                     84
                      A                      A                      A
 Frequencies --   3052.0176              3066.2058              3070.2573
 Red. masses --      1.0915                 1.0949                 1.0963
 Frc consts  --      5.9903                 6.0650                 6.0886
 IR Inten    --     12.3041                 1.4104                23.7137

                     85                     86                     87
                      A                      A                      A
 Frequencies --   3082.3607              3092.0493              3098.1752
 Red. masses --      1.1065                 1.0998                 1.1004
 Frc consts  --      6.1941                 6.1950                 6.2230
 IR Inten    --     10.3460                12.1202                55.3007

                     88                     89                     90
                      A                      A                      A
 Frequencies --   3100.3544              3105.8625              3115.6615
 Red. masses --      1.1015                 1.1011                 1.0994
 Frc consts  --      6.2380                 6.2580                 6.2882
 IR Inten    --     37.8608                33.6386                24.0266

                     91                     92                     93
                      A                      A                      A
 Frequencies --   3121.3277              3139.7219              3218.5925
 Red. masses --      1.1002                 1.0611                 1.1144
 Frc consts  --      6.3156                 6.1631                 6.8019
 IR Inten    --     25.0424                 9.1988                18.4075

 - Thermochemistry -
 -------------------
 Temperature   298.150 Kelvin.  Pressure   1.00000 Atm.
 Atom     1 has atomic number  6 and mass  12.00000

 Molecular mass:   184.14633 amu.
 Principal axes and moments of inertia in atomic units:
                           1         2         3
     Eigenvalues --   686.640938535.765458738.26573
           X            1.00000   0.00261   0.00077
           Y           -0.00261   1.00000  -0.00109
           Z           -0.00077   0.00109   1.00000
 This molecule is an asymmetric top.
 Rotational symmetry number  1.
 Warning -- assumption of classical behavior for rotation
           may cause significant error
 Rotational temperatures (Kelvin)      0.12614     0.01015     0.00991
 Rotational constants (GHZ):           2.62836     0.21143     0.20653
 Zero-point vibrational energy     767354.0 (Joules/Mol)
                                  183.40202 (Kcal/Mol)
 Warning -- explicit consideration of  23 degrees of freedom as
           vibrations may cause significant error
 Vibrational temperatures:     17.84    44.92    58.90    73.68    91.87
          (Kelvin)            119.20   153.39   179.67   270.06   275.99
                              298.19   319.27   345.19   365.76   426.40
                              478.47   560.39   587.13   610.78   647.29
                              718.02   805.62   851.04  1008.63  1055.02
                             1071.80  1184.42  1210.51  1246.05  1311.74
                             1338.88  1339.25  1357.39  1378.87  1407.01
                             1422.55  1442.17  1466.98  1501.60  1527.07
                             1567.64  1580.45  1659.86  1675.00  1709.35
                             1721.87  1729.36  1831.34  1838.62  1843.56
                             1884.88  1904.40  1911.75  1959.24  1975.94
                             2004.15  2013.15  2028.33  2031.48  2055.84
                             2088.35  2099.23  2120.80  2137.38  2142.07
                             2144.76  2155.05  2161.44  2163.56  2169.35
                             2179.29  2478.28  2610.70  4308.12  4339.78
                             4345.97  4353.98  4355.13  4359.88  4372.61
                             4389.49  4391.17  4411.59  4417.42  4434.83
                             4448.77  4457.58  4460.72  4468.64  4482.74
                             4490.89  4517.36  4630.84

 Zero-point correction=                           0.292270 (Hartree/Particle)
 Thermal correction to Energy=                    0.308603
 Thermal correction to Enthalpy=                  0.309548
 Thermal correction to Gibbs Free Energy=         0.245465
 Sum of electronic and zero-point Energies=           -581.427661
 Sum of electronic and thermal Energies=              -581.411328
 Sum of electronic and thermal Enthalpies=            -581.410384
 Sum of electronic and thermal Free Energies=         -581.474466

                     E (Thermal)             CV                S
                      KCal/Mol        Cal/Mol-Kelvin    Cal/Mol-Kelvin
 Total                  193.652             57.759            134.872
 Electronic               0.000              0.000              0.000
 Translational            0.889              2.981             41.538
 Rotational               0.889              2.981             32.304
 Vibrational            191.874             51.798             61.030
 Vibration     1          0.593              1.987              7.583
 Vibration     2          0.594              1.983              5.750
 Vibration     3          0.594              1.981              5.213
 Vibration     4          0.595              1.977              4.770
 Vibration     5          0.597              1.972              4.334
 Vibration     6          0.600              1.961              3.822
 Vibration     7          0.605              1.944              3.330
 Vibration     8          0.610              1.928              3.023
 Vibration     9          0.632              1.857              2.250
 Vibration    10          0.634              1.851              2.210
 Vibration    11          0.641              1.830              2.068
 Vibration    12          0.648              1.808              1.944
 Vibration    13          0.657              1.779              1.803
 Vibration    14          0.665              1.756              1.701
 Vibration    15          0.690              1.681              1.437
 Vibration    16          0.714              1.610              1.248
 Vibration    17          0.757              1.493              1.002
 Vibration    18          0.773              1.453              0.933
 Vibration    19          0.787              1.417              0.877
 Vibration    20          0.809              1.361              0.796
 Vibration    21          0.854              1.252              0.660
 Vibration    22          0.916              1.118              0.524
 Vibration    23          0.949              1.050              0.465

                           ! Non-Optimized Parameters !
 Normal termination of Gaussian 16 at Tue May 23 12:43:27 2023.
