 Gaussian 16, Revision A.03,
 Gaussian 16:  ES64L-G16RevA.03 25-Dec-2016

 -----------------------------
 # opt freq b3lyp/6-31g(2df,p)
 -----------------------------

 -------------------
 Title Card Required
 -------------------
 Symbolic Z-matrix:
 Charge =  0 Multiplicity = 1

 SCF Done:  E(RB3LYP) =  -545.744931791     A.U. after   13 cycles
 SCF Done:  E(RB3LYP) =  -545.751755424     A.U. after   10 cycles
 SCF Done:  E(RB3LYP) =  -545.752767812     A.U. after   10 cycles
 SCF Done:  E(RB3LYP) =  -545.754330768     A.U. after   11 cycles
 SCF Done:  E(RB3LYP) =  -545.754929061     A.U. after   11 cycles
 SCF Done:  E(RB3LYP) =  -545.756117313     A.U. after   10 cycles
 SCF Done:  E(RB3LYP) =  -545.756973172     A.U. after   10 cycles
 SCF Done:  E(RB3LYP) =  -545.757693229     A.U. after   11 cycles
 SCF Done:  E(RB3LYP) =  -545.758042708     A.U. after   11 cycles
 SCF Done:  E(RB3LYP) =  -545.758280321     A.U. after   11 cycles
 SCF Done:  E(RB3LYP) =  -545.761035662     A.U. after   11 cycles
 SCF Done:  E(RB3LYP) =  -545.761495018     A.U. after   11 cycles
 SCF Done:  E(RB3LYP) =  -545.759817964     A.U. after   12 cycles
 SCF Done:  E(RB3LYP) =  -545.761690099     A.U. after   11 cycles
 SCF Done:  E(RB3LYP) =  -545.761791083     A.U. after   10 cycles
 SCF Done:  E(RB3LYP) =  -545.761808587     A.U. after    9 cycles
 SCF Done:  E(RB3LYP) =  -545.761809448     A.U. after    7 cycles
 SCF Done:  E(RB3LYP) =  -545.761809838     A.U. after    7 cycles
 SCF Done:  E(RB3LYP) =  -545.761809900     A.U. after    6 cycles
 Optimization completed.
    -- Stationary point found.
 Normal termination of Gaussian 16 at Mon May 22 10:39:46 2023.

 ----------------------------------------------------------------------
 #N Geom=AllCheck Guess=TCheck SCRF=Check GenChk RB3LYP/6-31G(2df,p) Fr
 eq
 ----------------------------------------------------------------------

 Structure from the checkpoint file:  "CdCqCrCqOrCCCCCCdCC.chk"
 -------------------
 Title Card Required
 -------------------
 Charge =  0 Multiplicity = 1

                         Standard orientation:
 ---------------------------------------------------------------------
 Center     Atomic      Atomic             Coordinates (Angstroms)
 Number     Number       Type             X           Y           Z
 ---------------------------------------------------------------------
      1          6           0        5.428268   -0.454108    0.374860
      2          6           0        4.413483    0.259508   -0.110013
      3          6           0        4.533434    1.741598   -0.365717
      4          6           0        3.083898   -0.389043   -0.471321
      5          8           0        3.068273   -1.788700   -0.225857
      6          6           0        1.878037    0.298640    0.199500
      7          6           0        0.531237   -0.296195   -0.224934
      8          6           0       -0.664971    0.352232    0.479449
      9          6           0       -2.012761   -0.237341    0.050848
     10          6           0       -3.214362    0.410204    0.762762
     11          6           0       -4.528690   -0.204127    0.374572
     12          6           0       -5.536878    0.433860   -0.216182
     13          6           0       -6.844323   -0.185472   -0.612812
     14          1           0        6.377994    0.009794    0.620687
     15          1           0        5.354190   -1.525522    0.515844
     16          1           0        5.567852    2.075355   -0.253857
     17          1           0        3.915610    2.329525    0.322831
     18          1           0        4.202020    1.997372   -1.380165
     19          1           0        2.956424   -0.303936   -1.561182
     20          1           0        3.152179   -1.912461    0.726868
     21          1           0        1.892732    1.369671   -0.032425
     22          1           0        1.997234    0.221047    1.290974
     23          1           0        0.539429   -1.374492   -0.031461
     24          1           0        0.417752   -0.185872   -1.312511
     25          1           0       -0.663602    1.434222    0.285148
     26          1           0       -0.550906    0.242672    1.567371
     27          1           0       -2.015578   -1.318488    0.245959
     28          1           0       -2.137218   -0.125649   -1.034037
     29          1           0       -3.231834    1.486505    0.550162
     30          1           0       -3.068195    0.311352    1.848893
     31          1           0       -4.637122   -1.267996    0.593118
     32          1           0       -5.426200    1.496355   -0.436114
     33          1           0       -6.877587   -1.249558   -0.360598
     34          1           0       -7.021720   -0.086722   -1.691286
     35          1           0       -7.687872    0.307896   -0.113439
 ---------------------------------------------------------------------

 SCF Done:  E(RB3LYP) =  -545.761809900     A.U. after    1 cycles

 The electronic state is 1-A.
 Alpha  occ. eigenvalues --  -19.13462 -10.23202 -10.18810 -10.18143 -10.18016
 Alpha  occ. eigenvalues --  -10.17802 -10.17584 -10.17583 -10.17540 -10.17526
 Alpha  occ. eigenvalues --  -10.17400 -10.17204 -10.16539  -1.01814  -0.81106
 Alpha  occ. eigenvalues --   -0.80179  -0.78383  -0.75260  -0.71151  -0.68278
 Alpha  occ. eigenvalues --   -0.66823  -0.62809  -0.58918  -0.57529  -0.54130
 Alpha  occ. eigenvalues --   -0.53626  -0.48231  -0.47436  -0.46094  -0.45478
 Alpha  occ. eigenvalues --   -0.44069  -0.43113  -0.42020  -0.40933  -0.40667
 Alpha  occ. eigenvalues --   -0.40050  -0.38849  -0.38621  -0.36853  -0.36515
 Alpha  occ. eigenvalues --   -0.35827  -0.35318  -0.33974  -0.33016  -0.32713
 Alpha  occ. eigenvalues --   -0.32030  -0.31512  -0.31210  -0.26837  -0.24507
 Alpha  occ. eigenvalues --   -0.23557
 Alpha virt. eigenvalues --    0.02479   0.03351   0.07753   0.09811   0.10017
 Alpha virt. eigenvalues --    0.11418   0.12095   0.12102   0.12864   0.13813
 Alpha virt. eigenvalues --    0.14371   0.14910   0.15506   0.16541   0.17135

 Mulliken charges:
               1
     1  C   -0.415319
     2  C    0.338848
     3  C   -0.477287
     4  C    0.036701
     5  O   -0.421594
     6  C   -0.215916
     7  C   -0.175735
     8  C   -0.183083
     9  C   -0.168929
    10  C   -0.241170
    11  C   -0.026235
    12  C   -0.032227
    13  C   -0.422717
    14  H    0.099735
    15  H    0.104317
    16  H    0.122673
    17  H    0.129926
    18  H    0.122579
    19  H    0.095336
    20  H    0.276685
    21  H    0.099184
    22  H    0.086731
    23  H    0.106399
    24  H    0.091712
    25  H    0.089699
    26  H    0.089235
    27  H    0.093287
    28  H    0.097677
    29  H    0.092615
    30  H    0.097631
    31  H    0.073111
    32  H    0.073878
    33  H    0.117302
    34  H    0.122572
    35  H    0.122379
 Sum of Mulliken charges =  -0.00000

 Dipole moment (field-independent basis, Debye):
    X=             -0.2703    Y=              1.1896    Z=              0.7866  Tot=              1.4515
 Quadrupole moment (field-independent basis, Debye-Ang):
   XX=            -83.8597   YY=            -83.0986   ZZ=            -82.3934
   XY=              4.1572   XZ=              4.1537   YZ=             -4.2696

  Exact polarizability: 190.903  -5.535 122.976  15.764  -7.206 105.276
 Approx polarizability: 213.851 -17.320 189.439  25.352 -15.869 168.484

                      1                      2                      3
                      A                      A                      A
 Frequencies --     24.3057                32.2748                45.4807
 Red. masses --      3.4358                 2.7951                 2.7340
 Frc consts  --      0.0012                 0.0017                 0.0033
 IR Inten    --      0.0326                 0.1789                 0.1569

                      4                      5                      6
                      A                      A                      A
 Frequencies --     61.0704                79.6177                98.5598
 Red. masses --      3.0183                 2.8576                 2.2947
 Frc consts  --      0.0066                 0.0107                 0.0131
 IR Inten    --      0.5497                 0.7853                 0.1321

                      7                      8                      9
                      A                      A                      A
 Frequencies --    115.2860               141.5566               155.9623
 Red. masses --      1.9455                 2.2838                 1.7266
 Frc consts  --      0.0152                 0.0270                 0.0247
 IR Inten    --      0.0227                 0.3990                 0.0923

                     10                     11                     12
                      A                      A                      A
 Frequencies --    181.2856               200.3992               211.6084
 Red. masses --      2.2309                 1.9898                 1.9171
 Frc consts  --      0.0432                 0.0471                 0.0506
 IR Inten    --      0.4200                 0.3357                 0.2277

                     13                     14                     15
                      A                      A                      A
 Frequencies --    219.3014               284.8030               306.2709
 Red. masses --      1.3699                 2.2541                 2.8927
 Frc consts  --      0.0388                 0.1077                 0.1599
 IR Inten    --      0.9790                 0.9772                11.7112

                     16                     17                     18
                      A                      A                      A
 Frequencies --    327.2761               348.4864               374.5320
 Red. masses --      1.3285                 2.0395                 3.6186
 Frc consts  --      0.0838                 0.1459                 0.2991
 IR Inten    --     74.2181                34.2058                10.1227

                     19                     20                     21
                      A                      A                      A
 Frequencies --    389.7305               445.4655               479.9163
 Red. masses --      2.9596                 2.9399                 2.7094
 Frc consts  --      0.2649                 0.3437                 0.3677
 IR Inten    --      0.5834                 4.9933                 2.5791

                     22                     23                     24
                      A                      A                      A
 Frequencies --    523.0028               544.5615               581.0235
 Red. masses --      2.8935                 2.5825                 2.2692
 Frc consts  --      0.4663                 0.4512                 0.4513
 IR Inten    --     16.7119                 6.8985                 2.5418

                     25                     26                     27
                      A                      A                      A
 Frequencies --    732.7808               736.5481               754.8106
 Red. masses --      1.0878                 1.1543                 1.1987
 Frc consts  --      0.3441                 0.3689                 0.4024
 IR Inten    --      3.2203                 2.5905                 0.7193

                     28                     29                     30
                      A                      A                      A
 Frequencies --    786.2228               827.8919               858.6233
 Red. masses --      1.4270                 1.6317                 2.1329
 Frc consts  --      0.5197                 0.6589                 0.9264
 IR Inten    --      0.0233                 0.7521                 4.2205

                     31                     32                     33
                      A                      A                      A
 Frequencies --    905.8747               928.2881               937.9999
 Red. masses --      1.9110                 1.6804                 1.3977
 Frc consts  --      0.9240                 0.8532                 0.7245
 IR Inten    --      2.2151                17.1597                19.6718

                     34                     35                     36
                      A                      A                      A
 Frequencies --    962.7714               989.6570              1011.3981
 Red. masses --      1.6351                 2.3872                 2.5139
 Frc consts  --      0.8930                 1.3775                 1.5151
 IR Inten    --      4.4015                 8.4247                 2.0340

                     37                     38                     39
                      A                      A                      A
 Frequencies --   1013.5294              1017.3126              1027.5407
 Red. masses --      1.6051                 1.0910                 2.3478
 Frc consts  --      0.9715                 0.6652                 1.4605
 IR Inten    --      5.0023                20.6960                 2.5437

                     40                     41                     42
                      A                      A                      A
 Frequencies --   1057.6674              1064.8582              1067.9280
 Red. masses --      1.6931                 2.0959                 1.6664
 Frc consts  --      1.1159                 1.4002                 1.1197
 IR Inten    --      2.5008                 0.1862                 3.3128

                     43                     44                     45
                      A                      A                      A
 Frequencies --   1069.6700              1083.5282              1090.2086
 Red. masses --      1.6074                 2.4346                 2.7348
 Frc consts  --      1.0836                 1.6841                 1.9151
 IR Inten    --      4.6713                23.9098                 3.3606

                     46                     47                     48
                      A                      A                      A
 Frequencies --   1116.4363              1119.8299              1181.4183
 Red. masses --      2.4165                 1.7726                 1.8993
 Frc consts  --      1.7746                 1.3097                 1.5619
 IR Inten    --      8.3086                43.9694                 0.0337

                     49                     50                     51
                      A                      A                      A
 Frequencies --   1228.0465              1243.8109              1256.7515
 Red. masses --      1.2352                 1.4798                 1.5989
 Frc consts  --      1.0975                 1.3488                 1.4879
 IR Inten    --      4.8407                 7.9630                 6.7108

                     52                     53                     54
                      A                      A                      A
 Frequencies --   1277.3643              1296.7867              1318.3439
 Red. masses --      1.3385                 1.5085                 1.3464
 Frc consts  --      1.2867                 1.4947                 1.3787
 IR Inten    --      3.5629                 4.0240                 6.2761

                     55                     56                     57
                      A                      A                      A
 Frequencies --   1320.6305              1325.4477              1337.6208
 Red. masses --      1.2580                 1.0785                 1.2548
 Frc consts  --      1.2926                 1.1164                 1.3228
 IR Inten    --      1.8856                 0.1636                 0.0484

                     58                     59                     60
                      A                      A                      A
 Frequencies --   1344.9492              1346.0280              1369.6895
 Red. masses --      1.2387                 1.2664                 1.4402
 Frc consts  --      1.3202                 1.3518                 1.5919
 IR Inten    --      1.0681                 0.3666                 3.1427

                     61                     62                     63
                      A                      A                      A
 Frequencies --   1390.0082              1397.7473              1410.2732
 Red. masses --      1.5186                 1.6163                 1.2405
 Frc consts  --      1.7287                 1.8605                 1.4537
 IR Inten    --      0.5749                 0.2344                 1.7313

                     64                     65                     66
                      A                      A                      A
 Frequencies --   1412.3608              1416.9743              1441.4666
 Red. masses --      1.2640                 1.2251                 1.1892
 Frc consts  --      1.4855                 1.4493                 1.4559
 IR Inten    --      2.4661                35.9129                 2.6352

                     67                     68                     69
                      A                      A                      A
 Frequencies --   1476.6053              1478.7712              1480.2073
 Red. masses --      1.0816                 1.0785                 1.0456
 Frc consts  --      1.3894                 1.3896                 1.3497
 IR Inten    --      1.6447                 4.4181                 3.5810

                     70                     71                     72
                      A                      A                      A
 Frequencies --   1484.3688              1486.0621              1493.0334
 Red. masses --      1.0763                 1.0555                 1.0528
 Frc consts  --      1.3972                 1.3734                 1.3827
 IR Inten    --      0.2581                 3.5250                 6.2398

                     73                     74                     75
                      A                      A                      A
 Frequencies --   1494.0751              1498.4736              1512.9006
 Red. masses --      1.0547                 1.0978                 1.0990
 Frc consts  --      1.3872                 1.4523                 1.4821
 IR Inten    --     12.4903                 0.5684                 2.3884

                     76                     77                     78
                      A                      A                      A
 Frequencies --   1717.7495              1746.9598              2990.8382
 Red. masses --      5.5543                 6.1370                 1.0731
 Frc consts  --      9.6560                11.0351                 5.6555
 IR Inten    --     12.2973                 0.4467                 0.9389

                     79                     80                     81
                      A                      A                      A
 Frequencies --   2992.8918              2999.1342              3002.7492
 Red. masses --      1.0640                 1.0595                 1.0740
 Frc consts  --      5.6151                 5.6151                 5.7057
 IR Inten    --     16.1734                10.6747                21.6477

                     82                     83                     84
                      A                      A                      A
 Frequencies --   3011.4720              3015.9523              3018.6140
 Red. masses --      1.0660                 1.0374                 1.0680
 Frc consts  --      5.6962                 5.5596                 5.7335
 IR Inten    --      3.8249                37.7067                90.4415

                     85                     86                     87
                      A                      A                      A
 Frequencies --   3022.1740              3026.1545              3040.5304
 Red. masses --      1.0393                 1.0928                 1.0929
 Frc consts  --      5.5930                 5.8960                 5.9531
 IR Inten    --     20.8236                 9.3818                12.5648

                     88                     89                     90
                      A                      A                      A
 Frequencies --   3056.4369              3061.7420              3062.9661
 Red. masses --      1.0917                 1.0987                 1.1019
 Frc consts  --      6.0090                 6.0685                 6.0909
 IR Inten    --     20.7016                23.0502                20.0323

                     91                     92                     93
                      A                      A                      A
 Frequencies --   3072.2402              3081.2871              3100.4336
 Red. masses --      1.0977                 1.0987                 1.0965
 Frc consts  --      6.1043                 6.1462                 6.2104
 IR Inten    --     28.9068                73.5218                 6.5622

                     94                     95                     96
                      A                      A                      A
 Frequencies --   3112.3706              3115.3099              3125.1016
 Red. masses --      1.0893                 1.0992                 1.0890
 Frc consts  --      6.2173                 6.2854                 6.2663
 IR Inten    --     13.9500                23.9313                52.9619

                     97                     98                     99
                      A                      A                      A
 Frequencies --   3153.4446              3237.9639              3789.6062
 Red. masses --      1.0614                 1.1131                 1.0656
 Frc consts  --      6.2184                 6.8760                 9.0161
 IR Inten    --      9.6034                 9.0976                12.0725

 - Thermochemistry -
 -------------------
 Temperature   298.150 Kelvin.  Pressure   1.00000 Atm.
 Atom     1 has atomic number  6 and mass  12.00000

 Molecular mass:   182.16707 amu.
 Principal axes and moments of inertia in atomic units:
                           1         2         3
     Eigenvalues --   650.83477********************
           X            0.99998   0.00610   0.00278
           Y           -0.00603   0.99963  -0.02661
           Z           -0.00294   0.02660   0.99964
 This molecule is an asymmetric top.
 Rotational symmetry number  1.
 Warning -- assumption of classical behavior for rotation
           may cause significant error
 Rotational temperatures (Kelvin)      0.13308     0.00824     0.00799
 Rotational constants (GHZ):           2.77296     0.17179     0.16652
 Zero-point vibrational energy     829056.9 (Joules/Mol)
                                  198.14936 (Kcal/Mol)
 Warning -- explicit consideration of  24 degrees of freedom as
           vibrations may cause significant error
 Vibrational temperatures:     34.97    46.44    65.44    87.87   114.55
          (Kelvin)            141.81   165.87   203.67   224.39   260.83
                              288.33   304.46   315.53   409.77   440.66
                              470.88   501.39   538.87   560.74   640.93
                              690.49   752.48   783.50   835.96  1054.31
                             1059.73  1086.00  1131.20  1191.15  1235.37
                             1303.35  1335.60  1349.57  1385.21  1423.90
                             1455.18  1458.24  1463.69  1478.40  1521.75
                             1532.09  1536.51  1539.02  1558.96  1568.57
                             1606.30  1611.19  1699.80  1766.89  1789.57
                             1808.19  1837.84  1865.79  1896.80  1900.09
                             1907.02  1924.54  1935.08  1936.63  1970.68
                             1999.91  2011.05  2029.07  2032.07  2038.71
                             2073.95  2124.51  2127.62  2129.69  2135.68
                             2138.11  2148.14  2149.64  2155.97  2176.73
                             2471.46  2513.49  4303.15  4306.10  4315.09
                             4320.29  4332.84  4339.28  4343.11  4348.23
                             4353.96  4374.65  4397.53  4405.16  4406.93
                             4420.27  4433.28  4460.83  4478.01  4482.24
                             4496.32  4537.10  4658.71  5452.40

 Zero-point correction=                           0.315771 (Hartree/Particle)
 Thermal correction to Energy=                    0.332423
 Thermal correction to Enthalpy=                  0.333367
 Thermal correction to Gibbs Free Energy=         0.269751
 Sum of electronic and zero-point Energies=           -545.446039
 Sum of electronic and thermal Energies=              -545.429387
 Sum of electronic and thermal Enthalpies=            -545.428443
 Sum of electronic and thermal Free Energies=         -545.492059

                     E (Thermal)             CV                S
                      KCal/Mol        Cal/Mol-Kelvin    Cal/Mol-Kelvin
 Total                  208.598             60.006            133.890
 Electronic               0.000              0.000              0.000
 Translational            0.889              2.981             41.506
 Rotational               0.889              2.981             32.672
 Vibrational            206.821             54.044             59.713
 Vibration     1          0.593              1.985              6.247
 Vibration     2          0.594              1.983              5.684
 Vibration     3          0.595              1.979              5.005
 Vibration     4          0.597              1.973              4.422
 Vibration     5          0.600              1.963              3.900
 Vibration     6          0.604              1.950              3.483
 Vibration     7          0.608              1.937              3.178
 Vibration     8          0.615              1.912              2.783
 Vibration     9          0.620              1.896              2.598
 Vibration    10          0.630              1.865              2.315
 Vibration    11          0.638              1.839              2.129
 Vibration    12          0.643              1.823              2.030
 Vibration    13          0.647              1.812              1.965
 Vibration    14          0.683              1.702              1.505
 Vibration    15          0.697              1.662              1.382
 Vibration    16          0.711              1.621              1.273
 Vibration    17          0.726              1.578              1.173
 Vibration    18          0.746              1.524              1.061
 Vibration    19          0.758              1.492              1.001
 Vibration    20          0.805              1.371              0.810
 Vibration    21          0.836              1.295              0.710
 Vibration    22          0.878              1.199              0.603
 Vibration    23          0.900              1.152              0.556
 Vibration    24          0.938              1.072              0.483

 Optimization completed.
    -- Stationary point found.
 Normal termination of Gaussian 16 at Mon May 22 12:07:57 2023.
