 Gaussian 16, Revision A.03,
 Gaussian 16:  ES64L-G16RevA.03 25-Dec-2016

 -----------------------------
 # opt freq b3lyp/6-31g(2df,p)
 -----------------------------

 -------------------
 Title Card Required
 -------------------
 Symbolic Z-matrix:
 Charge =  0 Multiplicity = 1

 SCF Done:  E(RB3LYP) =  -582.861024606     A.U. after   13 cycles
 SCF Done:  E(RB3LYP) =  -582.867358987     A.U. after   11 cycles
 SCF Done:  E(RB3LYP) =  -582.871556551     A.U. after   10 cycles
 SCF Done:  E(RB3LYP) =  -582.874504509     A.U. after   11 cycles
 SCF Done:  E(RB3LYP) =  -582.878153491     A.U. after   13 cycles
 SCF Done:  E(RB3LYP) =  -582.879156623     A.U. after   10 cycles
 SCF Done:  E(RB3LYP) =  -582.879533905     A.U. after   10 cycles
 SCF Done:  E(RB3LYP) =  -582.879639356     A.U. after   10 cycles
 SCF Done:  E(RB3LYP) =  -582.879719229     A.U. after    9 cycles
 SCF Done:  E(RB3LYP) =  -582.879796175     A.U. after   10 cycles
 SCF Done:  E(RB3LYP) =  -582.880193691     A.U. after    9 cycles
 SCF Done:  E(RB3LYP) =  -582.880210307     A.U. after    9 cycles
 SCF Done:  E(RB3LYP) =  -582.880194973     A.U. after    9 cycles
 SCF Done:  E(RB3LYP) =  -582.880213036     A.U. after    9 cycles
 SCF Done:  E(RB3LYP) =  -582.880211463     A.U. after    8 cycles
 SCF Done:  E(RB3LYP) =  -582.880213520     A.U. after    8 cycles
 SCF Done:  E(RB3LYP) =  -582.880213592     A.U. after    7 cycles
 SCF Done:  E(RB3LYP) =  -582.880213671     A.U. after    7 cycles
 SCF Done:  E(RB3LYP) =  -582.880213672     A.U. after    5 cycles
 Optimization completed.
    -- Stationary point found.
 Normal termination of Gaussian 16 at Tue May 23 11:09:41 2023.

 ----------------------------------------------------------------------
 #N Geom=AllCheck Guess=TCheck SCRF=Check GenChk RB3LYP/6-31G(2df,p) Fr
 eq
 ----------------------------------------------------------------------

 Structure from the checkpoint file:  "CdCqCCCqCCrCOrCqCrCO.chk"
 -------------------
 Title Card Required
 -------------------
 Charge =  0 Multiplicity = 1

                         Standard orientation:
 ---------------------------------------------------------------------
 Center     Atomic      Atomic             Coordinates (Angstroms)
 Number     Number       Type             X           Y           Z
 ---------------------------------------------------------------------
      1          6           0        1.472905    2.165802    0.935404
      2          6           0        1.499353    0.897943    0.521913
      3          6           0        0.247238    0.106028    0.194523
      4          6           0       -1.068947    0.889192    0.202141
      5          6           0       -2.312658    0.095504   -0.242756
      6          6           0       -2.657218   -1.115630    0.656181
      7          6           0       -2.089440   -2.460326    0.185229
      8          6           0       -3.506921    1.063350   -0.323216
      9          8           0       -4.700767    0.460097   -0.798421
     10          6           0        2.831265    0.180663    0.348265
     11          6           0        2.917791   -1.164359    1.087602
     12          6           0        3.178160    0.007038   -1.147366
     13          8           0        4.465794   -0.553417   -1.354030
     14          1           0        0.553152    2.725441    1.056013
     15          1           0        2.388637    2.696830    1.176821
     16          1           0        0.177872   -0.727492    0.904419
     17          1           0        0.372689   -0.370835   -0.787929
     18          1           0       -0.960340    1.764763   -0.451026
     19          1           0       -1.250236    1.282678    1.211502
     20          1           0       -2.133321   -0.273467   -1.266457
     21          1           0       -3.747811   -1.204123    0.692963
     22          1           0       -2.326797   -0.909348    1.682975
     23          1           0       -2.462280   -2.710025   -0.814652
     24          1           0       -2.391060   -3.268779    0.859173
     25          1           0       -0.996707   -2.462885    0.135700
     26          1           0       -3.236208    1.936481   -0.937642
     27          1           0       -3.749102    1.436524    0.679214
     28          1           0       -4.538837    0.159351   -1.698542
     29          1           0        3.603137    0.843093    0.766045
     30          1           0        2.182789   -1.881443    0.707564
     31          1           0        2.745450   -1.038021    2.160713
     32          1           0        3.907082   -1.603502    0.939342
     33          1           0        3.076181    0.975987   -1.658735
     34          1           0        2.481177   -0.691008   -1.623431
     35          1           0        5.115146    0.075100   -1.021939
 ---------------------------------------------------------------------

 SCF Done:  E(RB3LYP) =  -582.880213672     A.U. after    1 cycles

 The electronic state is 1-A.
 Alpha  occ. eigenvalues --  -19.13608 -19.13460 -10.22503 -10.22223 -10.19070
 Alpha  occ. eigenvalues --  -10.18940 -10.18617 -10.18518 -10.18196 -10.17402
 Alpha  occ. eigenvalues --  -10.17171 -10.17110 -10.16788  -1.01638  -1.01490
 Alpha  occ. eigenvalues --   -0.82930  -0.80345  -0.75427  -0.72780  -0.70259
 Alpha  occ. eigenvalues --   -0.67522  -0.63925  -0.62110  -0.59938  -0.56766
 Alpha  occ. eigenvalues --   -0.52140  -0.49463  -0.49087  -0.47621  -0.46467
 Alpha  occ. eigenvalues --   -0.46020  -0.44535  -0.43512  -0.41964  -0.41763
 Alpha  occ. eigenvalues --   -0.40713  -0.39721  -0.37932  -0.37539  -0.36397
 Alpha  occ. eigenvalues --   -0.36258  -0.36066  -0.34927  -0.33656  -0.33090
 Alpha  occ. eigenvalues --   -0.32145  -0.32106  -0.31130  -0.30093  -0.27193
 Alpha  occ. eigenvalues --   -0.26402  -0.24348
 Alpha virt. eigenvalues --    0.02201   0.07185   0.07378   0.08321   0.09764
 Alpha virt. eigenvalues --    0.10900   0.11798   0.12092   0.13735   0.14337
 Alpha virt. eigenvalues --    0.14995   0.15110   0.16067   0.16460   0.16791

 Mulliken charges:
               1
     1  C   -0.423304
     2  C    0.353618
     3  C   -0.298861
     4  C   -0.203543
     5  C   -0.007462
     6  C   -0.174762
     7  C   -0.386791
     8  C   -0.076797
     9  O   -0.417847
    10  C   -0.087437
    11  C   -0.395568
    12  C   -0.061518
    13  O   -0.416807
    14  H    0.106330
    15  H    0.094220
    16  H    0.122785
    17  H    0.105399
    18  H    0.097286
    19  H    0.102879
    20  H    0.055331
    21  H    0.115873
    22  H    0.089257
    23  H    0.110450
    24  H    0.112630
    25  H    0.115456
    26  H    0.083987
    27  H    0.108971
    28  H    0.279689
    29  H    0.061952
    30  H    0.116120
    31  H    0.112610
    32  H    0.125386
    33  H    0.090517
    34  H    0.108388
    35  H    0.281565
 Sum of Mulliken charges =  -0.00000

 Dipole moment (field-independent basis, Debye):
    X=              0.9255    Y=              0.8555    Z=             -0.2380  Tot=              1.2826
 Quadrupole moment (field-independent basis, Debye-Ang):
   XX=            -91.0538   YY=            -84.0216   ZZ=            -81.8052
   XY=              6.9744   XZ=              6.6147   YZ=             -1.2187

  Exact polarizability: 146.038   0.280 132.305   2.077   4.812 106.690
 Approx polarizability: 179.318   1.238 195.218   1.148  13.360 165.775

                      1                      2                      3
                      A                      A                      A
 Frequencies --     19.3790                38.3633                63.9342
 Red. masses --      3.4628                 3.2959                 3.3332
 Frc consts  --      0.0008                 0.0029                 0.0080
 IR Inten    --      0.8170                 0.1721                 1.4568

                      4                      5                      6
                      A                      A                      A
 Frequencies --     73.1491                93.5804               103.7762
 Red. masses --      2.4373                 2.9831                 2.3341
 Frc consts  --      0.0077                 0.0154                 0.0148
 IR Inten    --      0.0841                 1.0260                 0.3825

                      7                      8                      9
                      A                      A                      A
 Frequencies --    112.7759               150.9101               182.5732
 Red. masses --      2.8420                 1.9783                 3.2143
 Frc consts  --      0.0213                 0.0265                 0.0631
 IR Inten    --      1.9677                 2.3315                 0.7592

                     10                     11                     12
                      A                      A                      A
 Frequencies --    205.2008               210.2213               232.2769
 Red. masses --      1.7124                 2.2650                 1.3214
 Frc consts  --      0.0425                 0.0590                 0.0420
 IR Inten    --      0.9170                 1.1692                 0.9081

                     13                     14                     15
                      A                      A                      A
 Frequencies --    242.3879               283.8284               286.7647
 Red. masses --      1.7319                 2.5289                 2.8090
 Frc consts  --      0.0599                 0.1200                 0.1361
 IR Inten    --      2.7382                 3.3524                11.5957

                     16                     17                     18
                      A                      A                      A
 Frequencies --    302.3982               317.4908               334.0029
 Red. masses --      1.2553                 1.4149                 1.7898
 Frc consts  --      0.0676                 0.0840                 0.1176
 IR Inten    --     63.5483                76.7442                33.4540

                     19                     20                     21
                      A                      A                      A
 Frequencies --    380.8443               398.2104               467.4969
 Red. masses --      2.2900                 2.8032                 2.6845
 Frc consts  --      0.1957                 0.2619                 0.3457
 IR Inten    --     38.1429                 6.0058                 3.1384

                     22                     23                     24
                      A                      A                      A
 Frequencies --    509.5700               529.0451               541.9848
 Red. masses --      2.5021                 2.9488                 2.2381
 Frc consts  --      0.3828                 0.4863                 0.3874
 IR Inten    --     10.6067                 8.3896                 3.9727

                     25                     26                     27
                      A                      A                      A
 Frequencies --    594.3247               727.7748               766.7286
 Red. masses --      2.7706                 1.1915                 1.3613
 Frc consts  --      0.5766                 0.3718                 0.4715
 IR Inten    --      1.2596                 1.2625                 4.2209

                     28                     29                     30
                      A                      A                      A
 Frequencies --    774.9964               808.0740               828.3916
 Red. masses --      1.4252                 2.3923                 1.6640
 Frc consts  --      0.5043                 0.9204                 0.6728
 IR Inten    --      0.4567                 0.0029                 2.2772

                     31                     32                     33
                      A                      A                      A
 Frequencies --    897.7983               908.5670               930.1844
 Red. masses --      2.3482                 1.3314                 1.3471
 Frc consts  --      1.1152                 0.6475                 0.6868
 IR Inten    --      5.5666                 3.9349                30.9808

                     34                     35                     36
                      A                      A                      A
 Frequencies --    948.3164               959.4093               981.7656
 Red. masses --      2.0548                 1.6178                 2.0122
 Frc consts  --      1.0887                 0.8774                 1.1427
 IR Inten    --      4.9868                 9.0352                20.9758

                     37                     38                     39
                      A                      A                      A
 Frequencies --   1009.8412              1021.9236              1039.2209
 Red. masses --      1.5177                 2.4457                 1.5537
 Frc consts  --      0.9119                 1.5049                 0.9886
 IR Inten    --      0.5805                 3.0881                 1.1655

                     40                     41                     42
                      A                      A                      A
 Frequencies --   1060.0136              1064.6081              1082.8812
 Red. masses --      2.9194                 3.0994                 2.6871
 Frc consts  --      1.9327                 2.0697                 1.8565
 IR Inten    --     49.9527               135.2838                32.6254

                     43                     44                     45
                      A                      A                      A
 Frequencies --   1104.8421              1111.2931              1120.7868
 Red. masses --      2.8398                 1.9354                 1.6604
 Frc consts  --      2.0424                 1.4082                 1.2288
 IR Inten    --     17.0325                 1.6646                 4.8683

                     46                     47                     48
                      A                      A                      A
 Frequencies --   1141.1058              1143.7870              1189.7293
 Red. masses --      2.0314                 1.7036                 1.4207
 Frc consts  --      1.5585                 1.3132                 1.1849
 IR Inten    --      1.5195                 1.0596                 8.3259

                     49                     50                     51
                      A                      A                      A
 Frequencies --   1224.4591              1235.0434              1247.6542
 Red. masses --      1.5706                 1.3928                 1.7666
 Frc consts  --      1.3874                 1.2517                 1.6202
 IR Inten    --     13.2251                 9.1533                 4.7500

                     52                     53                     54
                      A                      A                      A
 Frequencies --   1289.7166              1308.5580              1313.8713
 Red. masses --      1.3055                 1.2553                 1.1724
 Frc consts  --      1.2794                 1.2664                 1.1924
 IR Inten    --      0.3635                 5.2682                 3.4871

                     55                     56                     57
                      A                      A                      A
 Frequencies --   1327.3493              1345.7208              1357.1603
 Red. masses --      1.1432                 1.3192                 1.3134
 Frc consts  --      1.1867                 1.4075                 1.4253
 IR Inten    --      0.3700                 3.4779                 1.9925

                     58                     59                     60
                      A                      A                      A
 Frequencies --   1358.9339              1383.5745              1389.4592
 Red. masses --      1.3152                 1.2867                 1.4878
 Frc consts  --      1.4310                 1.4512                 1.6923
 IR Inten    --      0.3747                 0.8031                 2.3663

                     61                     62                     63
                      A                      A                      A
 Frequencies --   1396.5373              1402.9164              1406.2196
 Red. masses --      1.3421                 1.2438                 1.4519
 Frc consts  --      1.5422                 1.4424                 1.6915
 IR Inten    --      5.8149                12.0313                10.9317

                     64                     65                     66
                      A                      A                      A
 Frequencies --   1413.8367              1419.8471              1422.9166
 Red. masses --      1.2309                 1.2437                 1.2652
 Frc consts  --      1.4497                 1.4773                 1.5093
 IR Inten    --      4.4705                52.5449                15.6462

                     67                     68                     69
                      A                      A                      A
 Frequencies --   1459.1882              1474.8085              1488.5940
 Red. masses --      1.1750                 1.0798                 1.0729
 Frc consts  --      1.4740                 1.3837                 1.4007
 IR Inten    --      2.2769                 4.6611                 4.3369

                     70                     71                     72
                      A                      A                      A
 Frequencies --   1492.8160              1496.2683              1500.9103
 Red. masses --      1.0578                 1.0762                 1.0449
 Frc consts  --      1.3888                 1.4196                 1.3869
 IR Inten    --      5.8393                 0.4999                 2.4792

                     73                     74                     75
                      A                      A                      A
 Frequencies --   1505.5319              1506.3147              1507.3129
 Red. masses --      1.0661                 1.0724                 1.0757
 Frc consts  --      1.4237                 1.4337                 1.4400
 IR Inten    --      3.2836                 1.6108                 2.7198

                     76                     77                     78
                      A                      A                      A
 Frequencies --   1508.0136              1709.0791              2962.4559
 Red. masses --      1.0747                 5.1504                 1.0810
 Frc consts  --      1.4399                 8.8638                 5.5896
 IR Inten    --      2.1287                18.3266                20.3596

                     79                     80                     81
                      A                      A                      A
 Frequencies --   2978.1326              2989.6350              2995.9738
 Red. masses --      1.0678                 1.0723                 1.0772
 Frc consts  --      5.5801                 5.6467                 5.6969
 IR Inten    --     52.0693                49.7856                25.1307

                     82                     83                     84
                      A                      A                      A
 Frequencies --   3005.7919              3013.4258              3019.5236
 Red. masses --      1.0618                 1.0627                 1.0660
 Frc consts  --      5.6522                 5.6857                 5.7263
 IR Inten    --      4.5275                32.2400                25.3192

                     85                     86                     87
                      A                      A                      A
 Frequencies --   3032.5043              3035.8305              3040.7301
 Red. masses --      1.0425                 1.0738                 1.0493
 Frc consts  --      5.6482                 5.8310                 5.7161
 IR Inten    --     26.0353                 5.1521                13.6764

                     88                     89                     90
                      A                      A                      A
 Frequencies --   3055.3752              3062.1469              3070.8328
 Red. masses --      1.0959                 1.0984                 1.0950
 Frc consts  --      6.0276                 6.0684                 6.0838
 IR Inten    --     15.3700                77.5867                 4.4394

                     91                     92                     93
                      A                      A                      A
 Frequencies --   3073.5295              3095.0622              3105.6893
 Red. masses --      1.0956                 1.1010                 1.1010
 Frc consts  --      6.0977                 6.2140                 6.2569
 IR Inten    --     34.5831                38.1983                35.1487

                     94                     95                     96
                      A                      A                      A
 Frequencies --   3110.7790              3125.2036              3149.2713
 Red. masses --      1.0998                 1.1005                 1.0626
 Frc consts  --      6.2705                 6.3330                 6.2091
 IR Inten    --     44.8100                17.8809                 8.8229

                     97                     98                     99
                      A                      A                      A
 Frequencies --   3230.1524              3810.6596              3810.8563
 Red. masses --      1.1119                 1.0661                 1.0660
 Frc consts  --      6.8351                 9.1208                 9.1216
 IR Inten    --     16.9311                20.2349                13.3384

 - Thermochemistry -
 -------------------
 Temperature   298.150 Kelvin.  Pressure   1.00000 Atm.
 Atom     1 has atomic number  6 and mass  12.00000

 Molecular mass:   186.16198 amu.
 Principal axes and moments of inertia in atomic units:
                           1         2         3
     Eigenvalues --  1380.381446089.538096594.42767
           X            0.99998   0.00584   0.00391
           Y           -0.00576   0.99981  -0.01855
           Z           -0.00402   0.01852   0.99982
 This molecule is an asymmetric top.
 Rotational symmetry number  1.
 Warning -- assumption of classical behavior for rotation
           may cause significant error
 Rotational temperatures (Kelvin)      0.06275     0.01422     0.01313
 Rotational constants (GHZ):           1.30742     0.29637     0.27368
 Zero-point vibrational energy     831181.5 (Joules/Mol)
                                  198.65716 (Kcal/Mol)
 Warning -- explicit consideration of  25 degrees of freedom as
           vibrations may cause significant error
 Vibrational temperatures:     27.88    55.20    91.99   105.25   134.64
          (Kelvin)            149.31   162.26   217.13   262.68   295.24
                              302.46   334.19   348.74   408.37   412.59
                              435.08   456.80   480.56   547.95   572.94
                              672.62   733.16   761.18   779.80   855.10
                             1047.11  1103.15  1115.05  1162.64  1191.87
                             1291.73  1307.23  1338.33  1364.42  1380.38
                             1412.54  1452.94  1470.32  1495.21  1525.12
                             1531.73  1558.02  1589.62  1598.90  1612.56
                             1641.80  1645.65  1711.76  1761.72  1776.95
                             1795.10  1855.61  1882.72  1890.37  1909.76
                             1936.19  1952.65  1955.20  1990.66  1999.12
                             2009.31  2018.48  2023.24  2034.20  2042.84
                             2047.26  2099.45  2121.92  2141.75  2147.83
                             2152.80  2159.48  2166.12  2167.25  2168.69
                             2169.70  2458.98  4262.31  4284.87  4301.42
                             4310.54  4324.66  4335.65  4344.42  4363.10
                             4367.88  4374.93  4396.00  4405.75  4418.24
                             4422.12  4453.10  4468.39  4475.72  4496.47
                             4531.10  4647.47  5482.69  5482.97

 Zero-point correction=                           0.316580 (Hartree/Particle)
 Thermal correction to Energy=                    0.333275
 Thermal correction to Enthalpy=                  0.334219
 Thermal correction to Gibbs Free Energy=         0.271279
 Sum of electronic and zero-point Energies=           -582.563633
 Sum of electronic and thermal Energies=              -582.546938
 Sum of electronic and thermal Enthalpies=            -582.545994
 Sum of electronic and thermal Free Energies=         -582.608934

                     E (Thermal)             CV                S
                      KCal/Mol        Cal/Mol-Kelvin    Cal/Mol-Kelvin
 Total                  209.133             60.691            132.469
 Electronic               0.000              0.000              0.000
 Translational            0.889              2.981             41.570
 Rotational               0.889              2.981             32.383
 Vibrational            207.356             54.729             58.515
 Vibration     1          0.593              1.986              6.697
 Vibration     2          0.594              1.982              5.342
 Vibration     3          0.597              1.972              4.332
 Vibration     4          0.599              1.967              4.067
 Vibration     5          0.603              1.954              3.584
 Vibration     6          0.605              1.946              3.382
 Vibration     7          0.607              1.939              3.221
 Vibration     8          0.618              1.902              2.661
 Vibration     9          0.630              1.863              2.302
 Vibration    10          0.640              1.832              2.086
 Vibration    11          0.642              1.825              2.042
 Vibration    12          0.653              1.792              1.861
 Vibration    13          0.659              1.775              1.785
 Vibration    14          0.682              1.704              1.510
 Vibration    15          0.684              1.698              1.493
 Vibration    16          0.694              1.669              1.404
 Vibration    17          0.704              1.640              1.323
 Vibration    18          0.716              1.608              1.241
 Vibration    19          0.751              1.511              1.036
 Vibration    20          0.764              1.474              0.969
 Vibration    21          0.825              1.322              0.745
 Vibration    22          0.865              1.229              0.635
 Vibration    23          0.884              1.186              0.589
 Vibration    24          0.897              1.157              0.561
 Vibration    25          0.952              1.044              0.460

 Optimization completed.
    -- Stationary point found.
 Normal termination of Gaussian 16 at Tue May 23 12:57:15 2023.
