 Gaussian 16, Revision A.03,
 Gaussian 16:  ES64L-G16RevA.03 25-Dec-2016

 -----------------------------
 # opt freq b3lyp/6-31g(2df,p)
 -----------------------------

 -------------------
 Title Card Required
 -------------------
 Symbolic Z-matrix:
 Charge =  0 Multiplicity = 1

 SCF Done:  E(RB3LYP) =  -541.117375600     A.U. after   13 cycles
 SCF Done:  E(RB3LYP) =  -541.122865756     A.U. after   11 cycles
 SCF Done:  E(RB3LYP) =  -541.124045397     A.U. after   11 cycles
 SCF Done:  E(RB3LYP) =  -541.124542023     A.U. after   11 cycles
 SCF Done:  E(RB3LYP) =  -541.124811457     A.U. after   11 cycles
 SCF Done:  E(RB3LYP) =  -541.125335053     A.U. after   12 cycles
 SCF Done:  E(RB3LYP) =  -541.125265214     A.U. after   10 cycles
 SCF Done:  E(RB3LYP) =  -541.126560376     A.U. after   11 cycles
 SCF Done:  E(RB3LYP) =  -541.087601773     A.U. after   12 cycles
 SCF Done:  E(RB3LYP) =  -541.128420713     A.U. after   12 cycles
 SCF Done:  E(RB3LYP) =  -541.130267866     A.U. after   11 cycles
 SCF Done:  E(RB3LYP) =  -541.130377069     A.U. after   10 cycles
 SCF Done:  E(RB3LYP) =  -541.130404074     A.U. after   11 cycles
 SCF Done:  E(RB3LYP) =  -541.130403894     A.U. after   10 cycles
 SCF Done:  E(RB3LYP) =  -541.130412968     A.U. after   10 cycles
 SCF Done:  E(RB3LYP) =  -541.130415308     A.U. after   10 cycles
 SCF Done:  E(RB3LYP) =  -541.130418505     A.U. after    9 cycles
 SCF Done:  E(RB3LYP) =  -541.130418665     A.U. after    7 cycles
 SCF Done:  E(RB3LYP) =  -541.130418685     A.U. after    6 cycles
 Optimization completed.
    -- Stationary point found.
 Normal termination of Gaussian 16 at Mon May 29 11:16:00 2023.

 ----------------------------------------------------------------------
 #N Geom=AllCheck Guess=TCheck SCRF=Check GenChk RB3LYP/6-31G(2df,p) Fr
 eq
 ----------------------------------------------------------------------

 Structure from the checkpoint file:  "CdCqCOrCCC1CdCqCrCO1.chk"
 -------------------
 Title Card Required
 -------------------
 Charge =  0 Multiplicity = 1

                         Standard orientation:
 ---------------------------------------------------------------------
 Center     Atomic      Atomic             Coordinates (Angstroms)
 Number     Number       Type             X           Y           Z
 ---------------------------------------------------------------------
      1          6           0       -2.970519    1.629440    0.635707
      2          6           0       -2.586233    0.587343   -0.098521
      3          6           0       -3.515717   -0.575312   -0.377529
      4          8           0       -4.715426   -0.576451    0.368704
      5          6           0       -1.206018    0.474330   -0.705930
      6          6           0       -0.247771   -0.399239    0.126716
      7          6           0        1.113340   -0.622159   -0.548099
      8          6           0        2.010125    0.584794   -0.613558
      9          6           0        3.159309    0.353928    0.016193
     10          6           0        4.333348    1.258111    0.204622
     11          6           0        3.137907   -1.055796    0.551245
     12          8           0        1.862526   -1.580993    0.210113
     13          1           0       -3.969169    1.683795    1.053966
     14          1           0       -2.306710    2.466566    0.826548
     15          1           0       -2.965192   -1.523018   -0.251514
     16          1           0       -3.820989   -0.544330   -1.432318
     17          1           0       -4.473524   -0.611512    1.300377
     18          1           0       -0.780832    1.477042   -0.820526
     19          1           0       -1.284129    0.050478   -1.717944
     20          1           0       -0.689239   -1.386874    0.301818
     21          1           0       -0.088400    0.057846    1.109608
     22          1           0        0.932044   -1.035153   -1.556888
     23          1           0        1.732918    1.501750   -1.118832
     24          1           0        4.168198    2.233608   -0.259440
     25          1           0        5.242137    0.823155   -0.230185
     26          1           0        4.543346    1.418133    1.269694
     27          1           0        3.279343   -1.091285    1.643612
     28          1           0        3.936775   -1.673289    0.106421
 ---------------------------------------------------------------------

 SCF Done:  E(RB3LYP) =  -541.130418685     A.U. after    1 cycles

 The electronic state is 1-A.
 Alpha  occ. eigenvalues --  -19.13563 -19.13068 -10.23127 -10.22892 -10.22749
 Alpha  occ. eigenvalues --  -10.19314 -10.19097 -10.18848 -10.18812 -10.18009
 Alpha  occ. eigenvalues --  -10.17853 -10.16688  -1.02966  -1.01801  -0.81507
 Alpha  occ. eigenvalues --   -0.80446  -0.76697  -0.70944  -0.69247  -0.67761
 Alpha  occ. eigenvalues --   -0.63134  -0.57329  -0.54979  -0.53600  -0.49718
 Alpha  occ. eigenvalues --   -0.48855  -0.47010  -0.46724  -0.44400  -0.43804
 Alpha  occ. eigenvalues --   -0.42492  -0.42142  -0.41232  -0.39832  -0.38799
 Alpha  occ. eigenvalues --   -0.37561  -0.36913  -0.36116  -0.34563  -0.33165
 Alpha  occ. eigenvalues --   -0.32087  -0.31285  -0.27332  -0.26586  -0.24645
 Alpha  occ. eigenvalues --   -0.22720
 Alpha virt. eigenvalues --    0.01674   0.02445   0.08337   0.09425   0.10098
 Alpha virt. eigenvalues --    0.10753   0.12170   0.13126   0.13625   0.14502
 Alpha virt. eigenvalues --    0.15138   0.15642   0.16370   0.16897   0.18007

 Mulliken charges:
               1
     1  C   -0.407299
     2  C    0.310320
     3  C   -0.133125
     4  O   -0.408454
     5  C   -0.306005
     6  C   -0.192533
     7  C    0.085349
     8  C   -0.209020
     9  C    0.297058
    10  C   -0.492779
    11  C   -0.152793
    12  O   -0.282109
    13  H    0.110411
    14  H    0.098632
    15  H    0.096295
    16  H    0.123844
    17  H    0.282972
    18  H    0.105732
    19  H    0.099219
    20  H    0.107019
    21  H    0.101659
    22  H    0.076000
    23  H    0.099613
    24  H    0.128948
    25  H    0.130656
    26  H    0.130724
    27  H    0.100987
    28  H    0.098679
 Sum of Mulliken charges =  -0.00000

 Dipole moment (field-independent basis, Debye):
    X=              2.3437    Y=              1.1778    Z=              0.2384  Tot=              2.6338
 Quadrupole moment (field-independent basis, Debye-Ang):
   XX=            -77.8339   YY=            -75.2289   ZZ=            -69.9092
   XY=              3.3740   XZ=             -1.7573   YZ=              0.0669

  Exact polarizability: 148.212  -2.174 105.375   4.757   5.140  92.478
 Approx polarizability: 181.197  -7.487 159.955  10.571   9.973 149.098

                      1                      2                      3
                      A                      A                      A
 Frequencies --     27.1249                42.7001                64.4970
 Red. masses --      3.9591                 3.6039                 3.2064
 Frc consts  --      0.0017                 0.0039                 0.0079
 IR Inten    --      0.2662                 0.3246                 0.6910

                      4                      5                      6
                      A                      A                      A
 Frequencies --     85.6657               108.0174               161.7830
 Red. masses --      2.9548                 2.8035                 1.8196
 Frc consts  --      0.0128                 0.0193                 0.0281
 IR Inten    --      3.0248                 2.4980                 0.1894

                      7                      8                      9
                      A                      A                      A
 Frequencies --    170.3860               176.9834               216.5178
 Red. masses --      1.8398                 1.6973                 3.1319
 Frc consts  --      0.0315                 0.0313                 0.0865
 IR Inten    --      0.8535                 0.3247                 0.7862

                     10                     11                     12
                      A                      A                      A
 Frequencies --    281.6050               294.1425               335.9097
 Red. masses --      3.0180                 2.7521                 1.2137
 Frc consts  --      0.1410                 0.1403                 0.0807
 IR Inten    --      2.2356                 2.8143               106.2666

                     13                     14                     15
                      A                      A                      A
 Frequencies --    369.3356               383.7518               396.6430
 Red. masses --      2.6009                 3.1640                 2.4879
 Frc consts  --      0.2090                 0.2745                 0.2306
 IR Inten    --      0.3102                 4.8990                 4.6589

                     16                     17                     18
                      A                      A                      A
 Frequencies --    490.5241               537.5603               580.5590
 Red. masses --      2.4191                 2.9202                 2.4040
 Frc consts  --      0.3429                 0.4972                 0.4774
 IR Inten    --      7.5963                 7.3555                 7.1497

                     19                     20                     21
                      A                      A                      A
 Frequencies --    604.2386               735.0458               757.7898
 Red. masses --      3.8262                 1.5431                 1.5346
 Frc consts  --      0.8231                 0.4912                 0.5192
 IR Inten    --      2.7112                 2.5081                 1.0287

                     22                     23                     24
                      A                      A                      A
 Frequencies --    787.4877               834.2633               862.4063
 Red. masses --      1.6764                 1.5951                 2.6472
 Frc consts  --      0.6125                 0.6541                 1.1600
 IR Inten    --      4.7967                12.0126                 0.0898

                     25                     26                     27
                      A                      A                      A
 Frequencies --    888.1395               906.5983               934.7257
 Red. masses --      2.4462                 3.2649                 1.3519
 Frc consts  --      1.1369                 1.5811                 0.6959
 IR Inten    --      5.2764                 3.6079                32.2745

                     28                     29                     30
                      A                      A                      A
 Frequencies --    952.7792               975.5320              1000.1619
 Red. masses --      2.2739                 2.1774                 1.7141
 Frc consts  --      1.2162                 1.2209                 1.0103
 IR Inten    --      6.6220                 4.2150                15.5076

                     31                     32                     33
                      A                      A                      A
 Frequencies --   1000.3855              1011.3295              1038.5586
 Red. masses --      1.3425                 1.7910                 2.8304
 Frc consts  --      0.7916                 1.0793                 1.7987
 IR Inten    --      7.0465                36.5520                 2.4731

                     34                     35                     36
                      A                      A                      A
 Frequencies --   1055.1317              1079.2077              1094.9656
 Red. masses --      1.9121                 2.2341                 2.0429
 Frc consts  --      1.2542                 1.5330                 1.4431
 IR Inten    --     16.6318                13.2740                12.8477

                     37                     38                     39
                      A                      A                      A
 Frequencies --   1098.1897              1109.7631              1161.2224
 Red. masses --      3.0389                 5.2844                 1.3590
 Frc consts  --      2.1593                 3.8345                 1.0797
 IR Inten    --     61.5163               103.6395                 6.0985

                     40                     41                     42
                      A                      A                      A
 Frequencies --   1199.7374              1215.1103              1216.7119
 Red. masses --      1.1239                 1.9408                 1.2245
 Frc consts  --      0.9532                 1.6884                 1.0680
 IR Inten    --      4.2728                15.6922                 6.5102

                     43                     44                     45
                      A                      A                      A
 Frequencies --   1259.6734              1276.0888              1293.2749
 Red. masses --      1.5004                 1.5210                 1.3998
 Frc consts  --      1.4027                 1.4593                 1.3794
 IR Inten    --      0.3644                 0.5676                 4.9261

                     46                     47                     48
                      A                      A                      A
 Frequencies --   1311.6229              1346.9847              1368.1549
 Red. masses --      1.2388                 1.5504                 1.5072
 Frc consts  --      1.2556                 1.6574                 1.6622
 IR Inten    --      2.8486                 4.1810                 1.8608

                     49                     50                     51
                      A                      A                      A
 Frequencies --   1382.0738              1388.5143              1390.4390
 Red. masses --      1.4281                 1.4763                 1.4431
 Frc consts  --      1.6073                 1.6770                 1.6438
 IR Inten    --     22.6360                 3.7144                20.5209

                     52                     53                     54
                      A                      A                      A
 Frequencies --   1415.6609              1416.7423              1438.7309
 Red. masses --      1.2817                 1.3449                 1.1595
 Frc consts  --      1.5134                 1.5905                 1.4141
 IR Inten    --      1.7632                33.1593                 4.4724

                     55                     56                     57
                      A                      A                      A
 Frequencies --   1479.7256              1481.3415              1489.3333
 Red. masses --      1.0440                 1.0868                 1.0654
 Frc consts  --      1.3469                 1.4051                 1.3924
 IR Inten    --      7.3755                 1.2927                 5.6787

                     58                     59                     60
                      A                      A                      A
 Frequencies --   1489.8710              1498.7916              1522.2182
 Red. masses --      1.0771                 1.1000                 1.0853
 Frc consts  --      1.4086                 1.4559                 1.4816
 IR Inten    --      3.8644                 5.2315                 2.3797

                     61                     62                     63
                      A                      A                      A
 Frequencies --   1721.6878              1733.2327              2932.0772
 Red. masses --      5.6332                 7.3488                 1.0811
 Frc consts  --      9.8382                13.0072                 5.4760
 IR Inten    --     14.3006                10.2897                70.7198

                     64                     65                     66
                      A                      A                      A
 Frequencies --   2957.8613              2961.6731              2978.5407
 Red. masses --      1.0632                 1.0705                 1.0975
 Frc consts  --      5.4806                 5.5324                 5.7365
 IR Inten    --    100.0601                49.2625                47.4715

                     67                     68                     69
                      A                      A                      A
 Frequencies --   3002.5516              3019.8716              3031.8473
 Red. masses --      1.0661                 1.0384                 1.0866
 Frc consts  --      5.6625                 5.5795                 5.8850
 IR Inten    --     23.3971                38.8183                19.7454

                     70                     71                     72
                      A                      A                      A
 Frequencies --   3038.2300              3061.8512              3065.6550
 Red. masses --      1.0606                 1.0938                 1.0985
 Frc consts  --      5.7682                 6.0419                 6.0827
 IR Inten    --     27.6620                 7.2900                17.8285

                     73                     74                     75
                      A                      A                      A
 Frequencies --   3087.7817              3115.9650              3149.2257
 Red. masses --      1.1043                 1.0989                 1.0606
 Frc consts  --      6.2034                 6.2860                 6.1972
 IR Inten    --     42.0618                15.9850                 5.7944

                     76                     77                     78
                      A                      A                      A
 Frequencies --   3208.9590              3233.6351              3808.1504
 Red. masses --      1.0947                 1.1140                 1.0659
 Frc consts  --      6.6419                 6.8630                 9.1070
 IR Inten    --      5.8639                 8.2952                15.9488

 - Thermochemistry -
 -------------------
 Temperature   298.150 Kelvin.  Pressure   1.00000 Atm.
 Atom     1 has atomic number  6 and mass  12.00000

 Molecular mass:   168.11503 amu.
 Principal axes and moments of inertia in atomic units:
                           1         2         3
     Eigenvalues --   751.472095361.335875778.61239
           X            0.99998   0.00636   0.00201
           Y           -0.00638   0.99989   0.01306
           Z           -0.00193  -0.01307   0.99991
 This molecule is an asymmetric top.
 Rotational symmetry number  1.
 Warning -- assumption of classical behavior for rotation
           may cause significant error
 Rotational temperatures (Kelvin)      0.11526     0.01616     0.01499
 Rotational constants (GHZ):           2.40161     0.33662     0.31231
 Zero-point vibrational energy     637616.9 (Joules/Mol)
                                  152.39410 (Kcal/Mol)
 Warning -- explicit consideration of  19 degrees of freedom as
           vibrations may cause significant error
 Vibrational temperatures:     39.03    61.44    92.80   123.25   155.41
          (Kelvin)            232.77   245.15   254.64   311.52   405.17
                              423.21   483.30   531.39   552.13   570.68
                              705.75   773.43   835.29   869.36  1057.57
                             1090.29  1133.02  1200.32  1240.81  1277.83
                             1304.39  1344.86  1370.84  1403.57  1439.01
                             1439.33  1455.08  1494.25  1518.10  1552.74
                             1575.41  1580.05  1596.70  1670.74  1726.15
                             1748.27  1750.58  1812.39  1836.01  1860.73
                             1887.13  1938.01  1968.47  1988.50  1997.76
                             2000.53  2036.82  2038.38  2070.01  2129.00
                             2131.32  2142.82  2143.59  2156.43  2190.13
                             2477.12  2493.74  4218.61  4255.70  4261.19
                             4285.46  4320.00  4344.92  4362.15  4371.34
                             4405.32  4410.79  4442.63  4483.18  4531.03
                             4616.98  4652.48  5479.08

 Zero-point correction=                           0.242855 (Hartree/Particle)
 Thermal correction to Energy=                    0.256186
 Thermal correction to Enthalpy=                  0.257130
 Thermal correction to Gibbs Free Energy=         0.201545
 Sum of electronic and zero-point Energies=           -540.887563
 Sum of electronic and thermal Energies=              -540.874232
 Sum of electronic and thermal Enthalpies=            -540.873288
 Sum of electronic and thermal Free Energies=         -540.928874

                     E (Thermal)             CV                S
                      KCal/Mol        Cal/Mol-Kelvin    Cal/Mol-Kelvin
 Total                  160.759             48.667            116.990
 Electronic               0.000              0.000              0.000
 Translational            0.889              2.981             41.266
 Rotational               0.889              2.981             31.521
 Vibrational            158.982             42.706             44.202
 Vibration     1          0.593              1.984              6.029
 Vibration     2          0.595              1.980              5.130
 Vibration     3          0.597              1.971              4.315
 Vibration     4          0.601              1.959              3.757
 Vibration     5          0.606              1.943              3.304
 Vibration     6          0.622              1.889              2.529
 Vibration     7          0.625              1.879              2.431
 Vibration     8          0.628              1.871              2.360
 Vibration     9          0.645              1.816              1.988
 Vibration    10          0.681              1.708              1.524
 Vibration    11          0.689              1.685              1.450
 Vibration    12          0.717              1.604              1.232
 Vibration    13          0.742              1.535              1.083
 Vibration    14          0.753              1.505              1.024
 Vibration    15          0.763              1.477              0.975
 Vibration    16          0.846              1.271              0.682
 Vibration    17          0.893              1.167              0.571
 Vibration    18          0.937              1.073              0.484
 Vibration    19          0.963              1.023              0.442

 Optimization completed.
    -- Stationary point found.
 Normal termination of Gaussian 16 at Mon May 29 12:18:40 2023.
