 Gaussian 16, Revision A.03,
 Gaussian 16:  ES64L-G16RevA.03 25-Dec-2016

 -----------------------------
 # opt freq b3lyp/6-31g(2df,p)
 -----------------------------

 -------------------
 Title Card Required
 -------------------
 Symbolic Z-matrix:
 Charge =  0 Multiplicity = 1

 SCF Done:  E(RB3LYP) =  -582.881209106     A.U. after   12 cycles
 SCF Done:  E(RB3LYP) =  -582.886127467     A.U. after   10 cycles
 SCF Done:  E(RB3LYP) =  -582.886571612     A.U. after    9 cycles
 SCF Done:  E(RB3LYP) =  -582.886599074     A.U. after    9 cycles
 SCF Done:  E(RB3LYP) =  -582.886601669     A.U. after    7 cycles
 SCF Done:  E(RB3LYP) =  -582.886602174     A.U. after    6 cycles
 SCF Done:  E(RB3LYP) =  -582.886602244     A.U. after    6 cycles
 SCF Done:  E(RB3LYP) =  -582.886602319     A.U. after    6 cycles
 SCF Done:  E(RB3LYP) =  -582.886602537     A.U. after    7 cycles
 SCF Done:  E(RB3LYP) =  -582.886604074     A.U. after    9 cycles
 SCF Done:  E(RB3LYP) =  -582.886861306     A.U. after   11 cycles
 SCF Done:  E(RB3LYP) =  -582.886381258     A.U. after   11 cycles
 SCF Done:  E(RB3LYP) =  -582.887042209     A.U. after   10 cycles
 SCF Done:  E(RB3LYP) =  -582.887137929     A.U. after   10 cycles
 SCF Done:  E(RB3LYP) =  -582.887146269     A.U. after    9 cycles
 SCF Done:  E(RB3LYP) =  -582.887149758     A.U. after    8 cycles
 SCF Done:  E(RB3LYP) =  -582.887150696     A.U. after    7 cycles
 SCF Done:  E(RB3LYP) =  -582.887150987     A.U. after    7 cycles
 SCF Done:  E(RB3LYP) =  -582.887151025     A.U. after    6 cycles
 Optimization completed.
    -- Stationary point found.
 Normal termination of Gaussian 16 at Mon May 22 23:12:43 2023.

 ----------------------------------------------------------------------
 #N Geom=AllCheck Guess=TCheck SCRF=Check GenChk RB3LYP/6-31G(2df,p) Fr
 eq
 ----------------------------------------------------------------------

 Structure from the checkpoint file:  "CdCqCrOCCCCCCCCO.chk"
 -------------------
 Title Card Required
 -------------------
 Charge =  0 Multiplicity = 1

                         Standard orientation:
 ---------------------------------------------------------------------
 Center     Atomic      Atomic             Coordinates (Angstroms)
 Number     Number       Type             X           Y           Z
 ---------------------------------------------------------------------
      1          6           0       -6.222195   -0.975329   -0.365755
      2          6           0       -5.285077   -0.089903   -0.026207
      3          6           0       -5.559514    1.372706    0.195769
      4          8           0       -4.013881   -0.545448    0.207266
      5          6           0       -2.912047    0.301448   -0.100386
      6          6           0       -1.636883   -0.482968    0.175849
      7          6           0       -0.369545    0.327998   -0.111902
      8          6           0        0.919963   -0.453605    0.162760
      9          6           0        2.192426    0.350574   -0.123297
     10          6           0        3.481646   -0.431410    0.151240
     11          6           0        4.754413    0.374171   -0.129968
     12          6           0        6.035861   -0.416403    0.135483
     13          8           0        7.214482    0.347573   -0.068380
     14          1           0       -7.254961   -0.672986   -0.475479
     15          1           0       -5.972973   -2.018949   -0.510814
     16          1           0       -6.625571    1.572976    0.077414
     17          1           0       -5.017130    2.008799   -0.512661
     18          1           0       -5.258859    1.681758    1.204017
     19          1           0       -2.935540    1.213931    0.511818
     20          1           0       -2.952429    0.607774   -1.156731
     21          1           0       -1.649033   -1.395134   -0.432569
     22          1           0       -1.648487   -0.807329    1.223567
     23          1           0       -0.373351    1.244151    0.495095
     24          1           0       -0.375376    0.659488   -1.159696
     25          1           0        0.924127   -1.369942   -0.443519
     26          1           0        0.926502   -0.784953    1.210314
     27          1           0        2.188159    1.266839    0.483189
     28          1           0        2.185239    0.682277   -1.171015
     29          1           0        3.485945   -1.347296   -0.456153
     30          1           0        3.486903   -0.764372    1.198427
     31          1           0        4.772222    1.282871    0.484446
     32          1           0        4.751507    0.708322   -1.178345
     33          1           0        6.043558   -1.334012   -0.476154
     34          1           0        6.069749   -0.733195    1.184080
     35          1           0        7.230697    0.618303   -0.991846
 ---------------------------------------------------------------------

 SCF Done:  E(RB3LYP) =  -582.887151025     A.U. after    1 cycles

 The electronic state is 1-A.
 Alpha  occ. eigenvalues --  -19.15108 -19.12995 -10.23187 -10.23077 -10.22254
 Alpha  occ. eigenvalues --  -10.18453 -10.18374 -10.18220 -10.18119 -10.18079
 Alpha  occ. eigenvalues --  -10.18058 -10.17921 -10.15202  -1.04620  -1.01081
 Alpha  occ. eigenvalues --   -0.81506  -0.79525  -0.77232  -0.74122  -0.70151
 Alpha  occ. eigenvalues --   -0.68054  -0.63973  -0.60137  -0.58209  -0.58025
 Alpha  occ. eigenvalues --   -0.54597  -0.50116  -0.49116  -0.48222  -0.47340
 Alpha  occ. eigenvalues --   -0.45301  -0.45052  -0.43096  -0.42622  -0.41278
 Alpha  occ. eigenvalues --   -0.40833  -0.39930  -0.39226  -0.37955  -0.37110
 Alpha  occ. eigenvalues --   -0.36747  -0.35416  -0.34513  -0.33627  -0.33165
 Alpha  occ. eigenvalues --   -0.32858  -0.32436  -0.32266  -0.30753  -0.29558
 Alpha  occ. eigenvalues --   -0.26126  -0.21498
 Alpha virt. eigenvalues --    0.04160   0.07810   0.08296   0.09089   0.09679
 Alpha virt. eigenvalues --    0.10758   0.11761   0.11929   0.12996   0.13391
 Alpha virt. eigenvalues --    0.14420   0.14913   0.15700   0.16656   0.17308

 Mulliken charges:
               1
     1  C   -0.423822
     2  C    0.431105
     3  C   -0.482446
     4  O   -0.265296
     5  C   -0.077826
     6  C   -0.193708
     7  C   -0.187085
     8  C   -0.180807
     9  C   -0.179883
    10  C   -0.181750
    11  C   -0.198553
    12  C   -0.056626
    13  O   -0.419007
    14  H    0.100882
    15  H    0.101848
    16  H    0.129754
    17  H    0.130122
    18  H    0.132022
    19  H    0.096777
    20  H    0.096213
    21  H    0.107304
    22  H    0.106938
    23  H    0.094166
    24  H    0.094262
    25  H    0.094643
    26  H    0.095211
    27  H    0.093980
    28  H    0.091704
    29  H    0.093916
    30  H    0.096725
    31  H    0.104663
    32  H    0.082493
    33  H    0.083323
    34  H    0.109979
    35  H    0.278778
 Sum of Mulliken charges =   0.00000

 Dipole moment (field-independent basis, Debye):
    X=             -0.2470    Y=              1.2652    Z=             -1.2117  Tot=              1.7692
 Quadrupole moment (field-independent basis, Debye-Ang):
   XX=           -102.5704   YY=            -82.4277   ZZ=            -80.7406
   XY=             -8.2612   XZ=             -7.6444   YZ=             -0.1198

  Exact polarizability: 177.288   7.738 119.232   2.975   2.332 101.791
 Approx polarizability: 191.144  14.923 179.207   6.124   4.766 161.510

                      1                      2                      3
                      A                      A                      A
 Frequencies --     22.1121                32.9075                35.9865
 Red. masses --      4.4120                 1.9820                 4.1899
 Frc consts  --      0.0013                 0.0013                 0.0032
 IR Inten    --      0.4389                 2.0054                 0.1249

                      4                      5                      6
                      A                      A                      A
 Frequencies --     52.3455                75.4535                92.2627
 Red. masses --      4.2496                 1.7042                 3.7412
 Frc consts  --      0.0069                 0.0057                 0.0188
 IR Inten    --      0.9536                 1.2775                 1.6884

                      7                      8                      9
                      A                      A                      A
 Frequencies --     97.9744               118.3111               139.1781
 Red. masses --      4.1415                 1.7606                 2.8425
 Frc consts  --      0.0234                 0.0145                 0.0324
 IR Inten    --      0.3522                 3.1089                 2.2840

                     10                     11                     12
                      A                      A                      A
 Frequencies --    158.4754               170.0622               172.4527
 Red. masses --      1.8707                 3.5157                 2.5566
 Frc consts  --      0.0277                 0.0599                 0.0448
 IR Inten    --      0.6217                 0.5832                 0.4747

                     13                     14                     15
                      A                      A                      A
 Frequencies --    193.3283               238.0819               281.3365
 Red. masses --      4.2091                 1.0602                 2.2573
 Frc consts  --      0.0927                 0.0354                 0.1053
 IR Inten    --      0.0877                 0.2768                17.4287

                     16                     17                     18
                      A                      A                      A
 Frequencies --    309.1457               347.0365               397.3960
 Red. masses --      1.3651                 3.4726                 3.4119
 Frc consts  --      0.0769                 0.2464                 0.3175
 IR Inten    --     94.6098                 3.9407                 6.6400

                     19                     20                     21
                      A                      A                      A
 Frequencies --    438.8340               482.1365               499.4395
 Red. masses --      2.6652                 2.8382                 2.7062
 Frc consts  --      0.3024                 0.3887                 0.3977
 IR Inten    --      0.2779                 0.4205                 2.1380

                     22                     23                     24
                      A                      A                      A
 Frequencies --    515.6115               551.7422               732.9028
 Red. masses --      3.0994                 2.6672                 1.0617
 Frc consts  --      0.4855                 0.4784                 0.3360
 IR Inten    --      2.5797                 6.8384                 4.6561

                     25                     26                     27
                      A                      A                      A
 Frequencies --    740.9361               746.6798               763.6734
 Red. masses --      1.0799                 1.1498                 1.1093
 Frc consts  --      0.3493                 0.3777                 0.3812
 IR Inten    --      0.0405                 2.0577                 1.1329

                     28                     29                     30
                      A                      A                      A
 Frequencies --    804.5378               842.5677               858.4311
 Red. masses --      1.1604                 4.0065                 1.3863
 Frc consts  --      0.4426                 1.6758                 0.6019
 IR Inten    --      0.5760                 5.4300                43.9684

                     31                     32                     33
                      A                      A                      A
 Frequencies --    868.9369               941.4208               949.4224
 Red. masses --      1.2100                 1.9577                 1.2166
 Frc consts  --      0.5383                 1.0223                 0.6461
 IR Inten    --      1.9645                 5.7971                 3.3658

                     34                     35                     36
                      A                      A                      A
 Frequencies --    986.6397              1004.1760              1022.2050
 Red. masses --      4.4702                 4.4953                 1.5976
 Frc consts  --      2.5638                 2.6707                 0.9836
 IR Inten    --     10.5141                 3.5735                 3.4044

                     37                     38                     39
                      A                      A                      A
 Frequencies --   1026.4721              1041.5013              1056.7273
 Red. masses --      1.2114                 2.6148                 2.7804
 Frc consts  --      0.7521                 1.6711                 1.8293
 IR Inten    --      5.2622                 8.8386                 3.2192

                     40                     41                     42
                      A                      A                      A
 Frequencies --   1066.0971              1069.3569              1073.6243
 Red. masses --      1.7122                 2.1832                 2.2266
 Frc consts  --      1.1466                 1.4709                 1.5122
 IR Inten    --      0.9364                 1.7316                 8.3627

                     43                     44                     45
                      A                      A                      A
 Frequencies --   1081.7549              1113.2899              1120.1450
 Red. masses --      3.7787                 2.7206                 3.7087
 Frc consts  --      2.6053                 1.9867                 2.7417
 IR Inten    --    109.5688                62.4498               102.2718

                     46                     47                     48
                      A                      A                      A
 Frequencies --   1140.4249              1194.4404              1228.7891
 Red. masses --      1.7561                 1.5611                 1.2937
 Frc consts  --      1.3456                 1.3122                 1.1509
 IR Inten    --     12.5691                 2.4401                 2.4761

                     49                     50                     51
                      A                      A                      A
 Frequencies --   1236.3946              1271.6027              1277.3053
 Red. masses --      1.4578                 1.3344                 1.3147
 Frc consts  --      1.3130                 1.2712                 1.2638
 IR Inten    --      4.6067                 1.3695                 1.1494

                     52                     53                     54
                      A                      A                      A
 Frequencies --   1300.2491              1308.0982              1317.5039
 Red. masses --      3.5096                 1.2264                 1.1223
 Frc consts  --      3.4959                 1.2365                 1.1478
 IR Inten    --    265.5122                 8.9533                 0.7686

                     55                     56                     57
                      A                      A                      A
 Frequencies --   1321.1590              1325.6126              1335.9230
 Red. masses --      1.1029                 1.2020                 1.0943
 Frc consts  --      1.1342                 1.2445                 1.1507
 IR Inten    --      0.0578                 0.5907                 0.8820

                     58                     59                     60
                      A                      A                      A
 Frequencies --   1337.8830              1367.9568              1393.7573
 Red. masses --      1.1139                 1.3658                 1.3532
 Frc consts  --      1.1747                 1.5058                 1.5487
 IR Inten    --      0.0779                 2.1989                 1.7367

                     61                     62                     63
                      A                      A                      A
 Frequencies --   1403.8541              1404.0657              1405.1631
 Red. masses --      1.6474                 1.3795                 1.3124
 Frc consts  --      1.9129                 1.6023                 1.5267
 IR Inten    --      0.3327                29.2005                22.1729

                     64                     65                     66
                      A                      A                      A
 Frequencies --   1421.4863              1424.5966              1435.4227
 Red. masses --      1.4104                 1.2974                 1.2631
 Frc consts  --      1.6791                 1.5514                 1.5334
 IR Inten    --     14.1067                46.3240                 4.1306

                     67                     68                     69
                      A                      A                      A
 Frequencies --   1478.1881              1482.8171              1483.1466
 Red. masses --      1.0463                 1.0756                 1.0731
 Frc consts  --      1.3469                 1.3933                 1.3908
 IR Inten    --      6.3751                 0.1061                 0.0368

                     70                     71                     72
                      A                      A                      A
 Frequencies --   1487.1598              1491.5080              1493.4219
 Red. masses --      1.0774                 1.0736                 1.0768
 Frc consts  --      1.4040                 1.4071                 1.4150
 IR Inten    --      0.1809                 4.5932                 5.3555

                     73                     74                     75
                      A                      A                      A
 Frequencies --   1501.7025              1511.0936              1518.2646
 Red. masses --      1.0937                 1.0961                 1.0969
 Frc consts  --      1.4532                 1.4747                 1.4897
 IR Inten    --      0.1207                 2.4368                 1.1684

                     76                     77                     78
                      A                      A                      A
 Frequencies --   1525.2053              1724.6691              2965.6061
 Red. masses --      1.0909                 5.6831                 1.0709
 Frc consts  --      1.4952                 9.9596                 5.5492
 IR Inten    --      4.5835               123.9604                52.8627

                     79                     80                     81
                      A                      A                      A
 Frequencies --   2981.4737              2996.8485              3000.4233
 Red. masses --      1.0567                 1.0641                 1.0578
 Frc consts  --      5.5343                 5.6309                 5.6105
 IR Inten    --     30.2927                 9.5024                 4.6321

                     82                     83                     84
                      A                      A                      A
 Frequencies --   3002.3310              3005.9932              3015.1172
 Red. masses --      1.0578                 1.0605                 1.0612
 Frc consts  --      5.6179                 5.6460                 5.6841
 IR Inten    --      3.7855                 1.0809                98.8637

                     85                     86                     87
                      A                      A                      A
 Frequencies --   3020.3910              3022.2963              3027.1102
 Red. masses --      1.0978                 1.0967                 1.0987
 Frc consts  --      5.9004                 5.9020                 5.9320
 IR Inten    --     13.2725                 4.3532                 3.5631

                     88                     89                     90
                      A                      A                      A
 Frequencies --   3030.5066              3033.3126              3039.4189
 Red. masses --      1.0449                 1.0584                 1.0997
 Frc consts  --      5.6541                 5.7376                 5.9854
 IR Inten    --     20.2372                58.8665                 2.9106

                     91                     92                     93
                      A                      A                      A
 Frequencies --   3051.6440              3060.7820              3073.3050
 Red. masses --      1.0944                 1.1017                 1.1007
 Frc consts  --      6.0046                 6.0812                 6.1251
 IR Inten    --     15.3583                25.0596                82.7531

                     94                     95                     96
                      A                      A                      A
 Frequencies --   3079.7920              3080.4932              3134.7681
 Red. masses --      1.1048                 1.0993                 1.0980
 Frc consts  --      6.1742                 6.1460                 6.3573
 IR Inten    --     79.4490                39.0382                18.8117

                     97                     98                     99
                      A                      A                      A
 Frequencies --   3173.3876              3264.0832              3814.4493
 Red. masses --      1.0608                 1.1163                 1.0661
 Frc consts  --      6.2942                 7.0071                 9.1391
 IR Inten    --      0.4837                 7.9172                14.7176

 - Thermochemistry -
 -------------------
 Temperature   298.150 Kelvin.  Pressure   1.00000 Atm.
 Atom     1 has atomic number  6 and mass  12.00000

 Molecular mass:   186.16198 amu.
 Principal axes and moments of inertia in atomic units:
                           1         2         3
     Eigenvalues --   389.92121********************
           X            0.99999  -0.00502  -0.00034
           Y            0.00501   0.99999  -0.00063
           Z            0.00034   0.00062   1.00000
 This molecule is an asymmetric top.
 Rotational symmetry number  1.
 Rotational temperatures (Kelvin)      0.22213     0.00646     0.00634
 Rotational constants (GHZ):           4.62848     0.13451     0.13215
 Zero-point vibrational energy     829942.2 (Joules/Mol)
                                  198.36095 (Kcal/Mol)
 Warning -- explicit consideration of  23 degrees of freedom as
           vibrations may cause significant error
 Vibrational temperatures:     31.81    47.35    51.78    75.31   108.56
          (Kelvin)            132.75   140.96   170.22   200.25   228.01
                              244.68   248.12   278.16   342.55   404.78
                              444.79   499.31   571.76   631.38   693.69
                              718.58   741.85   793.83  1054.48  1066.04
                             1074.31  1098.76  1157.55  1212.27  1235.09
                             1250.21  1354.49  1366.01  1419.55  1444.79
                             1470.72  1476.86  1498.49  1520.39  1533.88
                             1538.57  1544.71  1556.40  1601.78  1611.64
                             1640.82  1718.53  1767.95  1778.90  1829.55
                             1837.76  1870.77  1882.06  1895.59  1900.85
                             1907.26  1922.10  1924.92  1968.18  2005.31
                             2019.83  2020.14  2021.72  2045.20  2049.68
                             2065.25  2126.78  2133.44  2133.92  2139.69
                             2145.95  2148.70  2160.61  2174.13  2184.44
                             2194.43  2481.41  4266.85  4289.68  4311.80
                             4316.94  4319.68  4324.95  4338.08  4345.67
                             4348.41  4355.34  4360.22  4364.26  4373.05
                             4390.64  4403.78  4421.80  4431.13  4432.14
                             4510.23  4565.80  4696.29  5488.14

 Zero-point correction=                           0.316108 (Hartree/Particle)
 Thermal correction to Energy=                    0.332995
 Thermal correction to Enthalpy=                  0.333939
 Thermal correction to Gibbs Free Energy=         0.268895
 Sum of electronic and zero-point Energies=           -582.571043
 Sum of electronic and thermal Energies=              -582.554156
 Sum of electronic and thermal Enthalpies=            -582.553212
 Sum of electronic and thermal Free Energies=         -582.618256

                     E (Thermal)             CV                S
                      KCal/Mol        Cal/Mol-Kelvin    Cal/Mol-Kelvin
 Total                  208.957             59.381            136.896
 Electronic               0.000              0.000              0.000
 Translational            0.889              2.981             41.570
 Rotational               0.889              2.981             32.635
 Vibrational            207.180             53.419             62.690
 Vibration     1          0.593              1.985              6.435
 Vibration     2          0.594              1.983              5.646
 Vibration     3          0.594              1.982              5.469
 Vibration     4          0.596              1.977              4.727
 Vibration     5          0.599              1.965              4.006
 Vibration     6          0.602              1.955              3.612
 Vibration     7          0.603              1.951              3.494
 Vibration     8          0.608              1.934              3.128
 Vibration     9          0.615              1.914              2.815
 Vibration    10          0.621              1.893              2.568
 Vibration    11          0.625              1.879              2.435
 Vibration    12          0.626              1.876              2.409
 Vibration    13          0.635              1.849              2.196
 Vibration    14          0.656              1.782              1.817
 Vibration    15          0.681              1.708              1.526
 Vibration    16          0.698              1.656              1.367
 Vibration    17          0.725              1.581              1.180
 Vibration    18          0.764              1.476              0.972
 Vibration    19          0.799              1.386              0.830
 Vibration    20          0.838              1.290              0.704
 Vibration    21          0.855              1.251              0.660
 Vibration    22          0.871              1.215              0.620
 Vibration    23          0.907              1.136              0.541

 Optimization completed.
    -- Stationary point found.
 Normal termination of Gaussian 16 at Tue May 23 00:27:48 2023.
