 Gaussian 16, Revision A.03,
 Gaussian 16:  ES64L-G16RevA.03 25-Dec-2016

 -----------------------------
 # opt freq b3lyp/6-31g(2df,p)
 -----------------------------

 -------------------
 Title Card Required
 -------------------
 Symbolic Z-matrix:
 Charge =  0 Multiplicity = 1

 SCF Done:  E(RB3LYP) =  -657.958800240     A.U. after   13 cycles
 SCF Done:  E(RB3LYP) =  -657.982996031     A.U. after   12 cycles
 SCF Done:  E(RB3LYP) =  -658.004152893     A.U. after   12 cycles
 SCF Done:  E(RB3LYP) =  -658.015197037     A.U. after   14 cycles
 SCF Done:  E(RB3LYP) =  -658.017597571     A.U. after   12 cycles
 SCF Done:  E(RB3LYP) =  -658.019219562     A.U. after   11 cycles
 SCF Done:  E(RB3LYP) =  -658.020141340     A.U. after   12 cycles
 SCF Done:  E(RB3LYP) =  -658.019343776     A.U. after   13 cycles
 SCF Done:  E(RB3LYP) =  -658.020804740     A.U. after   11 cycles
 SCF Done:  E(RB3LYP) =  -658.020841458     A.U. after   11 cycles
 SCF Done:  E(RB3LYP) =  -658.020996189     A.U. after    9 cycles
 SCF Done:  E(RB3LYP) =  -658.020997333     A.U. after    9 cycles
 SCF Done:  E(RB3LYP) =  -658.020998614     A.U. after    9 cycles
 SCF Done:  E(RB3LYP) =  -658.021000304     A.U. after    9 cycles
 SCF Done:  E(RB3LYP) =  -658.021000699     A.U. after    8 cycles
 SCF Done:  E(RB3LYP) =  -658.021000934     A.U. after    7 cycles
 SCF Done:  E(RB3LYP) =  -658.021000997     A.U. after    7 cycles
 SCF Done:  E(RB3LYP) =  -658.021001028     A.U. after    7 cycles
 SCF Done:  E(RB3LYP) =  -658.021001033     A.U. after    6 cycles
 Optimization completed.
    -- Stationary point found.
 Normal termination of Gaussian 16 at Mon May 22 10:22:29 2023.

 ----------------------------------------------------------------------
 #N Geom=AllCheck Guess=TCheck SCRF=Check GenChk RB3LYP/6-31G(2df,p) Fr
 eq
 ----------------------------------------------------------------------

 Structure from the checkpoint file:  "CdCqCCrCCqCCOOrCqOrCC.chk"
 -------------------
 Title Card Required
 -------------------
 Charge =  0 Multiplicity = 1

                         Standard orientation:
 ---------------------------------------------------------------------
 Center     Atomic      Atomic             Coordinates (Angstroms)
 Number     Number       Type             X           Y           Z
 ---------------------------------------------------------------------
      1          6           0        2.566029   -1.282881   -1.385739
      2          6           0        1.527310   -1.459266   -0.566957
      3          6           0        1.649749   -2.128750    0.786930
      4          6           0        3.025842   -2.687721    1.151625
      5          6           0        0.122996   -1.081351   -0.993288
      6          6           0       -0.685996   -0.115894   -0.084462
      7          6           0       -0.313715    1.365415   -0.290957
      8          6           0        1.120813    1.729825    0.088031
      9          8           0        1.165448    3.153186    0.067140
     10          8           0        2.494752    3.543786    0.473154
     11          6           0       -2.201258   -0.368638   -0.319762
     12          8           0       -2.513690   -1.743794   -0.080651
     13          6           0       -3.144173    0.535284    0.487907
     14          6           0       -4.623457    0.207263    0.261508
     15          1           0        3.571397   -1.596043   -1.130260
     16          1           0        2.441652   -0.818681   -2.359299
     17          1           0        0.903739   -2.936004    0.833098
     18          1           0        1.339884   -1.418991    1.566420
     19          1           0        3.357553   -3.437592    0.426813
     20          1           0        2.995092   -3.163194    2.136454
     21          1           0        3.782812   -1.898146    1.188290
     22          1           0       -0.461083   -2.007029   -1.056759
     23          1           0        0.155234   -0.659503   -2.005287
     24          1           0       -0.496685   -0.369225    0.969568
     25          1           0       -0.960929    2.000421    0.320538
     26          1           0       -0.494305    1.647503   -1.336433
     27          1           0        1.857984    1.318147   -0.608562
     28          1           0        1.365651    1.369130    1.096640
     29          1           0        2.875234    3.806225   -0.377487
     30          1           0       -2.413755   -0.230599   -1.389170
     31          1           0       -2.389913   -1.908389    0.861509
     32          1           0       -2.966109    1.582610    0.226797
     33          1           0       -2.897057    0.439654    1.556334
     34          1           0       -4.900142    0.356047   -0.788119
     35          1           0       -5.264079    0.852255    0.870222
     36          1           0       -4.839091   -0.833730    0.512539
 ---------------------------------------------------------------------

 SCF Done:  E(RB3LYP) =  -658.021001033     A.U. after    1 cycles

 The electronic state is 1-A.
 Alpha  occ. eigenvalues --  -19.18440 -19.18284 -19.13959 -10.23256 -10.22284
 Alpha  occ. eigenvalues --  -10.19458 -10.18999 -10.18730 -10.18561 -10.18372
 Alpha  occ. eigenvalues --  -10.17826 -10.17553 -10.17223 -10.16549  -1.10763
 Alpha  occ. eigenvalues --   -1.02103  -0.90408  -0.82559  -0.79541  -0.76459
 Alpha  occ. eigenvalues --   -0.73254  -0.70630  -0.67106  -0.63389  -0.61927
 Alpha  occ. eigenvalues --   -0.59960  -0.57884  -0.52228  -0.51571  -0.48773
 Alpha  occ. eigenvalues --   -0.48060  -0.47130  -0.45967  -0.44924  -0.44835
 Alpha  occ. eigenvalues --   -0.43607  -0.43414  -0.41804  -0.40860  -0.39557
 Alpha  occ. eigenvalues --   -0.38479  -0.37556  -0.37127  -0.36261  -0.35387
 Alpha  occ. eigenvalues --   -0.35010  -0.34623  -0.34194  -0.33282  -0.32421
 Alpha  occ. eigenvalues --   -0.32049  -0.31010  -0.28708  -0.27246  -0.25872
 Alpha  occ. eigenvalues --   -0.23920
 Alpha virt. eigenvalues --    0.02275   0.04107   0.06431   0.08406   0.09122
 Alpha virt. eigenvalues --    0.09571   0.10691   0.11743   0.13038   0.13446
 Alpha virt. eigenvalues --    0.13982   0.14516   0.15312   0.16275   0.16565

 Mulliken charges:
               1
     1  C   -0.419926
     2  C    0.369571
     3  C   -0.256521
     4  C   -0.393523
     5  C   -0.299999
     6  C   -0.035705
     7  C   -0.226783
     8  C   -0.027163
     9  O   -0.195840
    10  O   -0.324028
    11  C    0.130633
    12  O   -0.426742
    13  C   -0.210076
    14  C   -0.378490
    15  H    0.104908
    16  H    0.094810
    17  H    0.104892
    18  H    0.110332
    19  H    0.123041
    20  H    0.110735
    21  H    0.124030
    22  H    0.129820
    23  H    0.090532
    24  H    0.061381
    25  H    0.117207
    26  H    0.103292
    27  H    0.104933
    28  H    0.098542
    29  H    0.308320
    30  H    0.087138
    31  H    0.275766
    32  H    0.110103
    33  H    0.085408
    34  H    0.115650
    35  H    0.109662
    36  H    0.124088
 Sum of Mulliken charges =  -0.00000

 Dipole moment (field-independent basis, Debye):
    X=              0.1189    Y=             -0.6600    Z=              0.0342  Tot=              0.6715
 Quadrupole moment (field-independent basis, Debye-Ang):
   XX=            -86.8982   YY=            -94.5667   ZZ=            -85.3046
   XY=             -1.7051   XZ=             -5.7397   YZ=             -9.3004

  Exact polarizability: 161.075   0.102 127.886  -6.344  -5.381 117.288
 Approx polarizability: 205.235   6.771 176.203 -12.321  -8.116 188.172

                      1                      2                      3
                      A                      A                      A
 Frequencies --     18.5958                44.9405                46.7798
 Red. masses --      3.2380                 2.9946                 3.4912
 Frc consts  --      0.0007                 0.0036                 0.0045
 IR Inten    --      0.3924                 4.1164                 1.3697

                      4                      5                      6
                      A                      A                      A
 Frequencies --     54.6675                64.9502                75.2133
 Red. masses --      2.2138                 2.7549                 2.6907
 Frc consts  --      0.0039                 0.0068                 0.0090
 IR Inten    --      0.3796                 4.3552                 1.9143

                      7                      8                      9
                      A                      A                      A
 Frequencies --    102.4215               105.6942               133.1044
 Red. masses --      2.4857                 3.4712                 2.9738
 Frc consts  --      0.0154                 0.0228                 0.0310
 IR Inten    --      0.2475                 0.3714                 3.1222

                     10                     11                     12
                      A                      A                      A
 Frequencies --    149.9776               193.9569               219.3923
 Red. masses --      3.2879                 3.5092                 1.2007
 Frc consts  --      0.0436                 0.0778                 0.0341
 IR Inten    --      3.0911                 0.4948                 0.3650

                     13                     14                     15
                      A                      A                      A
 Frequencies --    229.1056               267.6830               269.6491
 Red. masses --      1.1485                 2.2216                 1.4279
 Frc consts  --      0.0355                 0.0938                 0.0612
 IR Inten    --     96.9961                 2.0783                 1.2541

                     16                     17                     18
                      A                      A                      A
 Frequencies --    280.8438               284.1924               308.0850
 Red. masses --      3.4105                 2.6724                 2.5665
 Frc consts  --      0.1585                 0.1272                 0.1435
 IR Inten    --      3.7993                 7.9865                 7.5651

                     19                     20                     21
                      A                      A                      A
 Frequencies --    317.9232               368.2857               388.8535
 Red. masses --      1.3588                 2.7695                 3.5518
 Frc consts  --      0.0809                 0.2213                 0.3164
 IR Inten    --     95.5450                19.5918                 6.6128

                     22                     23                     24
                      A                      A                      A
 Frequencies --    420.3087               463.4522               508.1532
 Red. masses --      2.0351                 2.9691                 2.4483
 Frc consts  --      0.2118                 0.3757                 0.3725
 IR Inten    --      1.0756                 9.3329                11.5127

                     25                     26                     27
                      A                      A                      A
 Frequencies --    524.3230               550.9118               595.4732
 Red. masses --      2.9077                 2.8820                 2.4680
 Frc consts  --      0.4710                 0.5154                 0.5156
 IR Inten    --      3.0966                 7.7199                 9.2174

                     28                     29                     30
                      A                      A                      A
 Frequencies --    705.0656               773.6162               787.0455
 Red. masses --      1.2199                 1.9425                 1.4003
 Frc consts  --      0.3573                 0.6850                 0.5111
 IR Inten    --      0.7839                 0.7794                 0.9289

                     31                     32                     33
                      A                      A                      A
 Frequencies --    806.8098               812.2371               863.3670
 Red. masses --      1.4019                 1.1518                 2.1974
 Frc consts  --      0.5377                 0.4477                 0.9650
 IR Inten    --      0.7578                 0.5853                 2.4982

                     34                     35                     36
                      A                      A                      A
 Frequencies --    897.5515               927.9129               944.1389
 Red. masses --      2.2134                 1.3960                 1.8683
 Frc consts  --      1.0506                 0.7082                 0.9812
 IR Inten    --     19.3281                40.8630                 1.1469

                     37                     38                     39
                      A                      A                      A
 Frequencies --    951.3637               980.1962               985.3025
 Red. masses --      3.0656                 2.2015                 2.2519
 Frc consts  --      1.6348                 1.2462                 1.2880
 IR Inten    --      3.0881                12.6859                20.4114

                     40                     41                     42
                      A                      A                      A
 Frequencies --   1020.3191              1026.5850              1031.4905
 Red. masses --      2.8398                 1.9794                 4.0181
 Frc consts  --      1.7419                 1.2290                 2.5189
 IR Inten    --      5.1341                 1.3951                 8.6364

                     43                     44                     45
                      A                      A                      A
 Frequencies --   1047.5468              1072.4732              1083.0679
 Red. masses --      2.2339                 1.7213                 2.6899
 Frc consts  --      1.4443                 1.1665                 1.8591
 IR Inten    --     24.4492                 0.0336                22.4308

                     46                     47                     48
                      A                      A                      A
 Frequencies --   1097.6677              1104.6665              1120.4600
 Red. masses --      1.7445                 1.6244                 2.1660
 Frc consts  --      1.2384                 1.1679                 1.6021
 IR Inten    --     16.8324                 6.1547                 9.4958

                     49                     50                     51
                      A                      A                      A
 Frequencies --   1135.2267              1143.5885              1205.8332
 Red. masses --      2.5561                 2.5578                 1.3861
 Frc consts  --      1.9408                 1.9709                 1.1874
 IR Inten    --     17.5257                 5.1177                 8.7445

                     52                     53                     54
                      A                      A                      A
 Frequencies --   1213.3789              1251.8988              1265.5029
 Red. masses --      1.2420                 1.6980                 1.4058
 Frc consts  --      1.0774                 1.5679                 1.3265
 IR Inten    --      2.3730                14.1920                 8.9473

                     55                     56                     57
                      A                      A                      A
 Frequencies --   1277.0659              1295.8186              1307.4141
 Red. masses --      1.2371                 1.1708                 1.2183
 Frc consts  --      1.1888                 1.1583                 1.2270
 IR Inten    --      0.5968                 0.1797                 7.8174

                     58                     59                     60
                      A                      A                      A
 Frequencies --   1318.3779              1336.3328              1350.1658
 Red. masses --      1.1961                 1.2129                 1.3384
 Frc consts  --      1.2249                 1.2761                 1.4375
 IR Inten    --      1.2940                 0.4117                 2.1902

                     61                     62                     63
                      A                      A                      A
 Frequencies --   1364.5820              1379.0748              1383.8122
 Red. masses --      1.3465                 1.3585                 1.6173
 Frc consts  --      1.4773                 1.5223                 1.8247
 IR Inten    --      2.4113                 5.7506                13.9419

                     64                     65                     66
                      A                      A                      A
 Frequencies --   1385.5325              1389.3362              1406.3417
 Red. masses --      1.2701                 1.3755                 1.2242
 Frc consts  --      1.4365                 1.5643                 1.4266
 IR Inten    --     35.4070                 5.9452                 7.0762

                     67                     68                     69
                      A                      A                      A
 Frequencies --   1408.0967              1413.6172              1419.8968
 Red. masses --      1.2498                 1.4066                 1.2295
 Frc consts  --      1.4600                 1.6561                 1.4605
 IR Inten    --      1.0880                11.9380                34.0227

                     70                     71                     72
                      A                      A                      A
 Frequencies --   1455.2576              1475.7748              1482.2295
 Red. masses --      1.1597                 1.0752                 1.0914
 Frc consts  --      1.4470                 1.3797                 1.4127
 IR Inten    --      0.8691                 2.9663                 3.5729

                     73                     74                     75
                      A                      A                      A
 Frequencies --   1483.4407              1494.5475              1495.7085
 Red. masses --      1.0896                 1.0548                 1.0654
 Frc consts  --      1.4127                 1.3882                 1.4043
 IR Inten    --      4.0453                 7.7276                 0.1993

                     76                     77                     78
                      A                      A                      A
 Frequencies --   1498.5851              1508.5588              1510.9633
 Red. masses --      1.0400                 1.0627                 1.0589
 Frc consts  --      1.3760                 1.4249                 1.4244
 IR Inten    --      5.3294                 4.0300                 2.5027

                     79                     80                     81
                      A                      A                      A
 Frequencies --   1528.2206              1710.0243              2988.8034
 Red. masses --      1.0892                 5.1696                 1.0779
 Frc consts  --      1.4988                 8.9066                 5.6733
 IR Inten    --      5.2452                16.5257                 3.5981

                     82                     83                     84
                      A                      A                      A
 Frequencies --   2995.4224              3000.7266              3009.4738
 Red. masses --      1.0713                 1.0644                 1.0645
 Frc consts  --      5.6632                 5.6468                 5.6802
 IR Inten    --     13.4054                31.1193                27.0833

                     85                     86                     87
                      A                      A                      A
 Frequencies --   3019.0757              3022.9369              3024.4467
 Red. masses --      1.0748                 1.0825                 1.0751
 Frc consts  --      5.7719                 5.8283                 5.7941
 IR Inten    --      5.4447                 6.0999                28.0070

                     88                     89                     90
                      A                      A                      A
 Frequencies --   3032.9961              3038.7662              3039.0160
 Red. masses --      1.0681                 1.0353                 1.0374
 Frc consts  --      5.7888                 5.6327                 5.6450
 IR Inten    --     63.3614                37.4422                20.3898

                     91                     92                     93
                      A                      A                      A
 Frequencies --   3067.8973              3069.4198              3079.5900
 Red. masses --      1.1010                 1.0953                 1.0930
 Frc consts  --      6.1057                 6.0799                 6.1074
 IR Inten    --     14.4475                 4.3756                29.1476

                     94                     95                     96
                      A                      A                      A
 Frequencies --   3098.3123              3102.4682              3107.5565
 Red. masses --      1.0964                 1.1007                 1.1014
 Frc consts  --      6.2012                 6.2423                 6.2665
 IR Inten    --     46.7279                23.6371                28.0751

                     97                     98                     99
                      A                      A                      A
 Frequencies --   3109.3242              3127.7445              3148.7248
 Red. masses --      1.1019                 1.1003                 1.0620
 Frc consts  --      6.2767                 6.3418                 6.2035
 IR Inten    --     27.5715                26.7350                 7.1072

                    100                    101                    102
                      A                      A                      A
 Frequencies --   3229.4194              3745.1140              3787.6202
 Red. masses --      1.1123                 1.0687                 1.0657
 Frc consts  --      6.8350                 8.8315                 9.0080
 IR Inten    --     14.3819                26.8637                11.7580

 - Thermochemistry -
 -------------------
 Temperature   298.150 Kelvin.  Pressure   1.00000 Atm.
 Atom     1 has atomic number  6 and mass  12.00000

 Molecular mass:   202.15689 amu.
 Principal axes and moments of inertia in atomic units:
                           1         2         3
     Eigenvalues --  3043.416234323.218586619.43001
           X            0.99657  -0.08273  -0.00188
           Y            0.08269   0.99644  -0.01670
           Z            0.00326   0.01649   0.99986
 This molecule is an asymmetric top.
 Rotational symmetry number  1.
 Warning -- assumption of classical behavior for rotation
           may cause significant error
 Rotational temperatures (Kelvin)      0.02846     0.02003     0.01308
 Rotational constants (GHZ):           0.59300     0.41745     0.27264
 Zero-point vibrational energy     838372.2 (Joules/Mol)
                                  200.37576 (Kcal/Mol)
 Warning -- explicit consideration of  27 degrees of freedom as
           vibrations may cause significant error
 Vibrational temperatures:     26.76    64.66    67.31    78.65    93.45
          (Kelvin)            108.22   147.36   152.07   191.51   215.78
                              279.06   315.66   329.63   385.14   387.96
                              404.07   408.89   443.27   457.42   529.88
                              559.47   604.73   666.80   731.12   754.38
                              792.64   856.75  1014.43  1113.06  1132.38
                             1160.82  1168.63  1242.19  1291.38  1335.06
                             1358.41  1368.80  1410.28  1417.63  1468.01
                             1477.03  1484.08  1507.19  1543.05  1558.29
                             1579.30  1589.37  1612.09  1633.34  1645.37
                             1734.93  1745.78  1801.20  1820.78  1837.41
                             1864.39  1881.08  1896.85  1922.68  1942.59
                             1963.33  1984.18  1991.00  1993.47  1998.94
                             2023.41  2025.94  2033.88  2042.91  2093.79
                             2123.31  2132.60  2134.34  2150.32  2151.99
                             2156.13  2170.48  2173.94  2198.77  2460.34
                             4300.22  4309.74  4317.38  4329.96  4343.78
                             4349.33  4351.50  4363.80  4372.11  4372.47
                             4414.02  4416.21  4430.84  4457.78  4463.76
                             4471.08  4473.62  4500.13  4530.31  4646.41
                             5388.38  5449.54

 Zero-point correction=                           0.319319 (Hartree/Particle)
 Thermal correction to Energy=                    0.337446
 Thermal correction to Enthalpy=                  0.338390
 Thermal correction to Gibbs Free Energy=         0.271400
 Sum of electronic and zero-point Energies=           -657.701682
 Sum of electronic and thermal Energies=              -657.683555
 Sum of electronic and thermal Enthalpies=            -657.682611
 Sum of electronic and thermal Free Energies=         -657.749601

                     E (Thermal)             CV                S
                      KCal/Mol        Cal/Mol-Kelvin    Cal/Mol-Kelvin
 Total                  211.751             64.859            140.994
 Electronic               0.000              0.000              0.000
 Translational            0.889              2.981             41.816
 Rotational               0.889              2.981             32.832
 Vibrational            209.973             58.898             66.346
 Vibration     1          0.593              1.986              6.779
 Vibration     2          0.595              1.979              5.028
 Vibration     3          0.595              1.979              4.949
 Vibration     4          0.596              1.976              4.641
 Vibration     5          0.597              1.971              4.301
 Vibration     6          0.599              1.966              4.012
 Vibration     7          0.604              1.947              3.408
 Vibration     8          0.605              1.945              3.346
 Vibration     9          0.613              1.920              2.901
 Vibration    10          0.618              1.903              2.673
 Vibration    11          0.635              1.848              2.190
 Vibration    12          0.647              1.812              1.964
 Vibration    13          0.652              1.797              1.886
 Vibration    14          0.673              1.732              1.611
 Vibration    15          0.674              1.729              1.598
 Vibration    16          0.681              1.709              1.529
 Vibration    17          0.683              1.703              1.508
 Vibration    18          0.698              1.658              1.373
 Vibration    19          0.704              1.639              1.321
 Vibration    20          0.741              1.537              1.087
 Vibration    21          0.757              1.494              1.005
 Vibration    22          0.783              1.426              0.891
 Vibration    23          0.821              1.331              0.756
 Vibration    24          0.863              1.232              0.638
 Vibration    25          0.879              1.196              0.600
 Vibration    26          0.906              1.138              0.542
 Vibration    27          0.953              1.041              0.458

                           ! Non-Optimized Parameters !
 Normal termination of Gaussian 16 at Mon May 22 12:35:23 2023.
