 Gaussian 16, Revision A.03,
 Gaussian 16:  ES64L-G16RevA.03 25-Dec-2016

 -----------------------------
 # opt freq b3lyp/6-31g(2df,p)
 -----------------------------

 -------------------
 Title Card Required
 -------------------
 Symbolic Z-matrix:
 Charge =  0 Multiplicity = 1

 SCF Done:  E(RB3LYP) =  -1060.04508052     A.U. after   21 cycles
 SCF Done:  E(RB3LYP) =  -1060.11538753     A.U. after   15 cycles
 SCF Done:  E(RB3LYP) =  -1060.19275317     A.U. after   15 cycles
 SCF Done:  E(RB3LYP) =  -1060.24977527     A.U. after   15 cycles
 SCF Done:  E(RB3LYP) =  -1060.28753374     A.U. after   14 cycles
 SCF Done:  E(RB3LYP) =  -1060.31210933     A.U. after   13 cycles
 SCF Done:  E(RB3LYP) =  -1060.33789988     A.U. after   13 cycles
 SCF Done:  E(RB3LYP) =  -1060.34748557     A.U. after   12 cycles
 SCF Done:  E(RB3LYP) =  -1060.35280306     A.U. after   12 cycles
 SCF Done:  E(RB3LYP) =  -1060.35444743     A.U. after   11 cycles
 SCF Done:  E(RB3LYP) =  -1060.36803313     A.U. after    9 cycles
 SCF Done:  E(RB3LYP) =  -1060.36813572     A.U. after   10 cycles
 SCF Done:  E(RB3LYP) =  -1060.36815577     A.U. after    9 cycles
 SCF Done:  E(RB3LYP) =  -1060.36818068     A.U. after   10 cycles
 SCF Done:  E(RB3LYP) =  -1060.36818086     A.U. after    7 cycles
 SCF Done:  E(RB3LYP) =  -1060.36818148     A.U. after    8 cycles
 SCF Done:  E(RB3LYP) =  -1060.36818179     A.U. after    7 cycles
 SCF Done:  E(RB3LYP) =  -1060.36818196     A.U. after    8 cycles
 SCF Done:  E(RB3LYP) =  -1060.36818196     A.U. after    6 cycles
 Optimization completed.
    -- Stationary point found.
 Normal termination of Gaussian 16 at Tue May 23 14:41:13 2023.

 ----------------------------------------------------------------------
 #N Geom=AllCheck Guess=TCheck SCRF=Check GenChk RB3LYP/6-31G(2df,p) Fr
 eq
 ----------------------------------------------------------------------

 Structure from the checkpoint file:  "CdCqCrCCdC1SC2dCCdCqCC1CrC2CCC.chk"
 -------------------
 Title Card Required
 -------------------
 Charge =  0 Multiplicity = 1

                         Standard orientation:
 ---------------------------------------------------------------------
 Center     Atomic      Atomic             Coordinates (Angstroms)
 Number     Number       Type             X           Y           Z
 ---------------------------------------------------------------------
      1          6           0       -4.485054    2.130359    0.460083
      2          6           0       -4.511030    0.952626   -0.161698
      3          6           0       -5.701824    0.032559   -0.085005
      4          6           0       -3.338430    0.478762   -1.002518
      5          6           0       -2.563676   -0.635238   -0.346846
      6          6           0       -1.234426   -0.775262   -0.271114
      7         16           0       -0.145251    0.357230   -1.134652
      8          6           0        1.162240    0.558130    0.062757
      9          6           0        1.288850    1.692419    1.070107
     10          6           0        1.476103    0.861544    2.101399
     11          6           0        1.341544   -0.401072    1.245839
     12          6           0        0.381137   -1.526224    1.568793
     13          6           0       -0.589288   -1.960011    0.430021
     14          6           0        0.023074   -2.963218   -0.566872
     15          6           0        2.379760   -0.380128    0.137335
     16          6           0        3.816716    0.073730    0.279773
     17          6           0        4.414826    0.577314   -1.041076
     18          6           0        5.882720    0.991838   -0.911668
     19          1           0       -5.320357    2.476491    1.061170
     20          1           0       -3.627796    2.792347    0.391779
     21          1           0       -6.491638    0.448283    0.545657
     22          1           0       -5.431620   -0.950959    0.318946
     23          1           0       -6.119920   -0.148589   -1.083758
     24          1           0       -2.666088    1.314435   -1.214284
     25          1           0       -3.720375    0.128548   -1.974842
     26          1           0       -3.161885   -1.422512    0.111187
     27          1           0        1.349857    2.765466    0.934420
     28          1           0        1.764735    0.996574    3.137824
     29          1           0       -0.239673   -1.185074    2.404303
     30          1           0        0.920942   -2.410962    1.929737
     31          1           0       -1.404885   -2.487267    0.939281
     32          1           0        0.770035   -2.504528   -1.217971
     33          1           0       -0.758573   -3.374422   -1.212922
     34          1           0        0.495907   -3.794406   -0.032947
     35          1           0        2.273904   -1.214142   -0.553971
     36          1           0        4.412113   -0.772389    0.650518
     37          1           0        3.889764    0.858965    1.039157
     38          1           0        3.819604    1.426179   -1.400331
     39          1           0        4.319271   -0.203521   -1.807043
     40          1           0        6.004150    1.794546   -0.175652
     41          1           0        6.281660    1.351749   -1.865152
     42          1           0        6.505439    0.150748   -0.586528
 ---------------------------------------------------------------------

 SCF Done:  E(RB3LYP) =  -1060.36818196     A.U. after    1 cycles

 The electronic state is 1-A.
 Alpha  occ. eigenvalues --  -88.87022 -10.21354 -10.20400 -10.20228 -10.20089
 Alpha  occ. eigenvalues --  -10.19723 -10.19044 -10.18834 -10.18818 -10.18746
 Alpha  occ. eigenvalues --  -10.18151 -10.18123 -10.17810 -10.17746 -10.17734
 Alpha  occ. eigenvalues --  -10.17351 -10.17100 -10.16237  -7.93138  -5.89625
 Alpha  occ. eigenvalues --   -5.89267  -5.88732  -0.91702  -0.83110  -0.80429
 Alpha  occ. eigenvalues --   -0.78756  -0.76548  -0.74140  -0.72377  -0.70500
 Alpha  occ. eigenvalues --   -0.68283  -0.67578  -0.65885  -0.61212  -0.59163
 Alpha  occ. eigenvalues --   -0.57969  -0.55345  -0.52779  -0.51962  -0.49031
 Alpha  occ. eigenvalues --   -0.47396  -0.46437  -0.45632  -0.45414  -0.44828
 Alpha  occ. eigenvalues --   -0.43751  -0.42760  -0.42424  -0.41571  -0.40952
 Alpha  occ. eigenvalues --   -0.40042  -0.39234  -0.38755  -0.37881  -0.37119
 Alpha  occ. eigenvalues --   -0.36472  -0.36067  -0.35434  -0.34563  -0.34165
 Alpha  occ. eigenvalues --   -0.33488  -0.32767  -0.32616  -0.32414  -0.31293
 Alpha  occ. eigenvalues --   -0.29233  -0.28151  -0.25798  -0.24053  -0.21796
 Alpha  occ. eigenvalues --   -0.20572
 Alpha virt. eigenvalues --   -0.00560   0.01125   0.03610   0.05237   0.07172
 Alpha virt. eigenvalues --    0.08726   0.09654   0.10383   0.10948   0.12199
 Alpha virt. eigenvalues --    0.13038   0.13353   0.13820   0.14603   0.14816

 Mulliken charges:
               1
     1  C   -0.399663
     2  C    0.376603
     3  C   -0.470974
     4  C   -0.345107
     5  C   -0.154248
     6  C    0.249879
     7  S   -0.234550
     8  C    0.139786
     9  C   -0.137484
    10  C   -0.175472
    11  C    0.213029
    12  C   -0.326746
    13  C   -0.081944
    14  C   -0.395345
    15  C   -0.089092
    16  C   -0.216527
    17  C   -0.153685
    18  C   -0.381055
    19  H    0.098254
    20  H    0.105123
    21  H    0.121040
    22  H    0.125088
    23  H    0.123516
    24  H    0.131864
    25  H    0.107690
    26  H    0.084771
    27  H    0.105013
    28  H    0.101515
    29  H    0.109246
    30  H    0.099405
    31  H    0.081560
    32  H    0.140729
    33  H    0.116811
    34  H    0.107347
    35  H    0.095602
    36  H    0.093652
    37  H    0.099462
    38  H    0.101941
    39  H    0.095253
    40  H    0.113580
    41  H    0.111729
    42  H    0.112408
 Sum of Mulliken charges =  -0.00000

 Dipole moment (field-independent basis, Debye):
    X=              0.4308    Y=             -1.1898    Z=              1.1848  Tot=              1.7335
 Quadrupole moment (field-independent basis, Debye-Ang):
   XX=           -112.4727   YY=           -114.6410   ZZ=           -118.1458
   XY=              3.0466   XZ=              0.9698   YZ=              0.2194

  Exact polarizability: 247.568   0.878 183.687   1.925   4.406 161.324
 Approx polarizability: 311.852   2.350 293.109   4.489  -2.289 272.624

                      1                      2                      3
                      A                      A                      A
 Frequencies --     15.2201                32.5189                41.2441
 Red. masses --      3.5443                 3.3615                 3.6047
 Frc consts  --      0.0005                 0.0021                 0.0036
 IR Inten    --      0.1198                 0.3338                 0.0204

                      4                      5                      6
                      A                      A                      A
 Frequencies --     55.1935                74.4256                84.6564
 Red. masses --      3.7907                 1.7671                 2.8719
 Frc consts  --      0.0068                 0.0058                 0.0121
 IR Inten    --      0.0689                 0.0048                 0.1074

                      7                      8                      9
                      A                      A                      A
 Frequencies --     87.4582               121.4691               158.7694
 Red. masses --      3.4253                 2.7721                 2.8761
 Frc consts  --      0.0154                 0.0241                 0.0427
 IR Inten    --      0.1000                 0.1064                 0.4907

                     10                     11                     12
                      A                      A                      A
 Frequencies --    185.5168               189.9635               208.0734
 Red. masses --      1.5181                 1.8434                 1.4024
 Frc consts  --      0.0308                 0.0392                 0.0358
 IR Inten    --      0.3728                 0.4210                 0.3446

                     13                     14                     15
                      A                      A                      A
 Frequencies --    225.8197               230.1075               239.7992
 Red. masses --      3.3706                 2.1231                 1.3627
 Frc consts  --      0.1013                 0.0662                 0.0462
 IR Inten    --      0.4163                 0.4610                 0.1140

                     16                     17                     18
                      A                      A                      A
 Frequencies --    266.0629               278.5215               291.1108
 Red. masses --      2.2200                 3.4391                 2.8192
 Frc consts  --      0.0926                 0.1572                 0.1408
 IR Inten    --      0.0568                 0.5590                 0.2084

                     19                     20                     21
                      A                      A                      A
 Frequencies --    304.9735               341.3015               374.5469
 Red. masses --      2.5966                 2.8871                 2.8222
 Frc consts  --      0.1423                 0.1981                 0.2333
 IR Inten    --      0.3178                 0.6464                 0.3613

                     22                     23                     24
                      A                      A                      A
 Frequencies --    385.8485               388.6449               427.2463
 Red. masses --      2.5928                 3.7505                 2.2856
 Frc consts  --      0.2274                 0.3338                 0.2458
 IR Inten    --      0.3722                 1.0524                 1.6064

                     25                     26                     27
                      A                      A                      A
 Frequencies --    460.1683               505.7031               523.1822
 Red. masses --      4.2900                 2.9463                 3.1212
 Frc consts  --      0.5352                 0.4439                 0.5034
 IR Inten    --      4.0673                 4.5797                 5.8207

                     28                     29                     30
                      A                      A                      A
 Frequencies --    541.8918               588.4291               597.1315
 Red. masses --      3.4999                 3.1538                 3.0016
 Frc consts  --      0.6055                 0.6434                 0.6306
 IR Inten    --      0.5985                 9.7323                 7.0873

                     31                     32                     33
                      A                      A                      A
 Frequencies --    617.1379               663.8460               729.8838
 Red. masses --      4.0489                 2.8706                 1.4391
 Frc consts  --      0.9086                 0.7453                 0.4517
 IR Inten    --      5.7097                 7.4747                 2.4423

                     34                     35                     36
                      A                      A                      A
 Frequencies --    737.6764               745.1507               783.8263
 Red. masses --      1.7070                 1.3405                 2.9516
 Frc consts  --      0.5473                 0.4385                 1.0684
 IR Inten    --      3.6325                 5.4763                23.2965

                     37                     38                     39
                      A                      A                      A
 Frequencies --    792.4950               819.4135               835.9178
 Red. masses --      1.7592                 2.3280                 2.9827
 Frc consts  --      0.6510                 0.9210                 1.2280
 IR Inten    --     22.9936                 3.5015                 7.1501

                     40                     41                     42
                      A                      A                      A
 Frequencies --    840.8209               859.5563               894.9058
 Red. masses --      1.5186                 2.7029                 1.6744
 Frc consts  --      0.6325                 1.1766                 0.7901
 IR Inten    --     11.0449                 2.4725                 4.1255

                     43                     44                     45
                      A                      A                      A
 Frequencies --    904.4187               910.1580               930.7236
 Red. masses --      1.5707                 1.7457                 1.8836
 Frc consts  --      0.7570                 0.8520                 0.9614
 IR Inten    --      2.5027                 5.4181                 4.6034

                     46                     47                     48
                      A                      A                      A
 Frequencies --    933.8018               946.8677               967.2677
 Red. masses --      1.5644                 1.6819                 2.0122
 Frc consts  --      0.8037                 0.8884                 1.1092
 IR Inten    --     32.4416                 9.1358                 1.3916

                     49                     50                     51
                      A                      A                      A
 Frequencies --    976.2952               989.0804              1000.5293
 Red. masses --      2.1072                 1.5816                 2.1995
 Frc consts  --      1.1834                 0.9116                 1.2973
 IR Inten    --      3.6361                 1.1927                 6.7300

                     52                     53                     54
                      A                      A                      A
 Frequencies --   1027.5823              1034.9064              1053.5438
 Red. masses --      2.2476                 1.8126                 1.9447
 Frc consts  --      1.3983                 1.1438                 1.2718
 IR Inten    --      0.3913                 4.7727                 0.3076

                     55                     56                     57
                      A                      A                      A
 Frequencies --   1057.4754              1069.9837              1077.4050
 Red. masses --      2.0668                 1.5394                 1.5643
 Frc consts  --      1.3618                 1.0384                 1.0699
 IR Inten    --      2.9987                 0.2131                 5.0718

                     58                     59                     60
                      A                      A                      A
 Frequencies --   1088.6791              1111.2122              1125.3353
 Red. masses --      2.3031                 1.9571                 2.0998
 Frc consts  --      1.6083                 1.4239                 1.5667
 IR Inten    --      6.1651                 2.7468                 1.5857

                     61                     62                     63
                      A                      A                      A
 Frequencies --   1140.6939              1148.9010              1163.2083
 Red. masses --      1.9726                 1.8573                 2.1200
 Frc consts  --      1.5123                 1.4444                 1.6900
 IR Inten    --      7.6532                12.5314                 6.5355

                     64                     65                     66
                      A                      A                      A
 Frequencies --   1196.6611              1216.7940              1250.7921
 Red. masses --      2.9924                 1.3751                 1.2506
 Frc consts  --      2.5247                 1.1995                 1.1528
 IR Inten    --      0.2732                 4.6032                 1.1754

                     67                     68                     69
                      A                      A                      A
 Frequencies --   1252.1461              1276.2872              1290.8635
 Red. masses --      1.5104                 1.5443                 1.7211
 Frc consts  --      1.3952                 1.4821                 1.6898
 IR Inten    --      1.0208                10.8659                16.1159

                     70                     71                     72
                      A                      A                      A
 Frequencies --   1299.7495              1305.5036              1311.9571
 Red. masses --      1.4140                 1.6973                 1.6623
 Frc consts  --      1.4074                 1.7044                 1.6858
 IR Inten    --     11.0800                 2.0585                 3.4707

                     73                     74                     75
                      A                      A                      A
 Frequencies --   1323.2512              1329.3246              1335.9073
 Red. masses --      1.3906                 1.1158                 1.3613
 Frc consts  --      1.4347                 1.1617                 1.4314
 IR Inten    --      0.5444                 3.2835                 3.1558

                     76                     77                     78
                      A                      A                      A
 Frequencies --   1374.0675              1384.8210              1390.2097
 Red. masses --      1.3567                 1.4426                 1.4551
 Frc consts  --      1.5092                 1.6300                 1.6569
 IR Inten    --      6.7856                 1.3438                 0.6335

                     79                     80                     81
                      A                      A                      A
 Frequencies --   1407.0709              1411.7673              1412.1649
 Red. masses --      1.2490                 1.2516                 1.2410
 Frc consts  --      1.4570                 1.4697                 1.4581
 IR Inten    --      6.5753                 8.0719                 0.8041

                     82                     83                     84
                      A                      A                      A
 Frequencies --   1444.0698              1449.8730              1469.6652
 Red. masses --      2.3317                 1.1616                 1.0857
 Frc consts  --      2.8649                 1.4387                 1.3816
 IR Inten    --      0.7290                 0.6363                 2.3125

                     85                     86                     87
                      A                      A                      A
 Frequencies --   1480.5333              1482.7783              1483.2785
 Red. masses --      1.0771                 1.0532                 1.0753
 Frc consts  --      1.3911                 1.3643                 1.3938
 IR Inten    --      1.1992                 9.1433                 2.0566

                     88                     89                     90
                      A                      A                      A
 Frequencies --   1490.2954              1492.5922              1495.3139
 Red. masses --      1.0607                 1.0618                 1.0684
 Frc consts  --      1.3880                 1.3937                 1.4075
 IR Inten    --      2.7422                 1.4318                 7.1405

                     91                     92                     93
                      A                      A                      A
 Frequencies --   1499.7094              1506.5276              1509.8119
 Red. masses --      1.0407                 1.0516                 1.0813
 Frc consts  --      1.3791                 1.4062                 1.4523
 IR Inten    --      5.3632                 3.9396                 2.9200

                     94                     95                     96
                      A                      A                      A
 Frequencies --   1614.9575              1687.3478              1724.5172
 Red. masses --      5.8887                 7.7207                 5.3724
 Frc consts  --      9.0488                12.9513                 9.4135
 IR Inten    --      1.5449                 4.4897                14.0194

                     97                     98                     99
                      A                      A                      A
 Frequencies --   2979.3257              3010.8801              3016.3525
 Red. masses --      1.0704                 1.0653                 1.0674
 Frc consts  --      5.5980                 5.6897                 5.7219
 IR Inten    --     25.3484                10.7470                18.5766

                    100                    101                    102
                      A                      A                      A
 Frequencies --   3017.9784              3019.4091              3027.2386
 Red. masses --      1.0388                 1.0631                 1.0757
 Frc consts  --      5.5744                 5.7105                 5.8080
 IR Inten    --     26.3704                28.3475                40.0327

                    103                    104                    105
                      A                      A                      A
 Frequencies --   3028.0645              3038.7763              3047.8679
 Red. masses --      1.0376                 1.0399                 1.0956
 Frc consts  --      5.6057                 5.6575                 5.9967
 IR Inten    --     39.5809                35.2907                12.4967

                    106                    107                    108
                      A                      A                      A
 Frequencies --   3062.2437              3063.9382              3075.6497
 Red. masses --      1.0990                 1.0976                 1.0952
 Frc consts  --      6.0720                 6.0711                 6.1042
 IR Inten    --     18.0770                22.0289                 7.4068

                    109                    110                    111
                      A                      A                      A
 Frequencies --   3086.7763              3094.8556              3100.9156
 Red. masses --      1.0883                 1.1020                 1.1009
 Frc consts  --      6.1096                 6.2190                 6.2368
 IR Inten    --      2.3000                50.9986                33.6829

                    112                    113                    114
                      A                      A                      A
 Frequencies --   3102.6895              3113.5732              3124.9809
 Red. masses --      1.1013                 1.0989                 1.0928
 Frc consts  --      6.2465                 6.2764                 6.2877
 IR Inten    --     24.7399                26.4640                 2.8415

                    115                    116                    117
                      A                      A                      A
 Frequencies --   3126.4759              3139.8878              3140.8564
 Red. masses --      1.0904                 1.0866                 1.0612
 Frc consts  --      6.2799                 6.3114                 6.1679
 IR Inten    --     46.0589                11.1505                 9.0577

                    118                    119                    120
                      A                      A                      A
 Frequencies --   3176.9236              3212.6489              3221.0466
 Red. masses --      1.0840                 1.1145                 1.1145
 Frc consts  --      6.4463                 6.7771                 6.8130
 IR Inten    --     10.8993                28.3721                18.1631

 - Thermochemistry -
 -------------------
 Temperature   298.150 Kelvin.  Pressure   1.00000 Atm.
 Atom     1 has atomic number  6 and mass  12.00000

 Molecular mass:   260.15987 amu.
 Principal axes and moments of inertia in atomic units:
                           1         2         3
     Eigenvalues --  2359.623239715.89236**********
           X            0.99998   0.00395  -0.00572
           Y           -0.00391   0.99996   0.00836
           Z            0.00575  -0.00834   0.99995
 This molecule is an asymmetric top.
 Rotational symmetry number  1.
 Warning -- assumption of classical behavior for rotation
           may cause significant error
 Rotational temperatures (Kelvin)      0.03671     0.00891     0.00840
 Rotational constants (GHZ):           0.76484     0.18575     0.17503
 Zero-point vibrational energy     956017.6 (Joules/Mol)
                                  228.49369 (Kcal/Mol)
 Warning -- explicit consideration of  31 degrees of freedom as
           vibrations may cause significant error
 Vibrational temperatures:     21.90    46.79    59.34    79.41   107.08
          (Kelvin)            121.80   125.83   174.77   228.43   266.92
                              273.32   299.37   324.90   331.07   345.02
                              382.81   400.73   418.84   438.79   491.06
                              538.89   555.15   559.17   614.71   662.08
                              727.59   752.74   779.66   846.62   859.14
                              887.92   955.13  1050.14  1061.35  1072.11
                             1127.75  1140.22  1178.95  1202.70  1209.75
                             1236.71  1287.57  1301.26  1309.51  1339.10
                             1343.53  1362.33  1391.68  1404.67  1423.07
                             1439.54  1478.46  1489.00  1515.81  1521.47
                             1539.47  1550.15  1566.37  1598.79  1619.11
                             1641.20  1653.01  1673.60  1721.73  1750.70
                             1799.61  1801.56  1836.29  1857.26  1870.05
                             1878.33  1887.61  1903.86  1912.60  1922.07
                             1976.98  1992.45  2000.20  2024.46  2031.22
                             2031.79  2077.69  2086.04  2114.52  2130.16
                             2133.39  2134.11  2144.20  2147.51  2151.42
                             2157.75  2167.56  2172.28  2323.56  2427.72
                             2481.20  4286.59  4331.98  4339.86  4342.20
                             4344.26  4355.52  4356.71  4372.12  4385.20
                             4405.89  4408.32  4425.17  4441.18  4452.81
                             4461.53  4464.08  4479.74  4496.15  4498.30
                             4517.60  4518.99  4570.88  4622.29  4634.37

 Zero-point correction=                           0.364128 (Hartree/Particle)
 Thermal correction to Energy=                    0.383937
 Thermal correction to Enthalpy=                  0.384881
 Thermal correction to Gibbs Free Energy=         0.314385
 Sum of electronic and zero-point Energies=          -1060.004054
 Sum of electronic and thermal Energies=             -1059.984245
 Sum of electronic and thermal Enthalpies=           -1059.983301
 Sum of electronic and thermal Free Energies=        -1060.053797

                     E (Thermal)             CV                S
                      KCal/Mol        Cal/Mol-Kelvin    Cal/Mol-Kelvin
 Total                  240.924             75.255            148.373
 Electronic               0.000              0.000              0.000
 Translational            0.889              2.981             42.568
 Rotational               0.889              2.981             33.824
 Vibrational            239.147             69.294             71.981
 Vibration     1          0.593              1.986              7.177
 Vibration     2          0.594              1.983              5.670
 Vibration     3          0.594              1.981              5.198
 Vibration     4          0.596              1.975              4.622
 Vibration     5          0.599              1.966              4.033
 Vibration     6          0.601              1.960              3.780
 Vibration     7          0.601              1.958              3.716
 Vibration     8          0.609              1.931              3.077
 Vibration     9          0.621              1.893              2.564
 Vibration    10          0.632              1.860              2.272
 Vibration    11          0.633              1.854              2.228
 Vibration    12          0.641              1.828              2.061
 Vibration    13          0.650              1.802              1.912
 Vibration    14          0.652              1.795              1.878
 Vibration    15          0.657              1.780              1.804
 Vibration    16          0.672              1.735              1.622
 Vibration    17          0.679              1.713              1.543
 Vibration    18          0.687              1.690              1.467
 Vibration    19          0.696              1.664              1.389
 Vibration    20          0.721              1.593              1.206
 Vibration    21          0.746              1.524              1.061
 Vibration    22          0.755              1.500              1.016
 Vibration    23          0.757              1.494              1.005
 Vibration    24          0.789              1.411              0.868
 Vibration    25          0.818              1.338              0.766
 Vibration    26          0.861              1.237              0.644
 Vibration    27          0.878              1.199              0.603
 Vibration    28          0.897              1.157              0.561
 Vibration    29          0.946              1.056              0.470
 Vibration    30          0.955              1.038              0.455
 Vibration    31          0.977              0.996              0.421

 Optimization completed.
    -- Stationary point found.
 Normal termination of Gaussian 16 at Tue May 23 20:16:10 2023.
