 Gaussian 16, Revision A.03,
 Gaussian 16:  ES64L-G16RevA.03 25-Dec-2016

 -----------------------------
 # opt freq b3lyp/6-31g(2df,p)
 -----------------------------

 -------------------
 Title Card Required
 -------------------
 Symbolic Z-matrix:
 Charge =  0 Multiplicity = 1

 SCF Done:  E(RB3LYP) =  -1148.94696331     A.U. after   14 cycles
 SCF Done:  E(RB3LYP) =  -1148.96066635     A.U. after   13 cycles
 SCF Done:  E(RB3LYP) =  -1148.96689401     A.U. after   14 cycles
 SCF Done:  E(RB3LYP) =  -1148.97169727     A.U. after   13 cycles
 SCF Done:  E(RB3LYP) =  -1148.97351061     A.U. after   13 cycles
 SCF Done:  E(RB3LYP) =  -1148.97882801     A.U. after   13 cycles
 SCF Done:  E(RB3LYP) =  -1148.98001265     A.U. after   13 cycles
 SCF Done:  E(RB3LYP) =  -1148.98152909     A.U. after   12 cycles
 SCF Done:  E(RB3LYP) =  -1148.98202604     A.U. after   13 cycles
 SCF Done:  E(RB3LYP) =  -1148.98232953     A.U. after   13 cycles
 SCF Done:  E(RB3LYP) =  -1148.98683949     A.U. after   12 cycles
 SCF Done:  E(RB3LYP) =  -1148.98691042     A.U. after   12 cycles
 SCF Done:  E(RB3LYP) =  -1148.98691944     A.U. after   10 cycles
 SCF Done:  E(RB3LYP) =  -1148.98692228     A.U. after    9 cycles
 SCF Done:  E(RB3LYP) =  -1148.98692297     A.U. after    9 cycles
 SCF Done:  E(RB3LYP) =  -1148.98692384     A.U. after    9 cycles
 SCF Done:  E(RB3LYP) =  -1148.98692409     A.U. after    8 cycles
 SCF Done:  E(RB3LYP) =  -1148.98692419     A.U. after    8 cycles
 SCF Done:  E(RB3LYP) =  -1148.98692419     A.U. after    6 cycles
 Optimization completed.
    -- Stationary point found.
 Normal termination of Gaussian 16 at Sun May 28 23:54:27 2023.

 ----------------------------------------------------------------------
 #N Geom=AllCheck Guess=TCheck SCRF=Check GenChk RB3LYP/6-31G(2df,p) Fr
 eq
 ----------------------------------------------------------------------

 Structure from the checkpoint file:  "CdCqCCCrCqCCrCqdSrS.chk"
 -------------------
 Title Card Required
 -------------------
 Charge =  0 Multiplicity = 1

                         Standard orientation:
 ---------------------------------------------------------------------
 Center     Atomic      Atomic             Coordinates (Angstroms)
 Number     Number       Type             X           Y           Z
 ---------------------------------------------------------------------
      1          6           0       -1.219928    0.577032   -1.986243
      2          6           0       -0.749754    0.390744   -0.750633
      3          6           0       -1.569354   -0.185389    0.383030
      4          6           0       -2.997199   -0.623161    0.045024
      5          6           0       -3.728669   -1.202154    1.259582
      6          6           0        0.689507    0.786454   -0.414984
      7          6           0        0.772769    1.977161    0.563382
      8          6           0        0.110324    3.244666    0.015978
      9          6           0        1.510217   -0.429806    0.042994
     10         16           0        2.297720   -0.570158    1.469501
     11         16           0        1.634557   -1.759951   -1.098975
     12          1           0       -2.236946    0.326119   -2.263033
     13          1           0       -0.601784    1.006141   -2.768777
     14          1           0       -1.606645    0.552639    1.196744
     15          1           0       -1.023300   -1.038267    0.810059
     16          1           0       -2.970535   -1.370724   -0.757181
     17          1           0       -3.561601    0.231510   -0.347574
     18          1           0       -3.205931   -2.079143    1.656554
     19          1           0       -4.745780   -1.510004    0.999102
     20          1           0       -3.800127   -0.466402    2.068221
     21          1           0        1.154520    1.106234   -1.357892
     22          1           0        1.828805    2.171460    0.770784
     23          1           0        0.330888    1.700626    1.525053
     24          1           0        0.564214    3.553619   -0.932580
     25          1           0        0.227785    4.070590    0.723664
     26          1           0       -0.959288    3.103211   -0.163838
     27          1           0        0.781813   -1.289138   -2.036495
 ---------------------------------------------------------------------

 SCF Done:  E(RB3LYP) =  -1148.98692419     A.U. after    1 cycles

 The electronic state is 1-A.
 Alpha  occ. eigenvalues --  -88.90173 -88.85250 -10.28324 -10.21785 -10.21021
 Alpha  occ. eigenvalues --  -10.19253 -10.18812 -10.18760 -10.18570 -10.17831
 Alpha  occ. eigenvalues --  -10.17821  -7.96732  -7.91819  -5.93144  -5.92755
 Alpha  occ. eigenvalues --   -5.92382  -5.88142  -5.88046  -5.87361  -0.86583
 Alpha  occ. eigenvalues --   -0.81685  -0.78498  -0.75800  -0.72468  -0.69289
 Alpha  occ. eigenvalues --   -0.68787  -0.61279  -0.60108  -0.54678  -0.52084
 Alpha  occ. eigenvalues --   -0.48093  -0.47636  -0.47008  -0.45613  -0.43195
 Alpha  occ. eigenvalues --   -0.41676  -0.40543  -0.39504  -0.38713  -0.38239
 Alpha  occ. eigenvalues --   -0.37602  -0.35423  -0.34794  -0.34551  -0.33827
 Alpha  occ. eigenvalues --   -0.33531  -0.32824  -0.31671  -0.26866  -0.25022
 Alpha  occ. eigenvalues --   -0.22252
 Alpha virt. eigenvalues --   -0.07428   0.00482   0.01754   0.06238   0.07688
 Alpha virt. eigenvalues --    0.09600   0.10225   0.10977   0.12608   0.13249
 Alpha virt. eigenvalues --    0.13962   0.14700   0.15325   0.15893   0.16871

 Mulliken charges:
               1
     1  C   -0.421970
     2  C    0.333385
     3  C   -0.261590
     4  C   -0.181367
     5  C   -0.386022
     6  C   -0.155180
     7  C   -0.178944
     8  C   -0.395216
     9  C    0.225372
    10  S   -0.313780
    11  S   -0.155369
    12  H    0.117108
    13  H    0.105513
    14  H    0.116415
    15  H    0.128879
    16  H    0.103863
    17  H    0.103100
    18  H    0.120599
    19  H    0.113974
    20  H    0.116838
    21  H    0.106364
    22  H    0.122910
    23  H    0.121922
    24  H    0.113262
    25  H    0.117831
    26  H    0.122107
    27  H    0.159995
 Sum of Mulliken charges =  -0.00000

 Dipole moment (field-independent basis, Debye):
    X=             -2.4308    Y=              1.2667    Z=             -1.9372  Tot=              3.3565
 Quadrupole moment (field-independent basis, Debye-Ang):
   XX=            -87.7447   YY=            -84.9970   ZZ=            -82.6136
   XY=              3.9123   XZ=             -3.4068   YZ=              1.4154

  Exact polarizability: 134.701  -3.263 125.198  16.002   3.888 143.283
 Approx polarizability: 191.025  -4.596 183.345  41.755  12.404 268.233

                      1                      2                      3
                      A                      A                      A
 Frequencies --     32.3861                42.9383                58.3849
 Red. masses --      8.7579                 3.7436                 1.7160
 Frc consts  --      0.0054                 0.0041                 0.0034
 IR Inten    --      1.1556                 0.3935                 0.2255

                      4                      5                      6
                      A                      A                      A
 Frequencies --     89.7748               124.7084               135.6608
 Red. masses --      2.8034                 2.5136                 2.2698
 Frc consts  --      0.0133                 0.0230                 0.0246
 IR Inten    --      0.6172                 0.1266                 0.1000

                      7                      8                      9
                      A                      A                      A
 Frequencies --    166.3311               177.9246               216.0578
 Red. masses --      4.1059                 3.0817                 1.4400
 Frc consts  --      0.0669                 0.0575                 0.0396
 IR Inten    --      1.2114                 0.6894                 0.6142

                     10                     11                     12
                      A                      A                      A
 Frequencies --    244.9592               263.9075               278.0231
 Red. masses --      1.1021                 5.5885                 2.2545
 Frc consts  --      0.0390                 0.2293                 0.1027
 IR Inten    --      0.0065                 0.4448                 1.1466

                     13                     14                     15
                      A                      A                      A
 Frequencies --    325.3032               361.4573               364.0795
 Red. masses --      3.7734                 2.8012                 1.7614
 Frc consts  --      0.2353                 0.2156                 0.1376
 IR Inten    --      0.1368                 1.3083                11.0404

                     16                     17                     18
                      A                      A                      A
 Frequencies --    380.7142               438.7723               448.5043
 Red. masses --      2.4722                 3.0214                 3.1366
 Frc consts  --      0.2111                 0.3427                 0.3717
 IR Inten    --      5.0150                 7.6220                 0.4777

                     19                     20                     21
                      A                      A                      A
 Frequencies --    541.0150               594.7051               689.9311
 Red. masses --      2.3224                 3.5586                 1.6244
 Frc consts  --      0.4005                 0.7415                 0.4556
 IR Inten    --      7.4612                 3.2722                 1.0761

                     22                     23                     24
                      A                      A                      A
 Frequencies --    758.3309               760.5897               776.6946
 Red. masses --      1.5478                 1.2231                 1.9908
 Frc consts  --      0.5244                 0.4169                 0.7076
 IR Inten    --      1.0316                 2.8230                13.8319

                     25                     26                     27
                      A                      A                      A
 Frequencies --    825.9463               885.1935               891.6187
 Red. masses --      1.7384                 2.2011                 1.2325
 Frc consts  --      0.6987                 1.0162                 0.5773
 IR Inten    --      6.1144                14.7387                 3.4360

                     28                     29                     30
                      A                      A                      A
 Frequencies --    920.3390               933.9288               941.4046
 Red. masses --      1.8284                 1.5385                 1.3620
 Frc consts  --      0.9125                 0.7906                 0.7112
 IR Inten    --      0.8354                34.0712                27.7967

                     31                     32                     33
                      A                      A                      A
 Frequencies --    968.8167               983.1357              1048.2376
 Red. masses --      2.1127                 1.9567                 2.2009
 Frc consts  --      1.1683                 1.1143                 1.4249
 IR Inten    --     33.5095                23.0959                 0.2337

                     34                     35                     36
                      A                      A                      A
 Frequencies --   1054.9833              1083.7684              1117.8507
 Red. masses --      2.5307                 1.5816                 2.3276
 Frc consts  --      1.6595                 1.0945                 1.7137
 IR Inten    --      0.1859                 5.3223                 6.8859

                     37                     38                     39
                      A                      A                      A
 Frequencies --   1127.2957              1140.4027              1201.0100
 Red. masses --      1.7027                 2.1257                 5.2576
 Frc consts  --      1.2748                 1.6288                 4.4682
 IR Inten    --      2.1634                 7.2072                98.1242

                     40                     41                     42
                      A                      A                      A
 Frequencies --   1220.5721              1270.3202              1273.2333
 Red. masses --      2.1180                 1.2826                 1.2866
 Frc consts  --      1.8591                 1.2194                 1.2289
 IR Inten    --      2.8764                 0.4352                 1.4052

                     43                     44                     45
                      A                      A                      A
 Frequencies --   1279.0438              1326.9012              1328.5311
 Red. masses --      1.2823                 1.2114                 1.1174
 Frc consts  --      1.2360                 1.2567                 1.1620
 IR Inten    --      9.6227                 0.2674                 0.4252

                     46                     47                     48
                      A                      A                      A
 Frequencies --   1333.8187              1367.3278              1403.9880
 Red. masses --      1.4629                 1.4053                 1.6775
 Frc consts  --      1.5334                 1.5480                 1.9482
 IR Inten    --      2.3971                 2.0607                 4.3285

                     49                     50                     51
                      A                      A                      A
 Frequencies --   1414.4177              1414.9389              1454.0427
 Red. masses --      1.2295                 1.2374                 1.1730
 Frc consts  --      1.4493                 1.4596                 1.4611
 IR Inten    --      2.1991                 1.2485                 1.6029

                     52                     53                     54
                      A                      A                      A
 Frequencies --   1469.5736              1485.4830              1494.3804
 Red. masses --      1.0851                 1.0623                 1.0508
 Frc consts  --      1.3807                 1.3812                 1.3826
 IR Inten    --      8.5659                 3.1646                 1.5144

                     55                     56                     57
                      A                      A                      A
 Frequencies --   1497.9952              1500.1938              1505.7497
 Red. masses --      1.0399                 1.0399                 1.0659
 Frc consts  --      1.3749                 1.3789                 1.4238
 IR Inten    --      5.2719                 5.6163                 2.1531

                     58                     59                     60
                      A                      A                      A
 Frequencies --   1510.1692              1699.7521              2623.8067
 Red. masses --      1.0854                 5.0720                 1.0376
 Frc consts  --      1.4585                 8.6339                 4.2089
 IR Inten    --      1.9664                15.0328                 9.6143

                     61                     62                     63
                      A                      A                      A
 Frequencies --   3007.6771              3008.6644              3025.5211
 Red. masses --      1.0698                 1.0704                 1.0598
 Frc consts  --      5.7020                 5.7088                 5.7157
 IR Inten    --      7.5468                 6.6473                17.4486

                     64                     65                     66
                      A                      A                      A
 Frequencies --   3029.6395              3031.6782              3034.2137
 Red. masses --      1.0946                 1.0375                 1.0372
 Frc consts  --      5.9195                 5.6185                 5.6263
 IR Inten    --      5.0432                32.1900                23.4372

                     67                     68                     69
                      A                      A                      A
 Frequencies --   3061.0277              3062.6311              3088.6922
 Red. masses --      1.0854                 1.0774                 1.0992
 Frc consts  --      5.9922                 5.9538                 6.1785
 IR Inten    --     16.4708                 7.4519                 2.5442

                     70                     71                     72
                      A                      A                      A
 Frequencies --   3099.2498              3105.2715              3106.6939
 Red. masses --      1.1024                 1.1011                 1.1012
 Frc consts  --      6.2386                 6.2555                 6.2618
 IR Inten    --     41.8502                32.5017                29.3693

                     73                     74                     75
                      A                      A                      A
 Frequencies --   3116.3931              3149.7807              3232.7211
 Red. masses --      1.1020                 1.0622                 1.1126
 Frc consts  --      6.3056                 6.2092                 6.8506
 IR Inten    --     34.3681                 4.8982                10.7455

 - Thermochemistry -
 -------------------
 Temperature   298.150 Kelvin.  Pressure   1.00000 Atm.
 Atom     1 has atomic number  6 and mass  12.00000

 Molecular mass:   188.06934 amu.
 Principal axes and moments of inertia in atomic units:
                           1         2         3
     Eigenvalues --  2150.171853322.301923885.14924
           X            0.99766   0.06341  -0.02537
           Y           -0.06415   0.99751  -0.02937
           Z            0.02344   0.03093   0.99925
 This molecule is an asymmetric top.
 Rotational symmetry number  1.
 Warning -- assumption of classical behavior for rotation
           may cause significant error
 Rotational temperatures (Kelvin)      0.04028     0.02607     0.02229
 Rotational constants (GHZ):           0.83935     0.54322     0.46452
 Zero-point vibrational energy     600699.9 (Joules/Mol)
                                  143.57072 (Kcal/Mol)
 Warning -- explicit consideration of  20 degrees of freedom as
           vibrations may cause significant error
 Vibrational temperatures:     46.60    61.78    84.00   129.17   179.43
          (Kelvin)            195.19   239.31   255.99   310.86   352.44
                              379.70   400.01   468.04   520.06   523.83
                              547.76   631.30   645.30   778.40   855.65
                              992.66  1091.07  1094.32  1117.49  1188.35
                             1273.60  1282.84  1324.16  1343.72  1354.47
                             1393.91  1414.51  1508.18  1517.89  1559.30
                             1608.34  1621.93  1640.79  1727.99  1756.13
                             1827.71  1831.90  1840.26  1909.11  1911.46
                             1919.07  1967.28  2020.03  2035.03  2035.78
                             2092.04  2114.39  2137.28  2150.08  2155.28
                             2158.44  2166.44  2172.80  2445.56  3775.07
                             4327.38  4328.80  4353.05  4358.98  4361.91
                             4365.56  4404.14  4406.44  4443.94  4459.13
                             4467.79  4469.84  4483.79  4531.83  4651.16

 Zero-point correction=                           0.228795 (Hartree/Particle)
 Thermal correction to Energy=                    0.242863
 Thermal correction to Enthalpy=                  0.243807
 Thermal correction to Gibbs Free Energy=         0.186787
 Sum of electronic and zero-point Energies=          -1148.758130
 Sum of electronic and thermal Energies=             -1148.744061
 Sum of electronic and thermal Enthalpies=           -1148.743117
 Sum of electronic and thermal Free Energies=        -1148.800137

                     E (Thermal)             CV                S
                      KCal/Mol        Cal/Mol-Kelvin    Cal/Mol-Kelvin
 Total                  152.399             50.564            120.008
 Electronic               0.000              0.000              0.000
 Translational            0.889              2.981             41.601
 Rotational               0.889              2.981             31.696
 Vibrational            150.621             44.603             46.712
 Vibration     1          0.594              1.983              5.678
 Vibration     2          0.595              1.980              5.119
 Vibration     3          0.596              1.974              4.511
 Vibration     4          0.602              1.956              3.665
 Vibration     5          0.610              1.928              3.026
 Vibration     6          0.613              1.918              2.864
 Vibration     7          0.624              1.884              2.477
 Vibration     8          0.628              1.869              2.350
 Vibration     9          0.645              1.817              1.992
 Vibration    10          0.660              1.771              1.767
 Vibration    11          0.670              1.739              1.636
 Vibration    12          0.679              1.714              1.546
 Vibration    13          0.709              1.625              1.283
 Vibration    14          0.736              1.552              1.116
 Vibration    15          0.738              1.546              1.105
 Vibration    16          0.750              1.511              1.036
 Vibration    17          0.799              1.386              0.830
 Vibration    18          0.808              1.364              0.800
 Vibration    19          0.896              1.159              0.563
 Vibration    20          0.952              1.043              0.459

 Optimization completed.
    -- Stationary point found.
 Normal termination of Gaussian 16 at Mon May 29 00:58:43 2023.
