 Gaussian 16, Revision A.03,
 Gaussian 16:  ES64L-G16RevA.03 25-Dec-2016

 -----------------------------
 # opt freq b3lyp/6-31g(2df,p)
 -----------------------------

 -------------------
 Title Card Required
 -------------------
 Symbolic Z-matrix:
 Charge =  0 Multiplicity = 1

 SCF Done:  E(RB3LYP) =  -770.917816841     A.U. after   12 cycles
 SCF Done:  E(RB3LYP) =  -770.933350144     A.U. after   12 cycles
 SCF Done:  E(RB3LYP) =  -770.937401442     A.U. after   11 cycles
 SCF Done:  E(RB3LYP) =  -770.940228701     A.U. after   11 cycles
 SCF Done:  E(RB3LYP) =  -770.943319449     A.U. after   11 cycles
 SCF Done:  E(RB3LYP) =  -770.944896922     A.U. after   10 cycles
 SCF Done:  E(RB3LYP) =  -770.946507854     A.U. after   11 cycles
 SCF Done:  E(RB3LYP) =  -770.948182141     A.U. after   12 cycles
 SCF Done:  E(RB3LYP) =  -770.949744153     A.U. after   10 cycles
 SCF Done:  E(RB3LYP) =  -770.951039779     A.U. after   11 cycles
 SCF Done:  E(RB3LYP) =  -770.956988133     A.U. after    8 cycles
 SCF Done:  E(RB3LYP) =  -770.956994267     A.U. after    8 cycles
 SCF Done:  E(RB3LYP) =  -770.956994905     A.U. after    7 cycles
 SCF Done:  E(RB3LYP) =  -770.956995382     A.U. after    8 cycles
 SCF Done:  E(RB3LYP) =  -770.956995475     A.U. after    7 cycles
 SCF Done:  E(RB3LYP) =  -770.956995570     A.U. after    7 cycles
 SCF Done:  E(RB3LYP) =  -770.956995617     A.U. after    7 cycles
 SCF Done:  E(RB3LYP) =  -770.956995636     A.U. after    6 cycles
 SCF Done:  E(RB3LYP) =  -770.956995642     A.U. after    5 cycles
 Optimization completed.
    -- Stationary point found.
 Normal termination of Gaussian 16 at Sun May 28 12:32:11 2023.

 ----------------------------------------------------------------------
 #N Geom=AllCheck Guess=TCheck SCRF=Check GenChk RB3LYP/6-31G(2df,p) Fr
 eq
 ----------------------------------------------------------------------

 Structure from the checkpoint file:  "CdCqCrCCOC1CCCNNCCCOC1.chk"
 -------------------
 Title Card Required
 -------------------
 Charge =  0 Multiplicity = 1

                         Standard orientation:
 ---------------------------------------------------------------------
 Center     Atomic      Atomic             Coordinates (Angstroms)
 Number     Number       Type             X           Y           Z
 ---------------------------------------------------------------------
      1          6           0        5.658532    1.304555    0.846407
      2          6           0        5.051751    0.203823    0.402781
      3          6           0        5.384581   -1.161585    0.950880
      4          6           0        4.002446    0.264446   -0.683782
      5          6           0        2.581483   -0.000946   -0.174749
      6          8           0        1.720511    0.064178   -1.297142
      7          6           0        0.322498   -0.104372   -1.070924
      8          6           0       -0.019543   -1.515385   -0.555849
      9          6           0       -1.520341   -1.878986   -0.589492
     10          6           0       -2.234188   -1.670125    0.750028
     11          7           0       -3.690025   -1.714842    0.592947
     12          7           0       -4.177586   -0.567452   -0.090455
     13          6           0       -4.421060    0.639090    0.716853
     14          6           0       -3.818091    1.923440    0.118066
     15          6           0       -2.311765    2.079920    0.302785
     16          8           0       -1.629776    1.126176   -0.480139
     17          6           0       -0.242374    1.058965   -0.240156
     18          1           0        6.411863    1.266822    1.627190
     19          1           0        5.428561    2.285118    0.441385
     20          1           0        6.165767   -1.108734    1.713329
     21          1           0        5.730483   -1.828924    0.151182
     22          1           0        4.508556   -1.645733    1.399098
     23          1           0        4.218759   -0.477046   -1.463868
     24          1           0        4.011101    1.247335   -1.164481
     25          1           0        2.319287    0.754381    0.581422
     26          1           0        2.525013   -0.985560    0.310504
     27          1           0       -0.114579    0.000625   -2.070788
     28          1           0        0.368168   -1.648067    0.463025
     29          1           0        0.544130   -2.209217   -1.189219
     30          1           0       -1.639943   -2.927662   -0.881800
     31          1           0       -2.038335   -1.278037   -1.340353
     32          1           0       -1.893653   -0.729353    1.210299
     33          1           0       -1.970713   -2.476043    1.447161
     34          1           0       -4.121325   -1.793175    1.515410
     35          1           0       -5.016743   -0.847325   -0.580209
     36          1           0       -3.999844    0.477437    1.718013
     37          1           0       -5.500672    0.796860    0.860617
     38          1           0       -4.297450    2.788695    0.594141
     39          1           0       -4.056364    1.972402   -0.950320
     40          1           0       -2.051951    1.953487    1.369542
     41          1           0       -1.998129    3.099005    0.017735
     42          1           0       -0.047507    0.918856    0.836525
     43          1           0        0.259344    1.990032   -0.551818
 ---------------------------------------------------------------------

 SCF Done:  E(RB3LYP) =  -770.956995642     A.U. after    1 cycles

 The electronic state is 1-A.
 Alpha  occ. eigenvalues --  -19.13655 -19.13006 -14.32918 -14.32676 -10.22653
 Alpha  occ. eigenvalues --  -10.22302 -10.22237 -10.22054 -10.20597 -10.19099
 Alpha  occ. eigenvalues --  -10.18921 -10.18050 -10.17807 -10.17772 -10.17087
 Alpha  occ. eigenvalues --  -10.16515 -10.16080  -1.03374  -1.01947  -0.95500
 Alpha  occ. eigenvalues --   -0.81649  -0.80953  -0.77578  -0.76718  -0.72886
 Alpha  occ. eigenvalues --   -0.69622  -0.68156  -0.67481  -0.63057  -0.62500
 Alpha  occ. eigenvalues --   -0.58909  -0.57421  -0.55417  -0.52434  -0.51028
 Alpha  occ. eigenvalues --   -0.50047  -0.48357  -0.47788  -0.46928  -0.46171
 Alpha  occ. eigenvalues --   -0.45645  -0.44964  -0.44008  -0.43109  -0.42029
 Alpha  occ. eigenvalues --   -0.41546  -0.40549  -0.40143  -0.38784  -0.38340
 Alpha  occ. eigenvalues --   -0.37083  -0.36544  -0.35776  -0.35535  -0.34639
 Alpha  occ. eigenvalues --   -0.34053  -0.33841  -0.32952  -0.32566  -0.31806
 Alpha  occ. eigenvalues --   -0.30671  -0.28861  -0.25399  -0.24732  -0.24054
 Alpha  occ. eigenvalues --   -0.22206  -0.21803
 Alpha virt. eigenvalues --    0.02593   0.07390   0.08750   0.09559   0.10028
 Alpha virt. eigenvalues --    0.10220   0.10983   0.11921   0.12759   0.13553
 Alpha virt. eigenvalues --    0.14040   0.14204   0.15041   0.15312   0.15469

 Mulliken charges:
               1
     1  C   -0.406204
     2  C    0.371352
     3  C   -0.470624
     4  C   -0.285335
     5  C   -0.067102
     6  O   -0.267162
     7  C    0.105109
     8  C   -0.230852
     9  C   -0.166534
    10  C   -0.114571
    11  N   -0.293199
    12  N   -0.257858
    13  C   -0.141260
    14  C   -0.194134
    15  C   -0.044936
    16  O   -0.230146
    17  C   -0.082040
    18  H    0.099831
    19  H    0.100031
    20  H    0.120453
    21  H    0.125095
    22  H    0.125942
    23  H    0.106968
    24  H    0.107792
    25  H    0.091738
    26  H    0.091293
    27  H    0.096413
    28  H    0.087071
    29  H    0.100412
    30  H    0.087235
    31  H    0.127551
    32  H    0.077275
    33  H    0.083878
    34  H    0.201146
    35  H    0.225976
    36  H    0.095755
    37  H    0.087058
    38  H    0.089983
    39  H    0.111714
    40  H    0.077541
    41  H    0.084472
    42  H    0.080366
    43  H    0.092510
 Sum of Mulliken charges =  -0.00000

 Dipole moment (field-independent basis, Debye):
    X=             -1.2575    Y=              0.6384    Z=              2.3050  Tot=              2.7022
 Quadrupole moment (field-independent basis, Debye-Ang):
   XX=            -98.6153   YY=           -104.8208   ZZ=           -106.2791
   XY=             -6.1735   XZ=             -1.7366   YZ=             -0.4812

  Exact polarizability: 197.502   2.172 165.205   6.138   1.716 132.213
 Approx polarizability: 229.663   7.576 237.962  13.198   5.257 214.323

                      1                      2                      3
                      A                      A                      A
 Frequencies --     15.0316                30.6626                39.2033
 Red. masses --      2.6852                 3.9175                 3.8449
 Frc consts  --      0.0004                 0.0022                 0.0035
 IR Inten    --      0.1678                 0.1796                 0.1302

                      4                      5                      6
                      A                      A                      A
 Frequencies --     60.0397                62.1383                92.9637
 Red. masses --      2.4271                 1.9151                 2.9229
 Frc consts  --      0.0052                 0.0044                 0.0149
 IR Inten    --      0.1189                 0.2876                 0.0943

                      7                      8                      9
                      A                      A                      A
 Frequencies --     99.1694               111.5899               150.2231
 Red. masses --      3.0515                 3.5896                 3.5768
 Frc consts  --      0.0177                 0.0263                 0.0476
 IR Inten    --      0.4932                 0.5501                 3.0185

                     10                     11                     12
                      A                      A                      A
 Frequencies --    162.4165               183.8039               194.1703
 Red. masses --      4.8077                 1.1342                 2.6627
 Frc consts  --      0.0747                 0.0226                 0.0591
 IR Inten    --      2.7970                 0.3218                 2.9603

                     13                     14                     15
                      A                      A                      A
 Frequencies --    224.6852               247.2160               260.9504
 Red. masses --      2.5718                 2.9732                 3.1147
 Frc consts  --      0.0765                 0.1071                 0.1250
 IR Inten    --      1.4182                 0.8630                 2.1330

                     16                     17                     18
                      A                      A                      A
 Frequencies --    276.3969               295.7925               314.1100
 Red. masses --      3.2367                 2.9236                 2.3185
 Frc consts  --      0.1457                 0.1507                 0.1348
 IR Inten    --      3.2377                 0.9563                 0.3474

                     19                     20                     21
                      A                      A                      A
 Frequencies --    330.5245               363.6249               391.2105
 Red. masses --      3.1523                 2.5947                 2.2463
 Frc consts  --      0.2029                 0.2021                 0.2025
 IR Inten    --      1.0961                 5.5658                 0.0914

                     22                     23                     24
                      A                      A                      A
 Frequencies --    411.8488               429.8992               435.4322
 Red. masses --      2.7605                 1.9854                 2.5285
 Frc consts  --      0.2759                 0.2162                 0.2825
 IR Inten    --      5.1681                 1.9896                 1.4156

                     25                     26                     27
                      A                      A                      A
 Frequencies --    465.9996               503.9690               539.2932
 Red. masses --      2.5814                 2.4267                 2.6385
 Frc consts  --      0.3303                 0.3631                 0.4521
 IR Inten    --      3.0588                 4.1809                14.1417

                     28                     29                     30
                      A                      A                      A
 Frequencies --    551.2884               639.1508               680.7962
 Red. masses --      2.6213                 3.7717                 1.8630
 Frc consts  --      0.4694                 0.9078                 0.5087
 IR Inten    --     10.0794                14.4954                46.9260

                     31                     32                     33
                      A                      A                      A
 Frequencies --    730.5050               756.5200               776.6745
 Red. masses --      1.0969                 1.3352                 1.9624
 Frc consts  --      0.3449                 0.4502                 0.6975
 IR Inten    --      0.8315                 6.7153                 4.5998

                     34                     35                     36
                      A                      A                      A
 Frequencies --    803.2135               841.3335               853.5067
 Red. masses --      1.2712                 2.2092                 2.0217
 Frc consts  --      0.4832                 0.9213                 0.8677
 IR Inten    --      0.0346                 2.8940                 3.3912

                     37                     38                     39
                      A                      A                      A
 Frequencies --    857.8593               884.8672               909.1896
 Red. masses --      2.0541                 2.0353                 1.4586
 Frc consts  --      0.8906                 0.9389                 0.7104
 IR Inten    --     29.5754                 2.1067                19.5311

                     40                     41                     42
                      A                      A                      A
 Frequencies --    927.7143               933.3854               955.6252
 Red. masses --      2.4996                 1.3501                 2.3095
 Frc consts  --      1.2675                 0.6930                 1.2426
 IR Inten    --     26.5895                31.4532                 9.7403

                     43                     44                     45
                      A                      A                      A
 Frequencies --    972.6055               991.8242               995.4044
 Red. masses --      2.2027                 1.8017                 1.5805
 Frc consts  --      1.2277                 1.0443                 0.9227
 IR Inten    --      0.1230                 6.4956                10.9691

                     46                     47                     48
                      A                      A                      A
 Frequencies --   1004.2121              1029.7631              1050.8788
 Red. masses --      1.7614                 2.1342                 1.9394
 Frc consts  --      1.0465                 1.3334                 1.2619
 IR Inten    --      3.4015                 8.3464                 0.7737

                     49                     50                     51
                      A                      A                      A
 Frequencies --   1056.2216              1071.1707              1081.5304
 Red. masses --      2.0349                 2.9723                 2.1725
 Frc consts  --      1.3375                 2.0094                 1.4972
 IR Inten    --      0.8486                18.8143                 1.4086

                     52                     53                     54
                      A                      A                      A
 Frequencies --   1085.9008              1094.3379              1104.9339
 Red. masses --      2.8815                 2.1252                 1.6022
 Frc consts  --      2.0019                 1.4995                 1.1525
 IR Inten    --     49.1847                 4.4146                 3.4303

                     55                     56                     57
                      A                      A                      A
 Frequencies --   1119.5600              1133.8258              1144.4063
 Red. masses --      3.2903                 3.3038                 3.5266
 Frc consts  --      2.4298                 2.5024                 2.7212
 IR Inten    --     34.6534                52.9187               214.8385

                     58                     59                     60
                      A                      A                      A
 Frequencies --   1157.6370              1165.2527              1184.5600
 Red. masses --      2.3946                 5.2818                 2.3834
 Frc consts  --      1.8907                 4.2254                 1.9704
 IR Inten    --      7.3799               154.8396                25.5506

                     61                     62                     63
                      A                      A                      A
 Frequencies --   1221.0859              1227.2603              1244.7215
 Red. masses --      1.3088                 1.3172                 1.2446
 Frc consts  --      1.1497                 1.1689                 1.1361
 IR Inten    --      4.2005                 2.9075                13.0315

                     64                     65                     66
                      A                      A                      A
 Frequencies --   1251.2976              1276.7394              1287.8327
 Red. masses --      1.3223                 1.1674                 1.3101
 Frc consts  --      1.2198                 1.1212                 1.2802
 IR Inten    --      4.3774                 7.1754                 4.7983

                     67                     68                     69
                      A                      A                      A
 Frequencies --   1289.3139              1310.7793              1314.7882
 Red. masses --      1.3962                 1.1772                 1.1824
 Frc consts  --      1.3675                 1.1917                 1.2043
 IR Inten    --      3.0428                 3.2438                 0.6708

                     70                     71                     72
                      A                      A                      A
 Frequencies --   1319.9198              1325.1221              1334.5884
 Red. masses --      1.8218                 1.1427                 1.2528
 Frc consts  --      1.8700                 1.1822                 1.3147
 IR Inten    --      2.0458                 2.5811                 0.9599

                     73                     74                     75
                      A                      A                      A
 Frequencies --   1344.3912              1357.7741              1385.1042
 Red. masses --      1.2798                 1.2494                 1.4258
 Frc consts  --      1.3629                 1.3571                 1.6117
 IR Inten    --      6.1198                 3.8572                 0.6535

                     76                     77                     78
                      A                      A                      A
 Frequencies --   1387.8238              1393.2373              1405.1663
 Red. masses --      1.2490                 1.3602                 1.3404
 Frc consts  --      1.4173                 1.5556                 1.5594
 IR Inten    --     16.0494                 2.4108                14.2140

                     79                     80                     81
                      A                      A                      A
 Frequencies --   1410.6566              1412.5239              1419.4779
 Red. masses --      1.2521                 1.3914                 1.3304
 Frc consts  --      1.4681                 1.6356                 1.5794
 IR Inten    --      2.9397                15.4025                12.6859

                     82                     83                     84
                      A                      A                      A
 Frequencies --   1445.6101              1450.8166              1459.9277
 Red. masses --      1.4400                 1.1723                 1.0981
 Frc consts  --      1.7731                 1.4538                 1.3789
 IR Inten    --     11.7027                 0.2948                 6.4004

                     85                     86                     87
                      A                      A                      A
 Frequencies --   1473.2223              1477.7614              1486.1275
 Red. masses --      1.0914                 1.0578                 1.1015
 Frc consts  --      1.3956                 1.3610                 1.4333
 IR Inten    --      2.3199                 1.9013                 1.8403

                     88                     89                     90
                      A                      A                      A
 Frequencies --   1487.2940              1490.5319              1493.4610
 Red. masses --      1.0646                 1.1191                 1.1017
 Frc consts  --      1.3875                 1.4649                 1.4477
 IR Inten    --      9.0043                 2.1321                 3.7561

                     91                     92                     93
                      A                      A                      A
 Frequencies --   1499.2615              1499.3762              1508.5343
 Red. masses --      1.0909                 1.0841                 1.0831
 Frc consts  --      1.4447                 1.4360                 1.4522
 IR Inten    --      7.2853                 5.2941                 6.6444

                     94                     95                     96
                      A                      A                      A
 Frequencies --   1518.6164              1526.4550              1532.1934
 Red. masses --      1.1897                 1.0873                 1.0920
 Frc consts  --      1.6166                 1.4927                 1.5104
 IR Inten    --      3.1104                 2.9091                 5.1185

                     97                     98                     99
                      A                      A                      A
 Frequencies --   1722.2230              2935.3579              2953.1411
 Red. masses --      5.3076                 1.0569                 1.0572
 Frc consts  --      9.2753                 5.3655                 5.4324
 IR Inten    --     15.4710                30.5327                44.1468

                    100                    101                    102
                      A                      A                      A
 Frequencies --   2965.8828              2976.6496              2979.7182
 Red. masses --      1.0991                 1.0659                 1.0658
 Frc consts  --      5.6966                 5.5645                 5.5753
 IR Inten    --     67.0895                62.9919                50.3576

                    103                    104                    105
                      A                      A                      A
 Frequencies --   2981.1588              2989.3309              3011.1326
 Red. masses --      1.0675                 1.0896                 1.0833
 Frc consts  --      5.5898                 5.7365                 5.7871
 IR Inten    --     14.0928                51.8730                14.5044

                    106                    107                    108
                      A                      A                      A
 Frequencies --   3019.4364              3022.4901              3028.2534
 Red. masses --      1.0453                 1.0721                 1.0660
 Frc consts  --      5.6150                 5.7706                 5.7594
 IR Inten    --      9.5885                47.5104                31.1015

                    109                    110                    111
                      A                      A                      A
 Frequencies --   3029.5700              3034.8303              3039.8761
 Red. masses --      1.0662                 1.0865                 1.0946
 Frc consts  --      5.7658                 5.8958                 5.9599
 IR Inten    --     41.2772                27.7750                44.7443

                    112                    113                    114
                      A                      A                      A
 Frequencies --   3044.5654              3049.0769              3068.1569
 Red. masses --      1.0849                 1.0759                 1.0976
 Frc consts  --      5.9249                 5.8932                 6.0874
 IR Inten    --     26.7076                41.9491                16.0231

                    115                    116                    117
                      A                      A                      A
 Frequencies --   3069.9608              3079.2580              3087.5002
 Red. masses --      1.0950                 1.0992                 1.0999
 Frc consts  --      6.0803                 6.1408                 6.1773
 IR Inten    --     56.9645                28.2939                27.2012

                    118                    119                    120
                      A                      A                      A
 Frequencies --   3110.7685              3114.3791              3140.2295
 Red. masses --      1.0964                 1.0995                 1.0611
 Frc consts  --      6.2511                 6.2831                 6.1650
 IR Inten    --     17.9994                24.2579                 8.6568

                    121                    122                    123
                      A                      A                      A
 Frequencies --   3219.5581              3396.7655              3553.2175
 Red. masses --      1.1145                 1.0736                 1.0757
 Frc consts  --      6.8066                 7.2984                 8.0020
 IR Inten    --     17.6035                22.6298                 1.4014

 - Thermochemistry -
 -------------------
 Temperature   298.150 Kelvin.  Pressure   1.00000 Atm.
 Atom     1 has atomic number  6 and mass  12.00000

 Molecular mass:   242.19943 amu.
 Principal axes and moments of inertia in atomic units:
                           1         2         3
     Eigenvalues --  1903.80930********************
           X            0.99998  -0.00612   0.00152
           Y            0.00611   0.99997   0.00408
           Z           -0.00154  -0.00407   0.99999
 This molecule is an asymmetric top.
 Rotational symmetry number  1.
 Warning -- assumption of classical behavior for rotation
           may cause significant error
 Rotational temperatures (Kelvin)      0.04550     0.00840     0.00769
 Rotational constants (GHZ):           0.94796     0.17493     0.16021
 Zero-point vibrational energy    1017599.2 (Joules/Mol)
                                  243.21205 (Kcal/Mol)
 Warning -- explicit consideration of  28 degrees of freedom as
           vibrations may cause significant error
 Vibrational temperatures:     21.63    44.12    56.40    86.38    89.40
          (Kelvin)            133.75   142.68   160.55   216.14   233.68
                              264.45   279.37   323.27   355.69   375.45
                              397.67   425.58   451.93   475.55   523.18
                              562.86   592.56   618.53   626.49   670.47
                              725.10   775.92   793.18   919.60   979.51
                             1051.03  1088.46  1117.46  1155.65  1210.49
                             1228.01  1234.27  1273.13  1308.12  1334.77
                             1342.93  1374.93  1399.36  1427.01  1432.16
                             1444.84  1481.60  1511.98  1519.67  1541.18
                             1556.08  1562.37  1574.51  1589.75  1610.80
                             1631.32  1646.55  1665.58  1676.54  1704.32
                             1756.87  1765.75  1790.88  1800.34  1836.94
                             1852.90  1855.04  1885.92  1891.69  1899.07
                             1906.56  1920.18  1934.28  1953.53  1992.86
                             1996.77  2004.56  2021.72  2029.62  2032.31
                             2042.31  2079.91  2087.40  2100.51  2119.64
                             2126.17  2138.21  2139.88  2144.54  2148.76
                             2157.10  2157.27  2170.44  2184.95  2196.23
                             2204.48  2477.89  4223.33  4248.91  4267.24
                             4282.73  4287.15  4289.22  4300.98  4332.35
                             4344.30  4348.69  4356.98  4358.88  4366.44
                             4373.70  4380.45  4386.94  4414.39  4416.99
                             4430.37  4442.22  4475.70  4480.90  4518.09
                             4632.23  4887.19  5112.29

 Zero-point correction=                           0.387583 (Hartree/Particle)
 Thermal correction to Energy=                    0.406680
 Thermal correction to Enthalpy=                  0.407624
 Thermal correction to Gibbs Free Energy=         0.338181
 Sum of electronic and zero-point Energies=           -770.569413
 Sum of electronic and thermal Energies=              -770.550316
 Sum of electronic and thermal Enthalpies=            -770.549372
 Sum of electronic and thermal Free Energies=         -770.618815

                     E (Thermal)             CV                S
                      KCal/Mol        Cal/Mol-Kelvin    Cal/Mol-Kelvin
 Total                  255.195             71.553            146.156
 Electronic               0.000              0.000              0.000
 Translational            0.889              2.981             42.355
 Rotational               0.889              2.981             33.758
 Vibrational            253.418             65.592             70.042
 Vibration     1          0.593              1.986              7.201
 Vibration     2          0.594              1.984              5.786
 Vibration     3          0.594              1.981              5.299
 Vibration     4          0.597              1.973              4.456
 Vibration     5          0.597              1.972              4.388
 Vibration     6          0.602              1.954              3.597
 Vibration     7          0.604              1.950              3.471
 Vibration     8          0.607              1.940              3.241
 Vibration     9          0.618              1.902              2.669
 Vibration    10          0.623              1.889              2.521
 Vibration    11          0.631              1.862              2.289
 Vibration    12          0.635              1.848              2.188
 Vibration    13          0.649              1.803              1.921
 Vibration    14          0.661              1.767              1.750
 Vibration    15          0.669              1.744              1.655
 Vibration    16          0.678              1.717              1.556
 Vibration    17          0.690              1.682              1.441
 Vibration    18          0.702              1.647              1.341
 Vibration    19          0.713              1.615              1.258
 Vibration    20          0.737              1.547              1.107
 Vibration    21          0.759              1.489              0.996
 Vibration    22          0.776              1.445              0.920
 Vibration    23          0.791              1.405              0.859
 Vibration    24          0.796              1.393              0.841
 Vibration    25          0.823              1.325              0.749
 Vibration    26          0.859              1.241              0.648
 Vibration    27          0.894              1.163              0.567
 Vibration    28          0.907              1.137              0.542

                           ! Non-Optimized Parameters !
 Normal termination of Gaussian 16 at Sun May 28 17:33:27 2023.
