 Gaussian 16, Revision A.03,
 Gaussian 16:  ES64L-G16RevA.03 25-Dec-2016

 -----------------------------
 # opt freq b3lyp/6-31g(2df,p)
 -----------------------------

 -------------------
 Title Card Required
 -------------------
 Symbolic Z-matrix:
 Charge =  0 Multiplicity = 1

 SCF Done:  E(RB3LYP) =  -921.578157197     A.U. after   13 cycles
 SCF Done:  E(RB3LYP) =  -921.586758802     A.U. after   14 cycles
 SCF Done:  E(RB3LYP) =  -921.588355621     A.U. after   12 cycles
 SCF Done:  E(RB3LYP) =  -921.589225082     A.U. after   12 cycles
 SCF Done:  E(RB3LYP) =  -921.589780912     A.U. after   12 cycles
 SCF Done:  E(RB3LYP) =  -921.591677800     A.U. after   11 cycles
 SCF Done:  E(RB3LYP) =  -921.593871775     A.U. after   12 cycles
 SCF Done:  E(RB3LYP) =  -921.592938822     A.U. after   12 cycles
 SCF Done:  E(RB3LYP) =  -921.595098134     A.U. after   12 cycles
 SCF Done:  E(RB3LYP) =  -921.595307321     A.U. after   11 cycles
 SCF Done:  E(RB3LYP) =  -921.595365118     A.U. after    9 cycles
 SCF Done:  E(RB3LYP) =  -921.595375310     A.U. after    9 cycles
 SCF Done:  E(RB3LYP) =  -921.595380694     A.U. after    9 cycles
 SCF Done:  E(RB3LYP) =  -921.595382625     A.U. after    9 cycles
 SCF Done:  E(RB3LYP) =  -921.595382801     A.U. after    7 cycles
 SCF Done:  E(RB3LYP) =  -921.595382770     A.U. after    7 cycles
 SCF Done:  E(RB3LYP) =  -921.595382811     A.U. after    7 cycles
 Optimization completed.
    -- Stationary point found.
 Normal termination of Gaussian 16 at Tue May 23 19:02:40 2023.

 ----------------------------------------------------------------------
 #N Geom=AllCheck Guess=TCheck SCRF=Check GenChk RB3LYP/6-31G(2df,p) Fr
 eq
 ----------------------------------------------------------------------

 Structure from the checkpoint file:  "CdCqCrCdCdC1CNqCCSCrC1C.chk"
 -------------------
 Title Card Required
 -------------------
 Charge =  0 Multiplicity = 1

                         Standard orientation:
 ---------------------------------------------------------------------
 Center     Atomic      Atomic             Coordinates (Angstroms)
 Number     Number       Type             X           Y           Z
 ---------------------------------------------------------------------
      1          6           0        6.166556    0.051935    0.394724
      2          6           0        4.881953    0.181612    0.037349
      3          6           0        4.430790    1.197826   -0.978650
      4          6           0        3.860399   -0.683959    0.639509
      5          6           0        2.574368   -0.651005    0.372976
      6          6           0        1.303582   -0.630499    0.130120
      7          6           0        0.363807   -1.339137   -0.838858
      8          7           0       -0.770887   -0.848903   -0.032146
      9          6           0       -1.981788   -0.419157   -0.700218
     10          6           0       -3.131465   -0.276252    0.300674
     11         16           0       -4.649589    0.274032   -0.557613
     12          6           0       -5.795113    0.310356    0.855116
     13          6           0        0.096837    0.098449    0.731849
     14          6           0        0.025215    1.585045    0.376004
     15          1           0        6.942352    0.676767   -0.033689
     16          1           0        6.480484   -0.684611    1.127270
     17          1           0        5.273382    1.781044   -1.356818
     18          1           0        3.697486    1.886978   -0.544794
     19          1           0        3.936467    0.710305   -1.826509
     20          1           0        4.221573   -1.411695    1.367010
     21          1           0        0.440763   -2.430836   -0.903039
     22          1           0        0.412616   -0.923971   -1.859666
     23          1           0       -2.242114   -1.190715   -1.433896
     24          1           0       -1.861238    0.522783   -1.264408
     25          1           0       -2.877512    0.457319    1.073476
     26          1           0       -3.311207   -1.237606    0.790396
     27          1           0       -6.765007    0.631105    0.469827
     28          1           0       -5.462594    1.023474    1.613865
     29          1           0       -5.901600   -0.681604    1.301404
     30          1           0       -0.016200   -0.022409    1.816598
     31          1           0        0.180709    1.756875   -0.693242
     32          1           0        0.808696    2.121405    0.920309
     33          1           0       -0.938267    2.021915    0.659158
 ---------------------------------------------------------------------

 SCF Done:  E(RB3LYP) =  -921.595382811     A.U. after    1 cycles

 The electronic state is 1-A.
 Alpha  occ. eigenvalues --  -88.86236 -14.31867 -10.22208 -10.21562 -10.21146
 Alpha  occ. eigenvalues --  -10.20751 -10.20726 -10.19770 -10.19685 -10.19363
 Alpha  occ. eigenvalues --  -10.18689 -10.18161 -10.17820 -10.17334  -7.92568
 Alpha  occ. eigenvalues --   -5.89055  -5.88717  -5.88074  -0.94339  -0.82279
 Alpha  occ. eigenvalues --   -0.80897  -0.77569  -0.74563  -0.73826  -0.69712
 Alpha  occ. eigenvalues --   -0.68526  -0.64924  -0.64495  -0.58974  -0.56473
 Alpha  occ. eigenvalues --   -0.53897  -0.51270  -0.48668  -0.48143  -0.46549
 Alpha  occ. eigenvalues --   -0.45570  -0.43979  -0.43108  -0.41673  -0.41272
 Alpha  occ. eigenvalues --   -0.40975  -0.40711  -0.39972  -0.39273  -0.38260
 Alpha  occ. eigenvalues --   -0.37189  -0.36866  -0.35604  -0.35396  -0.34025
 Alpha  occ. eigenvalues --   -0.32912  -0.30724  -0.29576  -0.25263  -0.22181
 Alpha  occ. eigenvalues --   -0.21886  -0.21080
 Alpha virt. eigenvalues --   -0.02182   0.01623   0.04057   0.07196   0.07664
 Alpha virt. eigenvalues --    0.08702   0.09534   0.11366   0.12017   0.12695
 Alpha virt. eigenvalues --    0.13226   0.13389   0.14126   0.14452   0.14919

 Mulliken charges:
               1
     1  C   -0.398239
     2  C    0.389317
     3  C   -0.490368
     4  C   -0.392417
     5  C    0.247281
     6  C    0.064600
     7  C   -0.260284
     8  N   -0.099825
     9  C   -0.162539
    10  C   -0.182249
    11  S   -0.141471
    12  C   -0.374831
    13  C   -0.049992
    14  C   -0.407600
    15  H    0.104993
    16  H    0.103120
    17  H    0.118492
    18  H    0.129475
    19  H    0.129685
    20  H    0.108512
    21  H    0.116269
    22  H    0.100270
    23  H    0.119162
    24  H    0.097492
    25  H    0.118710
    26  H    0.126705
    27  H    0.147838
    28  H    0.138406
    29  H    0.140166
    30  H    0.086546
    31  H    0.122880
    32  H    0.126493
    33  H    0.123402
 Sum of Mulliken charges =  -0.00000

 Dipole moment (field-independent basis, Debye):
    X=              0.1393    Y=              0.3955    Z=              0.9614  Tot=              1.0489
 Quadrupole moment (field-independent basis, Debye-Ang):
   XX=            -91.6568   YY=            -93.9157   ZZ=            -92.5295
   XY=              1.0762   XZ=             -7.7801   YZ=              0.4536

  Exact polarizability: 277.542  -2.303 119.940  10.297  -3.352 120.591
 Approx polarizability: 351.597  -2.050 181.829  22.356  -4.838 191.405

                      1                      2                      3
                      A                      A                      A
 Frequencies --     24.3473                32.0567                42.4125
 Red. masses --      4.5697                 3.7110                 3.7738
 Frc consts  --      0.0016                 0.0022                 0.0040
 IR Inten    --      0.0505                 0.4361                 2.8146

                      4                      5                      6
                      A                      A                      A
 Frequencies --     60.8968                72.9622                86.6648
 Red. masses --      2.9989                 3.2432                 3.4444
 Frc consts  --      0.0066                 0.0102                 0.0152
 IR Inten    --      0.4064                 0.1040                 0.4284

                      7                      8                      9
                      A                      A                      A
 Frequencies --    115.8885               128.5976               167.6992
 Red. masses --      2.2515                 3.2147                 1.2332
 Frc consts  --      0.0178                 0.0313                 0.0204
 IR Inten    --      0.0893                 2.5909                 0.2350

                     10                     11                     12
                      A                      A                      A
 Frequencies --    180.6708               194.9104               216.2933
 Red. masses --      1.1070                 2.4717                 2.9534
 Frc consts  --      0.0213                 0.0553                 0.0814
 IR Inten    --      0.4923                 0.5112                 0.3461

                     13                     14                     15
                      A                      A                      A
 Frequencies --    235.1733               237.5051               250.6970
 Red. masses --      2.6658                 2.4058                 2.4336
 Frc consts  --      0.0869                 0.0800                 0.0901
 IR Inten    --      0.4094                 0.6130                 1.4500

                     16                     17                     18
                      A                      A                      A
 Frequencies --    269.5536               343.0741               355.0340
 Red. masses --      1.4142                 3.7312                 3.5536
 Frc consts  --      0.0605                 0.2587                 0.2639
 IR Inten    --      1.2449                 0.4731                 6.2038

                     19                     20                     21
                      A                      A                      A
 Frequencies --    402.3916               429.3171               502.2306
 Red. masses --      3.2134                 2.8168                 2.5402
 Frc consts  --      0.3066                 0.3059                 0.3775
 IR Inten    --      0.4459                 0.2114                 9.8235

                     22                     23                     24
                      A                      A                      A
 Frequencies --    520.5519               539.0428               579.3222
 Red. masses --      2.5297                 3.6829                 3.5277
 Frc consts  --      0.4039                 0.6305                 0.6976
 IR Inten    --      5.3982                 1.4225                 3.5517

                     25                     26                     27
                      A                      A                      A
 Frequencies --    668.7659               713.8031               715.9536
 Red. masses --      5.1018                 1.1679                 3.6212
 Frc consts  --      1.3444                 0.3506                 1.0936
 IR Inten    --      3.0976                 1.7334                 1.3735

                     28                     29                     30
                      A                      A                      A
 Frequencies --    747.1310               781.9372               790.8657
 Red. masses --      4.0062                 1.3061                 2.8528
 Frc consts  --      1.3176                 0.4705                 1.0513
 IR Inten    --      4.2847                 5.5840                 2.5735

                     31                     32                     33
                      A                      A                      A
 Frequencies --    806.9261               835.0525               875.2647
 Red. masses --      2.2154                 3.5041                 1.3996
 Frc consts  --      0.8499                 1.4397                 0.6317
 IR Inten    --      1.9617                 0.6575                 1.4362

                     34                     35                     36
                      A                      A                      A
 Frequencies --    920.5516               961.9976               966.7180
 Red. masses --      1.3829                 1.2891                 1.4384
 Frc consts  --      0.6905                 0.7029                 0.7920
 IR Inten    --     38.5298                 6.8752                 3.4112

                     37                     38                     39
                      A                      A                      A
 Frequencies --    973.0952               986.4622               991.0576
 Red. masses --      1.5050                 1.6119                 1.8654
 Frc consts  --      0.8396                 0.9241                 1.0795
 IR Inten    --      5.6955                 2.8871                 8.6442

                     40                     41                     42
                      A                      A                      A
 Frequencies --   1021.9689              1033.5616              1037.1512
 Red. masses --      1.7169                 2.4169                 1.5481
 Frc consts  --      1.0565                 1.5212                 0.9812
 IR Inten    --      0.9984                 2.4447                 3.8698

                     43                     44                     45
                      A                      A                      A
 Frequencies --   1062.0701              1071.4224              1077.8659
 Red. masses --      2.7610                 1.5114                 1.9563
 Frc consts  --      1.8350                 1.0222                 1.3391
 IR Inten    --      8.0034                 0.3830                11.1139

                     46                     47                     48
                      A                      A                      A
 Frequencies --   1097.4860              1112.9939              1134.7475
 Red. masses --      2.3518                 2.0863                 1.2187
 Frc consts  --      1.6690                 1.5227                 0.9245
 IR Inten    --      7.4825                15.7054                 2.1659

                     49                     50                     51
                      A                      A                      A
 Frequencies --   1190.5041              1216.0836              1250.1171
 Red. masses --      1.9146                 1.4483                 1.2939
 Frc consts  --      1.5988                 1.2619                 1.1913
 IR Inten    --     10.7781                37.6212                 7.7290

                     52                     53                     54
                      A                      A                      A
 Frequencies --   1258.9548              1273.2260              1313.2181
 Red. masses --      2.0554                 1.5043                 2.4365
 Frc consts  --      1.9194                 1.4368                 2.4756
 IR Inten    --     72.2142                 9.3732                76.3660

                     55                     56                     57
                      A                      A                      A
 Frequencies --   1317.6159              1319.1191              1351.9834
 Red. masses --      1.6075                 1.2581                 1.1644
 Frc consts  --      1.6443                 1.2898                 1.2540
 IR Inten    --     20.7482                 8.5697                 7.9515

                     58                     59                     60
                      A                      A                      A
 Frequencies --   1354.2652              1395.4430              1404.3495
 Red. masses --      1.2594                 1.2974                 1.3244
 Frc consts  --      1.3609                 1.4885                 1.5390
 IR Inten    --      7.1869                 5.7962                17.5105

                     61                     62                     63
                      A                      A                      A
 Frequencies --   1408.6830              1429.4778              1467.3609
 Red. masses --      1.2501                 1.7488                 1.0525
 Frc consts  --      1.4615                 2.1054                 1.3352
 IR Inten    --      2.9926                 0.3268                 5.9252

                     64                     65                     66
                      A                      A                      A
 Frequencies --   1475.2574              1476.2689              1479.8444
 Red. masses --      1.6099                 1.0621                 1.0751
 Frc consts  --      2.0644                 1.3638                 1.3872
 IR Inten    --      1.6071                 6.6140                14.5077

                     67                     68                     69
                      A                      A                      A
 Frequencies --   1484.0695              1487.4981              1491.5312
 Red. masses --      1.0587                 1.0592                 1.0554
 Frc consts  --      1.3738                 1.3808                 1.3834
 IR Inten    --      3.2922                 1.5972                 8.4680

                     70                     71                     72
                      A                      A                      A
 Frequencies --   1498.8003              1502.3257              1511.1396
 Red. masses --      1.1747                 1.1824                 1.0933
 Frc consts  --      1.5548                 1.5723                 1.4710
 IR Inten    --     12.2415                 2.1382                 3.2860

                     73                     74                     75
                      A                      A                      A
 Frequencies --   1690.2250              2069.6621              2945.5186
 Red. masses --      4.9081                11.5542                 1.0703
 Frc consts  --      8.2615                29.1600                 5.4710
 IR Inten    --      9.9143                17.2842                33.6955

                     76                     77                     78
                      A                      A                      A
 Frequencies --   2956.4160              3014.8967              3031.7378
 Red. masses --      1.0684                 1.0849                 1.0369
 Frc consts  --      5.5021                 5.8100                 5.6151
 IR Inten    --     58.7622                27.9775                13.7439

                     79                     80                     81
                      A                      A                      A
 Frequencies --   3034.4024              3036.4880              3039.5646
 Red. masses --      1.0371                 1.0551                 1.0324
 Frc consts  --      5.6261                 5.7317                 5.6199
 IR Inten    --     25.6447                21.6205                26.4810

                     82                     83                     84
                      A                      A                      A
 Frequencies --   3042.3983              3056.0693              3083.5422
 Red. masses --      1.0930                 1.0859                 1.0987
 Frc consts  --      5.9610                 5.9757                 6.1551
 IR Inten    --     40.2062                14.4371                15.3055

                     85                     86                     87
                      A                      A                      A
 Frequencies --   3092.9408              3104.0752              3112.5346
 Red. masses --      1.1064                 1.1011                 1.0867
 Frc consts  --      6.2360                 6.2511                 6.2028
 IR Inten    --     26.9201                29.0662                 6.3516

                     88                     89                     90
                      A                      A                      A
 Frequencies --   3112.7043              3119.4806              3123.0810
 Red. masses --      1.1012                 1.1071                 1.1008
 Frc consts  --      6.2860                 6.3474                 6.3258
 IR Inten    --     23.7854                 9.5429                22.6158

                     91                     92                     93
                      A                      A                      A
 Frequencies --   3139.8605              3148.0900              3231.4654
 Red. masses --      1.1027                 1.0604                 1.1149
 Frc consts  --      6.4051                 6.1917                 6.8593
 IR Inten    --      6.7256                 7.6212                11.2152

 - Thermochemistry -
 -------------------
 Temperature   298.150 Kelvin.  Pressure   1.00000 Atm.
 Atom     1 has atomic number  6 and mass  12.00000

 Molecular mass:   209.12382 amu.
 Principal axes and moments of inertia in atomic units:
                           1         2         3
     Eigenvalues --   806.83935********************
           X            0.99995   0.00398  -0.00884
           Y           -0.00398   0.99999   0.00049
           Z            0.00884  -0.00046   0.99996
 This molecule is an asymmetric top.
 Rotational symmetry number  1.
 Warning -- assumption of classical behavior for rotation
           may cause significant error
 Rotational temperatures (Kelvin)      0.10735     0.00830     0.00817
 Rotational constants (GHZ):           2.23680     0.17286     0.17022
 Zero-point vibrational energy     741172.9 (Joules/Mol)
                                  177.14458 (Kcal/Mol)
 Warning -- explicit consideration of  24 degrees of freedom as
           vibrations may cause significant error
 Vibrational temperatures:     35.03    46.12    61.02    87.62   104.98
          (Kelvin)            124.69   166.74   185.02   241.28   259.94
                              280.43   311.20   338.36   341.72   360.70
                              387.83   493.61   510.81   578.95   617.69
                              722.60   748.96   775.56   833.52   962.20
                             1027.00  1030.10  1074.95  1125.03  1137.88
                             1160.99  1201.45  1259.31  1324.47  1384.10
                             1390.89  1400.07  1419.30  1425.91  1470.39
                             1487.06  1492.23  1528.08  1541.54  1550.81
                             1579.04  1601.35  1632.65  1712.87  1749.67
                             1798.64  1811.36  1831.89  1889.43  1895.76
                             1897.92  1945.20  1948.49  2007.73  2020.55
                             2026.78  2056.70  2111.21  2122.57  2124.02
                             2129.17  2135.25  2140.18  2145.98  2156.44
                             2161.51  2174.19  2431.86  2977.78  4237.94
                             4253.62  4337.76  4361.99  4365.83  4368.83
                             4373.26  4377.33  4397.00  4436.53  4450.05
                             4466.07  4478.24  4478.49  4488.24  4493.42
                             4517.56  4529.40  4649.36

 Zero-point correction=                           0.282298 (Hartree/Particle)
 Thermal correction to Energy=                    0.299385
 Thermal correction to Enthalpy=                  0.300329
 Thermal correction to Gibbs Free Energy=         0.235442
 Sum of electronic and zero-point Energies=           -921.313085
 Sum of electronic and thermal Energies=              -921.295998
 Sum of electronic and thermal Enthalpies=            -921.295054
 Sum of electronic and thermal Free Energies=         -921.359941

                     E (Thermal)             CV                S
                      KCal/Mol        Cal/Mol-Kelvin    Cal/Mol-Kelvin
 Total                  187.867             61.280            136.567
 Electronic               0.000              0.000              0.000
 Translational            0.889              2.981             41.917
 Rotational               0.889              2.981             32.857
 Vibrational            186.089             55.319             61.793
 Vibration     1          0.593              1.985              6.244
 Vibration     2          0.594              1.983              5.698
 Vibration     3          0.595              1.980              5.143
 Vibration     4          0.597              1.973              4.428
 Vibration     5          0.599              1.967              4.072
 Vibration     6          0.601              1.958              3.734
 Vibration     7          0.608              1.936              3.168
 Vibration     8          0.611              1.925              2.967
 Vibration     9          0.624              1.882              2.461
 Vibration    10          0.630              1.866              2.321
 Vibration    11          0.636              1.847              2.181
 Vibration    12          0.645              1.816              1.990
 Vibration    13          0.655              1.787              1.839
 Vibration    14          0.656              1.783              1.821
 Vibration    15          0.663              1.762              1.726
 Vibration    16          0.674              1.729              1.599
 Vibration    17          0.722              1.589              1.198
 Vibration    18          0.731              1.565              1.144
 Vibration    19          0.768              1.465              0.954
 Vibration    20          0.791              1.406              0.861
 Vibration    21          0.858              1.245              0.653
 Vibration    22          0.876              1.204              0.609
 Vibration    23          0.894              1.164              0.567
 Vibration    24          0.936              1.076              0.487

 Optimization completed.
    -- Stationary point found.
 Normal termination of Gaussian 16 at Tue May 23 20:53:07 2023.
