 Gaussian 16, Revision A.03,
 Gaussian 16:  ES64L-G16RevA.03 25-Dec-2016

 -----------------------------
 # opt freq b3lyp/6-31g(2df,p)
 -----------------------------

 -------------------
 Title Card Required
 -------------------
 Symbolic Z-matrix:
 Charge =  0 Multiplicity = 1

 SCF Done:  E(RB3LYP) =  -574.289411710     A.U. after   14 cycles
 SCF Done:  E(RB3LYP) =  -574.305224855     A.U. after   12 cycles
 SCF Done:  E(RB3LYP) =  -574.315497646     A.U. after   14 cycles
 SCF Done:  E(RB3LYP) =  -574.322193220     A.U. after   12 cycles
 SCF Done:  E(RB3LYP) =  -574.329747092     A.U. after   12 cycles
 SCF Done:  E(RB3LYP) =  -574.335711046     A.U. after   12 cycles
 SCF Done:  E(RB3LYP) =  -574.340663484     A.U. after   12 cycles
 SCF Done:  E(RB3LYP) =  -574.342538464     A.U. after   10 cycles
 SCF Done:  E(RB3LYP) =  -574.344177210     A.U. after   11 cycles
 SCF Done:  E(RB3LYP) =  -574.345596988     A.U. after   12 cycles
 SCF Done:  E(RB3LYP) =  -574.348487764     A.U. after   12 cycles
 SCF Done:  E(RB3LYP) =  -574.349200880     A.U. after   12 cycles
 SCF Done:  E(RB3LYP) =  -574.349363408     A.U. after   10 cycles
 SCF Done:  E(RB3LYP) =  -574.349398781     A.U. after   10 cycles
 SCF Done:  E(RB3LYP) =  -574.349403340     A.U. after    8 cycles
 SCF Done:  E(RB3LYP) =  -574.349404195     A.U. after    7 cycles
 SCF Done:  E(RB3LYP) =  -574.349404416     A.U. after    7 cycles
 SCF Done:  E(RB3LYP) =  -574.349404482     A.U. after    7 cycles
 SCF Done:  E(RB3LYP) =  -574.349404521     A.U. after    7 cycles
 Optimization completed.
    -- Stationary point found.
 Normal termination of Gaussian 16 at Sun May 28 12:50:20 2023.

 ----------------------------------------------------------------------
 #N Geom=AllCheck Guess=TCheck SCRF=Check GenChk RB3LYP/6-31G(2df,p) Fr
 eq
 ----------------------------------------------------------------------

 Structure from the checkpoint file:  "CdCqOrCCNqCrNqOrCqdCrC.chk"
 -------------------
 Title Card Required
 -------------------
 Charge =  0 Multiplicity = 1

                         Standard orientation:
 ---------------------------------------------------------------------
 Center     Atomic      Atomic             Coordinates (Angstroms)
 Number     Number       Type             X           Y           Z
 ---------------------------------------------------------------------
      1          6           0        4.381078   -0.423971    0.289168
      2          6           0        3.304888    0.222030   -0.162146
      3          8           0        3.238847    1.577907   -0.325612
      4          6           0        2.008505   -0.429221   -0.552386
      5          6           0        0.843385    0.030196    0.340579
      6          7           0       -0.445723   -0.474086   -0.130089
      7          6           0       -0.649072   -1.909665    0.088922
      8          7           0       -1.484067    0.327546    0.329839
      9          8           0       -1.834011    0.005207    1.714445
     10          6           0       -2.657760    0.324873   -0.473061
     11          6           0       -2.644282   -0.028055   -1.762517
     12          6           0       -3.881224    0.874071    0.207530
     13          1           0        5.295325    0.096790    0.556307
     14          1           0        4.374053   -1.499738    0.397879
     15          1           0        4.078120    1.966783   -0.055046
     16          1           0        2.136558   -1.513000   -0.505356
     17          1           0        1.768141   -0.165233   -1.589266
     18          1           0        0.784712    1.119648    0.313487
     19          1           0        1.042328   -0.272599    1.383211
     20          1           0        0.087873   -2.470564   -0.490405
     21          1           0       -1.642374   -2.185147   -0.268659
     22          1           0       -0.558944   -2.185286    1.148625
     23          1           0       -1.459344    0.749497    2.198233
     24          1           0       -1.752219   -0.400192   -2.244995
     25          1           0       -3.535904    0.099611   -2.363039
     26          1           0       -3.668183    1.840301    0.677909
     27          1           0       -4.232556    0.206571    0.998289
     28          1           0       -4.680856    1.011881   -0.522608
 ---------------------------------------------------------------------

 SCF Done:  E(RB3LYP) =  -574.349404521     A.U. after    1 cycles

 The electronic state is 1-A.
 Alpha  occ. eigenvalues --  -19.16795 -19.16042 -14.39882 -14.35148 -10.24140
 Alpha  occ. eigenvalues --  -10.21005 -10.20549 -10.19569 -10.18793 -10.17338
 Alpha  occ. eigenvalues --  -10.16244 -10.15089  -1.06773  -1.05602  -0.94436
 Alpha  occ. eigenvalues --   -0.83158  -0.78583  -0.73689  -0.72094  -0.67657
 Alpha  occ. eigenvalues --   -0.66993  -0.60944  -0.58036  -0.53907  -0.51644
 Alpha  occ. eigenvalues --   -0.49410  -0.48230  -0.47471  -0.46029  -0.44623
 Alpha  occ. eigenvalues --   -0.42803  -0.41643  -0.40322  -0.40136  -0.39235
 Alpha  occ. eigenvalues --   -0.38605  -0.37866  -0.36598  -0.35939  -0.35778
 Alpha  occ. eigenvalues --   -0.34771  -0.34090  -0.29949  -0.29061  -0.23129
 Alpha  occ. eigenvalues --   -0.22622  -0.20363
 Alpha virt. eigenvalues --    0.03130   0.03764   0.06719   0.07815   0.10965
 Alpha virt. eigenvalues --    0.11522   0.12815   0.13307   0.14234   0.14488
 Alpha virt. eigenvalues --    0.15262   0.15617   0.16772   0.17127   0.17371

 Mulliken charges:
               1
     1  C   -0.468194
     2  C    0.424499
     3  O   -0.425428
     4  C   -0.278836
     5  C   -0.120619
     6  N   -0.026920
     7  C   -0.329819
     8  N   -0.116097
     9  O   -0.414012
    10  C    0.436896
    11  C   -0.421912
    12  C   -0.457937
    13  H    0.088543
    14  H    0.109216
    15  H    0.295786
    16  H    0.109752
    17  H    0.124494
    18  H    0.125917
    19  H    0.085479
    20  H    0.122835
    21  H    0.137109
    22  H    0.117406
    23  H    0.298556
    24  H    0.107565
    25  H    0.097200
    26  H    0.119646
    27  H    0.139913
    28  H    0.118963
 Sum of Mulliken charges =  -0.00000

 Dipole moment (field-independent basis, Debye):
    X=              1.4846    Y=              0.4831    Z=              1.1404  Tot=              1.9334
 Quadrupole moment (field-independent basis, Debye-Ang):
   XX=            -66.8024   YY=            -70.1084   ZZ=            -73.4639
   XY=              1.7938   XZ=              1.2523   YZ=              3.8000

  Exact polarizability: 140.342  -9.228  95.351  10.336   3.463 103.049
 Approx polarizability: 168.751 -13.556 145.823  14.768   6.591 170.560

                      1                      2                      3
                      A                      A                      A
 Frequencies --     29.4135                44.6509                71.4703
 Red. masses --      3.8952                 4.0077                 3.2303
 Frc consts  --      0.0020                 0.0047                 0.0097
 IR Inten    --      0.0315                 0.0255                 0.2635

                      4                      5                      6
                      A                      A                      A
 Frequencies --     84.6669               103.8506               150.6707
 Red. masses --      3.5593                 2.8287                 2.6857
 Frc consts  --      0.0150                 0.0180                 0.0359
 IR Inten    --      0.1987                 0.6268                 1.5421

                      7                      8                      9
                      A                      A                      A
 Frequencies --    188.4056               210.2471               231.8074
 Red. masses --      1.9934                 1.1080                 1.4350
 Frc consts  --      0.0417                 0.0289                 0.0454
 IR Inten    --      1.2678                 0.7539                 0.3845

                     10                     11                     12
                      A                      A                      A
 Frequencies --    251.1364               281.4743               305.1959
 Red. masses --      3.3718                 3.6795                 3.3386
 Frc consts  --      0.1253                 0.1718                 0.1832
 IR Inten    --      1.4490                 4.3500                 1.9374

                     13                     14                     15
                      A                      A                      A
 Frequencies --    343.7624               352.8326               412.8890
 Red. masses --      2.8744                 1.1711                 2.3059
 Frc consts  --      0.2001                 0.0859                 0.2316
 IR Inten    --      1.8659                82.6384                 1.4237

                     16                     17                     18
                      A                      A                      A
 Frequencies --    432.4282               446.0161               475.4112
 Red. masses --      2.2262                 1.1564                 2.7290
 Frc consts  --      0.2453                 0.1355                 0.3634
 IR Inten    --      4.3002                93.2041                17.0746

                     19                     20                     21
                      A                      A                      A
 Frequencies --    497.8280               523.9708               564.5911
 Red. masses --      2.4725                 3.2507                 2.7088
 Frc consts  --      0.3610                 0.5258                 0.5087
 IR Inten    --     25.0909                 9.6976                 2.5531

                     22                     23                     24
                      A                      A                      A
 Frequencies --    610.7360               642.5292               711.9743
 Red. masses --      3.0585                 2.5649                 4.1396
 Frc consts  --      0.6721                 0.6239                 1.2363
 IR Inten    --     28.3283                 5.2172                23.2110

                     25                     26                     27
                      A                      A                      A
 Frequencies --    732.2470               767.4337               798.6820
 Red. masses --      1.2320                 1.3913                 1.2418
 Frc consts  --      0.3892                 0.4828                 0.4667
 IR Inten    --      0.2925                 8.1770                 3.5508

                     28                     29                     30
                      A                      A                      A
 Frequencies --    818.9799               863.8885               872.3444
 Red. masses --      1.4183                 3.5103                 1.5669
 Frc consts  --      0.5605                 1.5435                 0.7026
 IR Inten    --     46.2211                56.2384                34.5163

                     31                     32                     33
                      A                      A                      A
 Frequencies --    902.0252               905.5418               963.8145
 Red. masses --      2.9951                 3.1580                 2.4079
 Frc consts  --      1.4358                 1.5258                 1.3179
 IR Inten    --     14.4297                20.0241                29.5744

                     34                     35                     36
                      A                      A                      A
 Frequencies --    986.9635              1025.9460              1052.6714
 Red. masses --      1.6767                 1.5165                 2.8597
 Frc consts  --      0.9623                 0.9405                 1.8670
 IR Inten    --     19.6349                 2.6387                15.1931

                     37                     38                     39
                      A                      A                      A
 Frequencies --   1056.4448              1073.6510              1094.9679
 Red. masses --      1.7216                 1.5189                 2.1896
 Frc consts  --      1.1321                 1.0316                 1.5467
 IR Inten    --     25.0172                 1.0489                17.0362

                     40                     41                     42
                      A                      A                      A
 Frequencies --   1123.8595              1145.4022              1211.5914
 Red. masses --      2.1114                 1.3987                 1.7284
 Frc consts  --      1.5713                 1.0811                 1.4949
 IR Inten    --      7.7264                25.9638               111.5676

                     43                     44                     45
                      A                      A                      A
 Frequencies --   1243.4351              1279.7402              1307.2298
 Red. masses --      1.7475                 1.8436                 1.4391
 Frc consts  --      1.5919                 1.7789                 1.4490
 IR Inten    --      2.1925                 3.6824                 9.0414

                     46                     47                     48
                      A                      A                      A
 Frequencies --   1311.2500              1327.4617              1352.3170
 Red. masses --      1.7329                 1.3131                 1.6448
 Frc consts  --      1.7555                 1.3633                 1.7723
 IR Inten    --      8.9061                14.3892                95.8881

                     49                     50                     51
                      A                      A                      A
 Frequencies --   1388.3919              1392.5951              1406.6664
 Red. masses --      2.3469                 1.3560                 1.2704
 Frc consts  --      2.6654                 1.5494                 1.4811
 IR Inten    --     13.7645                 7.2642                11.7546

                     52                     53                     54
                      A                      A                      A
 Frequencies --   1433.9097              1444.3320              1453.7837
 Red. masses --      1.2243                 1.1888                 1.1556
 Frc consts  --      1.4832                 1.4611                 1.4389
 IR Inten    --      0.8693                 4.2898                 6.6477

                     55                     56                     57
                      A                      A                      A
 Frequencies --   1474.7168              1482.1672              1490.7868
 Red. masses --      1.0468                 1.1173                 1.0546
 Frc consts  --      1.3413                 1.4462                 1.3809
 IR Inten    --      6.1053                 1.4664                12.6311

                     58                     59                     60
                      A                      A                      A
 Frequencies --   1492.6417              1500.5618              1510.3201
 Red. masses --      1.0496                 1.0546                 1.0858
 Frc consts  --      1.3778                 1.3991                 1.4593
 IR Inten    --      2.5121                 1.8313                 4.6120

                     61                     62                     63
                      A                      A                      A
 Frequencies --   1700.7430              1725.8526              2954.6710
 Red. masses --      5.6385                 5.8114                 1.0713
 Frc consts  --      9.6093                10.1985                 5.5102
 IR Inten    --     53.9981               134.9997                42.1710

                     64                     65                     66
                      A                      A                      A
 Frequencies --   3010.8341              3041.9832              3042.3908
 Red. masses --      1.0467                 1.0634                 1.0393
 Frc consts  --      5.5902                 5.7976                 5.6679
 IR Inten    --     40.8141                13.1230                22.7999

                     67                     68                     69
                      A                      A                      A
 Frequencies --   3097.1480              3103.3338              3103.5257
 Red. masses --      1.0926                 1.0950                 1.0892
 Frc consts  --      6.1752                 6.2136                 6.1809
 IR Inten    --     10.6470                16.0083                 9.6236

                     70                     71                     72
                      A                      A                      A
 Frequencies --   3121.0760              3135.2265              3140.7831
 Red. masses --      1.0933                 1.1021                 1.1016
 Frc consts  --      6.2745                 6.3829                 6.4026
 IR Inten    --     20.4957                15.5897                13.7543

                     73                     74                     75
                      A                      A                      A
 Frequencies --   3153.4314              3178.3087              3250.8357
 Red. masses --      1.0652                 1.0606                 1.1111
 Frc consts  --      6.2409                 6.3122                 6.9185
 IR Inten    --      5.9841                 2.9306                 8.2970

                     76                     77                     78
                      A                      A                      A
 Frequencies --   3271.8341              3804.1390              3807.4783
 Red. masses --      1.1145                 1.0682                 1.0654
 Frc consts  --      7.0292                 9.1080                 9.1001
 IR Inten    --      7.9792                41.5416                27.0464

 - Thermochemistry -
 -------------------
 Temperature   298.150 Kelvin.  Pressure   1.00000 Atm.
 Atom     1 has atomic number  6 and mass  12.00000

 Molecular mass:   172.12118 amu.
 Principal axes and moments of inertia in atomic units:
                           1         2         3
     Eigenvalues --   914.139974633.647644683.20011
           X            0.99994  -0.01010   0.00445
           Y            0.00897   0.97853   0.20590
           Z           -0.00643  -0.20585   0.97856
 This molecule is an asymmetric top.
 Rotational symmetry number  1.
 Warning -- assumption of classical behavior for rotation
           may cause significant error
 Rotational temperatures (Kelvin)      0.09475     0.01869     0.01849
 Rotational constants (GHZ):           1.97425     0.38949     0.38536
 Zero-point vibrational energy     629835.8 (Joules/Mol)
                                  150.53436 (Kcal/Mol)
 Warning -- explicit consideration of  22 degrees of freedom as
           vibrations may cause significant error
 Vibrational temperatures:     42.32    64.24   102.83   121.82   149.42
          (Kelvin)            216.78   271.07   302.50   333.52   361.33
                              404.98   439.11   494.60   507.65   594.06
                              622.17   641.72   684.01   716.26   753.88
                              812.32   878.71   924.46  1024.37  1053.54
                             1104.17  1149.13  1178.33  1242.94  1255.11
                             1297.81  1302.87  1386.71  1420.02  1476.11
                             1514.56  1519.99  1544.74  1575.41  1616.98
                             1647.98  1743.21  1789.03  1841.26  1880.81
                             1886.60  1909.92  1945.68  1997.59  2003.63
                             2023.88  2063.08  2078.07  2091.67  2121.79
                             2132.51  2144.91  2147.58  2158.97  2173.01
                             2446.99  2483.12  4251.11  4331.92  4376.74
                             4377.32  4456.11  4465.01  4465.28  4490.53
                             4510.89  4518.89  4537.08  4572.88  4677.23
                             4707.44  5473.31  5478.11

 Zero-point correction=                           0.239892 (Hartree/Particle)
 Thermal correction to Energy=                    0.254177
 Thermal correction to Enthalpy=                  0.255121
 Thermal correction to Gibbs Free Energy=         0.198377
 Sum of electronic and zero-point Energies=           -574.109513
 Sum of electronic and thermal Energies=              -574.095228
 Sum of electronic and thermal Enthalpies=            -574.094283
 Sum of electronic and thermal Free Energies=         -574.151027

                     E (Thermal)             CV                S
                      KCal/Mol        Cal/Mol-Kelvin    Cal/Mol-Kelvin
 Total                  159.498             53.229            119.427
 Electronic               0.000              0.000              0.000
 Translational            0.889              2.981             41.337
 Rotational               0.889              2.981             31.362
 Vibrational            157.721             47.268             46.728
 Vibration     1          0.593              1.984              5.869
 Vibration     2          0.595              1.980              5.041
 Vibration     3          0.598              1.968              4.112
 Vibration     4          0.601              1.960              3.780
 Vibration     5          0.605              1.946              3.381
 Vibration     6          0.618              1.902              2.664
 Vibration     7          0.633              1.856              2.243
 Vibration     8          0.642              1.825              2.042
 Vibration     9          0.653              1.792              1.865
 Vibration    10          0.663              1.761              1.723
 Vibration    11          0.681              1.708              1.525
 Vibration    12          0.696              1.664              1.388
 Vibration    13          0.723              1.588              1.195
 Vibration    14          0.729              1.569              1.154
 Vibration    15          0.777              1.442              0.916
 Vibration    16          0.793              1.400              0.851
 Vibration    17          0.805              1.370              0.808
 Vibration    18          0.832              1.305              0.723
 Vibration    19          0.853              1.255              0.664
 Vibration    20          0.879              1.197              0.601
 Vibration    21          0.920              1.108              0.515
 Vibration    22          0.970              1.009              0.432

                           ! Non-Optimized Parameters !
 Normal termination of Gaussian 16 at Sun May 28 13:56:52 2023.
