 Gaussian 16, Revision A.03,
 Gaussian 16:  ES64L-G16RevA.03 25-Dec-2016

 -----------------------------
 # opt freq b3lyp/6-31g(2df,p)
 -----------------------------

 -------------------
 Title Card Required
 -------------------
 Symbolic Z-matrix:
 Charge =  0 Multiplicity = 1

 SCF Done:  E(RB3LYP) =  -613.964910382     A.U. after   15 cycles
 SCF Done:  E(RB3LYP) =  -613.973986710     A.U. after   12 cycles
 SCF Done:  E(RB3LYP) =  -613.975903774     A.U. after   12 cycles
 SCF Done:  E(RB3LYP) =  -613.976042439     A.U. after   12 cycles
 SCF Done:  E(RB3LYP) =  -613.976340533     A.U. after   11 cycles
 SCF Done:  E(RB3LYP) =  -613.976525981     A.U. after   11 cycles
 SCF Done:  E(RB3LYP) =  -613.976547966     A.U. after    9 cycles
 SCF Done:  E(RB3LYP) =  -613.976550036     A.U. after    8 cycles
 SCF Done:  E(RB3LYP) =  -613.976550887     A.U. after    7 cycles
 SCF Done:  E(RB3LYP) =  -613.976551355     A.U. after    7 cycles
 SCF Done:  E(RB3LYP) =  -613.976551408     A.U. after    6 cycles
 Optimization completed.
    -- Stationary point found.
 Normal termination of Gaussian 16 at Sun May 28 20:08:17 2023.

 ----------------------------------------------------------------------
 #N Geom=AllCheck Guess=TCheck SCRF=Check GenChk RB3LYP/6-31G(2df,p) Fr
 eq
 ----------------------------------------------------------------------

 Structure from the checkpoint file:  "CdCqOCCrc1cocqdOrcc1C.chk"
 -------------------
 Title Card Required
 -------------------
 Charge =  0 Multiplicity = 1

                         Standard orientation:
 ---------------------------------------------------------------------
 Center     Atomic      Atomic             Coordinates (Angstroms)
 Number     Number       Type             X           Y           Z
 ---------------------------------------------------------------------
      1          6           0       -1.500425   -1.830484    1.129726
      2          6           0       -1.132657   -0.794102    0.365594
      3          8           0       -1.972771    0.025409   -0.324857
      4          6           0       -3.375339   -0.192564   -0.195007
      5          6           0       -4.091990    0.867353   -1.011715
      6          6           0        0.284348   -0.413746    0.153665
      7          6           0        1.152732   -1.349753   -0.295731
      8          8           0        2.453650   -1.135004   -0.510557
      9          6           0        3.042997    0.131154   -0.291808
     10          8           0        4.218078    0.237358   -0.514113
     11          6           0        2.127952    1.143086    0.183286
     12          6           0        0.806259    0.915384    0.403630
     13          6           0       -0.089592    2.003590    0.924937
     14          1           0       -2.527581   -2.145799    1.247443
     15          1           0       -0.745464   -2.385656    1.668372
     16          1           0       -3.657615   -0.139754    0.865646
     17          1           0       -3.622165   -1.200580   -0.555410
     18          1           0       -3.859736    1.869281   -0.640054
     19          1           0       -5.173888    0.718796   -0.948845
     20          1           0       -3.795104    0.811391   -2.062469
     21          1           0        0.860744   -2.367477   -0.527136
     22          1           0        2.572593    2.113733    0.367184
     23          1           0        0.484014    2.901012    1.164683
     24          1           0       -0.614020    1.669367    1.827099
     25          1           0       -0.859143    2.254073    0.190246
 ---------------------------------------------------------------------

 SCF Done:  E(RB3LYP) =  -613.976551408     A.U. after    1 cycles

 The electronic state is 1-A.
 Alpha  occ. eigenvalues --  -19.20625 -19.17999 -19.11166 -10.30133 -10.26476
 Alpha  occ. eigenvalues --  -10.25560 -10.24927 -10.22919 -10.20691 -10.19511
 Alpha  occ. eigenvalues --  -10.19464 -10.19248 -10.17599  -1.11225  -1.07477
 Alpha  occ. eigenvalues --   -1.02143  -0.85531  -0.80343  -0.76969  -0.73623
 Alpha  occ. eigenvalues --   -0.72675  -0.67442  -0.64314  -0.60833  -0.57538
 Alpha  occ. eigenvalues --   -0.54064  -0.52549  -0.49381  -0.49208  -0.47735
 Alpha  occ. eigenvalues --   -0.46619  -0.44917  -0.42827  -0.42489  -0.41472
 Alpha  occ. eigenvalues --   -0.41165  -0.40386  -0.40014  -0.39246  -0.37370
 Alpha  occ. eigenvalues --   -0.36123  -0.35642  -0.34225  -0.33918  -0.30773
 Alpha  occ. eigenvalues --   -0.26732  -0.24711  -0.22539
 Alpha virt. eigenvalues --   -0.05005  -0.00636   0.04100   0.08057   0.10548
 Alpha virt. eigenvalues --    0.10951   0.11097   0.12495   0.12906   0.13726
 Alpha virt. eigenvalues --    0.14576   0.14829   0.15281   0.16065   0.17004

 Mulliken charges:
               1
     1  C   -0.466000
     2  C    0.288634
     3  O   -0.262928
     4  C   -0.052192
     5  C   -0.393891
     6  C    0.030699
     7  C    0.039329
     8  O   -0.222170
     9  C    0.428264
    10  O   -0.344705
    11  C   -0.348438
    12  C    0.274116
    13  C   -0.497819
    14  H    0.112554
    15  H    0.115836
    16  H    0.109331
    17  H    0.111382
    18  H    0.130476
    19  H    0.124145
    20  H    0.135092
    21  H    0.145081
    22  H    0.119136
    23  H    0.127839
    24  H    0.140655
    25  H    0.155575
 Sum of Mulliken charges =  -0.00000

 Dipole moment (field-independent basis, Debye):
    X=             -5.8292    Y=              0.3342    Z=              1.0696  Tot=              5.9359
 Quadrupole moment (field-independent basis, Debye-Ang):
   XX=            -89.3305   YY=            -70.6184   ZZ=            -76.0457
   XY=              0.9117   XZ=              4.1794   YZ=              0.9488

  Exact polarizability: 161.795   5.539 115.901 -10.291  -1.880  78.933
 Approx polarizability: 235.050  10.673 184.571 -24.558  -3.633 127.102

                      1                      2                      3
                      A                      A                      A
 Frequencies --     39.2361                67.5881                91.0372
 Red. masses --      3.8608                 5.1296                 2.7737
 Frc consts  --      0.0035                 0.0138                 0.0135
 IR Inten    --      0.7272                 0.6427                 0.4981

                      4                      5                      6
                      A                      A                      A
 Frequencies --    122.7140               136.2442               160.6172
 Red. masses --      2.5002                 3.8992                 1.4411
 Frc consts  --      0.0222                 0.0426                 0.0219
 IR Inten    --      0.1832                 2.9364                 0.0589

                      7                      8                      9
                      A                      A                      A
 Frequencies --    194.8872               216.8354               256.2981
 Red. masses --      2.3756                 1.9051                 2.6024
 Frc consts  --      0.0532                 0.0528                 0.1007
 IR Inten    --      1.0956                 2.6092                 1.6066

                     10                     11                     12
                      A                      A                      A
 Frequencies --    266.5287               293.8843               335.3357
 Red. masses --      1.8145                 4.3868                 3.8940
 Frc consts  --      0.0759                 0.2232                 0.2580
 IR Inten    --      1.4785                 0.2163                 1.5176

                     13                     14                     15
                      A                      A                      A
 Frequencies --    378.5873               420.4736               462.7693
 Red. masses --      3.0893                 2.9453                 5.0327
 Frc consts  --      0.2609                 0.3068                 0.6350
 IR Inten    --      3.4205                 7.7776                 1.7216

                     16                     17                     18
                      A                      A                      A
 Frequencies --    496.9809               533.9886               598.0602
 Red. masses --      4.7892                 4.3773                 5.2534
 Frc consts  --      0.6969                 0.7354                 1.1071
 IR Inten    --      1.7100                 1.6757                 8.6353

                     19                     20                     21
                      A                      A                      A
 Frequencies --    643.5212               687.0093               730.5510
 Red. masses --      3.5164                 3.2303                 5.9974
 Frc consts  --      0.8580                 0.8983                 1.8859
 IR Inten    --      0.6636                 2.2065                32.1125

                     22                     23                     24
                      A                      A                      A
 Frequencies --    734.1688               749.4534               765.6816
 Red. masses --      1.2752                 3.3545                 3.7795
 Frc consts  --      0.4050                 1.1101                 1.3055
 IR Inten    --      2.2267                 6.0650                 7.6207

                     25                     26                     27
                      A                      A                      A
 Frequencies --    830.1022               833.4827               844.6923
 Red. masses --      1.2117                 4.1387                 1.2768
 Frc consts  --      0.4919                 1.6940                 0.5367
 IR Inten    --     29.7622                30.1286                25.6096

                     28                     29                     30
                      A                      A                      A
 Frequencies --    879.4407               884.7691               932.4199
 Red. masses --      1.8169                 1.7684                 1.4735
 Frc consts  --      0.8279                 0.8156                 0.7548
 IR Inten    --     20.8103                 4.5445                 2.6764

                     31                     32                     33
                      A                      A                      A
 Frequencies --    992.2876              1029.1240              1065.5448
 Red. masses --      2.3529                 1.4672                 1.5958
 Frc consts  --      1.3650                 0.9156                 1.0675
 IR Inten    --     17.8455                 3.8399                 6.8055

                     34                     35                     36
                      A                      A                      A
 Frequencies --   1077.7475              1104.8932              1127.3463
 Red. masses --      2.7296                 6.4045                 3.9637
 Frc consts  --      1.8681                 4.6066                 2.9680
 IR Inten    --     13.9506               125.3009                28.4381

                     37                     38                     39
                      A                      A                      A
 Frequencies --   1142.7397              1185.4416              1219.5641
 Red. masses --      2.8117                 1.5378                 1.7956
 Frc consts  --      2.1633                 1.2732                 1.5735
 IR Inten    --     43.0648                 3.8313                39.8630

                     40                     41                     42
                      A                      A                      A
 Frequencies --   1261.8214              1298.1149              1316.8186
 Red. masses --      4.1995                 1.1047                 1.8310
 Frc consts  --      3.9395                 1.0968                 1.8706
 IR Inten    --    114.4339                 1.2653                40.0698

                     43                     44                     45
                      A                      A                      A
 Frequencies --   1342.2296              1402.4391              1408.2430
 Red. masses --      2.1611                 1.3087                 1.2510
 Frc consts  --      2.2939                 1.5165                 1.4618
 IR Inten    --    139.2284                 1.5105                 2.2814

                     46                     47                     48
                      A                      A                      A
 Frequencies --   1420.4676              1437.5814              1451.7775
 Red. masses --      1.5715                 1.7852                 1.5101
 Frc consts  --      1.8683                 2.1737                 1.8753
 IR Inten    --     14.2121                25.0940                20.1800

                     49                     50                     51
                      A                      A                      A
 Frequencies --   1473.4146              1483.6318              1486.3252
 Red. masses --      1.0647                 1.0734                 1.0650
 Frc consts  --      1.3618                 1.3921                 1.3862
 IR Inten    --      9.7280                10.0753                12.5694

                     52                     53                     54
                      A                      A                      A
 Frequencies --   1499.6933              1524.6155              1578.3803
 Red. masses --      1.0488                 1.0906                 5.6240
 Frc consts  --      1.3898                 1.4937                 8.2551
 IR Inten    --      3.9141                 5.5919                37.4438

                     55                     56                     57
                      A                      A                      A
 Frequencies --   1682.4884              1686.6574              1845.7217
 Red. masses --      6.6992                 6.1977                12.2818
 Frc consts  --     11.1733                10.3881                24.6515
 IR Inten    --     77.8311               127.6016               666.6082

                     58                     59                     60
                      A                      A                      A
 Frequencies --   3001.1183              3038.3222              3042.6862
 Red. masses --      1.0554                 1.1066                 1.0386
 Frc consts  --      5.6007                 6.0186                 5.6652
 IR Inten    --     23.9796                24.7679                10.6424

                     61                     62                     63
                      A                      A                      A
 Frequencies --   3047.5803              3106.2681              3121.9907
 Red. masses --      1.0350                 1.0950                 1.1016
 Frc consts  --      5.6635                 6.2253                 6.3263
 IR Inten    --     14.1044                 7.3280                22.5544

                     64                     65                     66
                      A                      A                      A
 Frequencies --   3126.1430              3136.5638              3189.4719
 Red. masses --      1.1029                 1.1030                 1.0603
 Frc consts  --      6.3503                 6.3932                 6.3552
 IR Inten    --     21.4312                13.6306                 0.9887

                     67                     68                     69
                      A                      A                      A
 Frequencies --   3205.4328              3208.6139              3274.0639
 Red. masses --      1.0911                 1.0929                 1.1155
 Frc consts  --      6.6051                 6.6293                 7.0451
 IR Inten    --      3.7951                 1.3417                 7.3708

 - Thermochemistry -
 -------------------
 Temperature   298.150 Kelvin.  Pressure   1.00000 Atm.
 Atom     1 has atomic number  6 and mass  12.00000

 Molecular mass:   180.07864 amu.
 Principal axes and moments of inertia in atomic units:
                           1         2         3
     Eigenvalues --  1037.956294217.313084749.36129
           X            0.99996  -0.00061   0.00870
           Y            0.00065   0.99999  -0.00483
           Z           -0.00870   0.00484   0.99995
 This molecule is an asymmetric top.
 Rotational symmetry number  1.
 Warning -- assumption of classical behavior for rotation
           may cause significant error
 Rotational temperatures (Kelvin)      0.08345     0.02054     0.01824
 Rotational constants (GHZ):           1.73874     0.42794     0.38000
 Zero-point vibrational energy     530129.5 (Joules/Mol)
                                  126.70398 (Kcal/Mol)
 Warning -- explicit consideration of  18 degrees of freedom as
           vibrations may cause significant error
 Vibrational temperatures:     56.45    97.24   130.98   176.56   196.03
          (Kelvin)            231.09   280.40   311.98   368.76   383.48
                              422.83   482.47   544.70   604.97   665.82
                              715.04   768.29   860.48   925.88   988.45
                             1051.10  1056.31  1078.30  1101.64  1194.33
                             1199.20  1215.32  1265.32  1272.99  1341.54
                             1427.68  1480.68  1533.08  1550.64  1589.69
                             1622.00  1644.15  1705.59  1754.68  1815.48
                             1867.70  1894.61  1931.17  2017.80  2026.15
                             2043.74  2068.36  2088.78  2119.91  2134.62
                             2138.49  2157.72  2193.58  2270.94  2420.73
                             2426.72  2655.58  4317.94  4371.47  4377.75
                             4384.79  4469.23  4491.85  4497.82  4512.82
                             4588.94  4611.90  4616.48  4710.65

 Zero-point correction=                           0.201916 (Hartree/Particle)
 Thermal correction to Energy=                    0.214802
 Thermal correction to Enthalpy=                  0.215746
 Thermal correction to Gibbs Free Energy=         0.162257
 Sum of electronic and zero-point Energies=           -613.774636
 Sum of electronic and thermal Energies=              -613.761750
 Sum of electronic and thermal Enthalpies=            -613.760805
 Sum of electronic and thermal Free Energies=         -613.814295

                     E (Thermal)             CV                S
                      KCal/Mol        Cal/Mol-Kelvin    Cal/Mol-Kelvin
 Total                  134.790             47.995            112.578
 Electronic               0.000              0.000              0.000
 Translational            0.889              2.981             41.471
 Rotational               0.889              2.981             31.409
 Vibrational            133.013             42.033             39.698
 Vibration     1          0.594              1.981              5.297
 Vibration     2          0.598              1.970              4.222
 Vibration     3          0.602              1.956              3.638
 Vibration     4          0.610              1.930              3.057
 Vibration     5          0.614              1.917              2.856
 Vibration     6          0.622              1.891              2.543
 Vibration     7          0.636              1.847              2.181
 Vibration     8          0.646              1.815              1.985
 Vibration     9          0.666              1.752              1.687
 Vibration    10          0.672              1.735              1.619
 Vibration    11          0.689              1.685              1.451
 Vibration    12          0.716              1.605              1.234
 Vibration    13          0.749              1.516              1.045
 Vibration    14          0.783              1.426              0.890
 Vibration    15          0.820              1.333              0.758
 Vibration    16          0.853              1.257              0.666
 Vibration    17          0.889              1.175              0.578
 Vibration    18          0.956              1.036              0.453

 Optimization completed.
    -- Stationary point found.
 Normal termination of Gaussian 16 at Sun May 28 21:14:50 2023.
