 Gaussian 16, Revision A.03,
 Gaussian 16:  ES64L-G16RevA.03 25-Dec-2016

 -----------------------------
 # opt freq b3lyp/6-31g(2df,p)
 -----------------------------

 -------------------
 Title Card Required
 -------------------
 Symbolic Z-matrix:
 Charge =  0 Multiplicity = 1

 SCF Done:  E(RB3LYP) =  -508.599189820     A.U. after   13 cycles
 SCF Done:  E(RB3LYP) =  -508.610516277     A.U. after   12 cycles
 SCF Done:  E(RB3LYP) =  -508.625775267     A.U. after   12 cycles
 SCF Done:  E(RB3LYP) =  -508.628865755     A.U. after   11 cycles
 SCF Done:  E(RB3LYP) =  -508.636967312     A.U. after   11 cycles
 SCF Done:  E(RB3LYP) =  -508.639419611     A.U. after   11 cycles
 SCF Done:  E(RB3LYP) =  -508.641254305     A.U. after   12 cycles
 SCF Done:  E(RB3LYP) =  -508.641904004     A.U. after   11 cycles
 SCF Done:  E(RB3LYP) =  -508.642277604     A.U. after   11 cycles
 SCF Done:  E(RB3LYP) =  -508.642582065     A.U. after   11 cycles
 SCF Done:  E(RB3LYP) =  -508.647161041     A.U. after   11 cycles
 SCF Done:  E(RB3LYP) =  -508.647440557     A.U. after    8 cycles
 SCF Done:  E(RB3LYP) =  -508.647458644     A.U. after    9 cycles
 SCF Done:  E(RB3LYP) =  -508.647462998     A.U. after    9 cycles
 SCF Done:  E(RB3LYP) =  -508.647463864     A.U. after    7 cycles
 SCF Done:  E(RB3LYP) =  -508.647464092     A.U. after    7 cycles
 SCF Done:  E(RB3LYP) =  -508.647464155     A.U. after    6 cycles
 SCF Done:  E(RB3LYP) =  -508.647464196     A.U. after    6 cycles
 SCF Done:  E(RB3LYP) =  -508.647464212     A.U. after    6 cycles
 Optimization completed.
    -- Stationary point found.
 Normal termination of Gaussian 16 at Sun May 28 10:08:02 2023.

 ----------------------------------------------------------------------
 #N Geom=AllCheck Guess=TCheck SCRF=Check GenChk RB3LYP/6-31G(2df,p) Fr
 eq
 ----------------------------------------------------------------------

 Structure from the checkpoint file:  "CdCqCrCqCrdC1CCCC1CCC.chk"
 -------------------
 Title Card Required
 -------------------
 Charge =  0 Multiplicity = 1

                         Standard orientation:
 ---------------------------------------------------------------------
 Center     Atomic      Atomic             Coordinates (Angstroms)
 Number     Number       Type             X           Y           Z
 ---------------------------------------------------------------------
      1          6           0       -3.550841   -0.296468    0.404011
      2          6           0       -2.419183   -0.756074   -0.130396
      3          6           0       -2.405101   -1.605335   -1.377989
      4          6           0       -1.083682   -0.496897    0.504782
      5          6           0       -0.755618   -1.441733    1.638158
      6          6           0       -0.283916    0.487149    0.071789
      7          6           0       -0.668740    1.529426   -0.957654
      8          6           0       -0.186531    2.831733   -0.291765
      9          6           0        1.144461    2.436353    0.388363
     10          6           0        1.084219    0.890191    0.617499
     11          6           0        2.262144    0.194478   -0.106193
     12          6           0        2.388971   -1.315755    0.109276
     13          6           0        3.585011   -1.918253   -0.634622
     14          1           0       -4.518558   -0.509022   -0.040862
     15          1           0       -3.550862    0.311165    1.303307
     16          1           0       -3.415843   -1.798466   -1.748410
     17          1           0       -1.916215   -2.569827   -1.192180
     18          1           0       -1.830639   -1.116054   -2.173538
     19          1           0       -1.541278   -1.398094    2.401994
     20          1           0        0.201438   -1.219993    2.111937
     21          1           0       -0.720929   -2.482791    1.292037
     22          1           0       -1.734129    1.528849   -1.193876
     23          1           0       -0.119270    1.370867   -1.897328
     24          1           0       -0.920344    3.140695    0.460941
     25          1           0       -0.072329    3.661117   -0.995663
     26          1           0        1.303999    2.980868    1.323067
     27          1           0        1.990193    2.680027   -0.263838
     28          1           0        1.161332    0.661243    1.685478
     29          1           0        3.191538    0.680680    0.222082
     30          1           0        2.183608    0.398661   -1.183509
     31          1           0        1.467378   -1.809661   -0.218632
     32          1           0        2.486275   -1.525292    1.182774
     33          1           0        3.501065   -1.756542   -1.715262
     34          1           0        3.659344   -2.997106   -0.465088
     35          1           0        4.527066   -1.464218   -0.306988
 ---------------------------------------------------------------------

 SCF Done:  E(RB3LYP) =  -508.647464212     A.U. after    1 cycles

 The electronic state is 1-A.
 Alpha  occ. eigenvalues --  -10.18714 -10.17992 -10.17759 -10.17666 -10.17387
 Alpha  occ. eigenvalues --  -10.17345 -10.17311 -10.17293 -10.17254 -10.17176
 Alpha  occ. eigenvalues --  -10.17136 -10.16911 -10.16464  -0.84391  -0.80534
 Alpha  occ. eigenvalues --   -0.77750  -0.74214  -0.71791  -0.69215  -0.67843
 Alpha  occ. eigenvalues --   -0.65186  -0.61224  -0.58127  -0.56305  -0.53430
 Alpha  occ. eigenvalues --   -0.49695  -0.47098  -0.46481  -0.44757  -0.43195
 Alpha  occ. eigenvalues --   -0.42906  -0.41944  -0.40573  -0.39661  -0.39500
 Alpha  occ. eigenvalues --   -0.38990  -0.38450  -0.38095  -0.36338  -0.35284
 Alpha  occ. eigenvalues --   -0.35229  -0.33581  -0.33299  -0.32811  -0.32188
 Alpha  occ. eigenvalues --   -0.31457  -0.30000  -0.29229  -0.24463  -0.22161
 Alpha virt. eigenvalues --    0.02041   0.03364   0.08010   0.10114   0.10411
 Alpha virt. eigenvalues --    0.10942   0.12536   0.13689   0.13967   0.14437
 Alpha virt. eigenvalues --    0.15002   0.15700   0.16692   0.16975   0.17532

 Mulliken charges:
               1
     1  C   -0.397975
     2  C    0.277861
     3  C   -0.471223
     4  C    0.041190
     5  C   -0.480887
     6  C    0.291445
     7  C   -0.311332
     8  C   -0.200298
     9  C   -0.230205
    10  C   -0.091533
    11  C   -0.163117
    12  C   -0.174484
    13  C   -0.379451
    14  H    0.099367
    15  H    0.098514
    16  H    0.117254
    17  H    0.123579
    18  H    0.129145
    19  H    0.123096
    20  H    0.121960
    21  H    0.121967
    22  H    0.105760
    23  H    0.096773
    24  H    0.099434
    25  H    0.090473
    26  H    0.095372
    27  H    0.094115
    28  H    0.067694
    29  H    0.089222
    30  H    0.089321
    31  H    0.102869
    32  H    0.090596
    33  H    0.112365
    34  H    0.109225
    35  H    0.111908
 Sum of Mulliken charges =  -0.00000

 Dipole moment (field-independent basis, Debye):
    X=              0.3104    Y=             -0.1001    Z=             -0.0772  Tot=              0.3351
 Quadrupole moment (field-independent basis, Debye-Ang):
   XX=            -83.6147   YY=            -82.8498   ZZ=            -81.7786
   XY=              0.8291   XZ=              0.9643   YZ=              0.4700

  Exact polarizability: 160.647   5.013 140.724  -4.708  -1.960 118.206
 Approx polarizability: 216.033   9.349 196.523 -12.165  -4.804 185.154

                      1                      2                      3
                      A                      A                      A
 Frequencies --     19.2950                47.4510                62.0211
 Red. masses --      2.8358                 2.9408                 2.8887
 Frc consts  --      0.0006                 0.0039                 0.0065
 IR Inten    --      0.1299                 0.0217                 0.0093

                      4                      5                      6
                      A                      A                      A
 Frequencies --     99.9603               112.8870               134.6408
 Red. masses --      1.5722                 2.9185                 2.1243
 Frc consts  --      0.0093                 0.0219                 0.0227
 IR Inten    --      0.0088                 0.0631                 0.3606

                      7                      8                      9
                      A                      A                      A
 Frequencies --    151.3172               156.6166               182.2444
 Red. masses --      2.2444                 2.4745                 1.2108
 Frc consts  --      0.0303                 0.0358                 0.0237
 IR Inten    --      0.1047                 0.1016                 0.0097

                     10                     11                     12
                      A                      A                      A
 Frequencies --    203.4292               234.8105               247.4923
 Red. masses --      1.0777                 2.5027                 1.3089
 Frc consts  --      0.0263                 0.0813                 0.0472
 IR Inten    --      0.1649                 0.4876                 0.1693

                     13                     14                     15
                      A                      A                      A
 Frequencies --    257.8724               264.0097               309.6543
 Red. masses --      2.4673                 1.9526                 2.5713
 Frc consts  --      0.0967                 0.0802                 0.1453
 IR Inten    --      0.1697                 0.4047                 0.6282

                     16                     17                     18
                      A                      A                      A
 Frequencies --    361.5562               407.0453               458.7598
 Red. masses --      3.4996                 2.4434                 2.8853
 Frc consts  --      0.2695                 0.2385                 0.3578
 IR Inten    --      0.8663                 0.4701                 1.1904

                     19                     20                     21
                      A                      A                      A
 Frequencies --    508.8602               543.7630               571.7121
 Red. masses --      2.5083                 3.2629                 2.1396
 Frc consts  --      0.3827                 0.5684                 0.4120
 IR Inten    --      1.1183                 3.8543                 1.9840

                     22                     23                     24
                      A                      A                      A
 Frequencies --    612.2475               654.0092               727.0750
 Red. masses --      2.1556                 2.6008                 2.3865
 Frc consts  --      0.4761                 0.6554                 0.7433
 IR Inten    --      1.7352                 1.4717                 1.0333

                     25                     26                     27
                      A                      A                      A
 Frequencies --    740.9760               759.7066               821.4186
 Red. masses --      1.2514                 1.2518                 2.3499
 Frc consts  --      0.4048                 0.4257                 0.9342
 IR Inten    --      1.2004                 1.0078                 0.4191

                     28                     29                     30
                      A                      A                      A
 Frequencies --    837.3532               856.4173               897.1968
 Red. masses --      1.7412                 1.4805                 2.3928
 Frc consts  --      0.7193                 0.6398                 1.1349
 IR Inten    --      0.3717                 0.6450                 1.6191

                     31                     32                     33
                      A                      A                      A
 Frequencies --    916.1250               918.2237               932.0217
 Red. masses --      1.8471                 1.5530                 1.3531
 Frc consts  --      0.9134                 0.7715                 0.6925
 IR Inten    --      2.3817                 1.0457                29.0303

                     34                     35                     36
                      A                      A                      A
 Frequencies --    940.0494               953.2449               999.2717
 Red. masses --      2.2312                 1.9289                 2.1434
 Frc consts  --      1.1617                 1.0327                 1.2610
 IR Inten    --      0.9539                 0.7663                 0.9556

                     37                     38                     39
                      A                      A                      A
 Frequencies --   1014.4345              1035.7505              1049.8890
 Red. masses --      1.3767                 2.1877                 2.0840
 Frc consts  --      0.8347                 1.3828                 1.3534
 IR Inten    --      3.8614                 0.5997                 0.3121

                     40                     41                     42
                      A                      A                      A
 Frequencies --   1054.7682              1059.6454              1065.5949
 Red. masses --      1.4872                 1.5374                 2.0540
 Frc consts  --      0.9749                 1.0171                 1.3742
 IR Inten    --      8.0425                 0.3443                 1.2408

                     43                     44                     45
                      A                      A                      A
 Frequencies --   1078.5835              1096.1401              1113.8188
 Red. masses --      1.5527                 1.9227                 2.0838
 Frc consts  --      1.0643                 1.3611                 1.5231
 IR Inten    --      0.1561                 2.5507                12.0240

                     46                     47                     48
                      A                      A                      A
 Frequencies --   1138.7979              1188.7728              1200.2284
 Red. masses --      2.1282                 1.6848                 1.6634
 Frc consts  --      1.6261                 1.4028                 1.4118
 IR Inten    --      2.2233                 8.5658                 4.7738

                     49                     50                     51
                      A                      A                      A
 Frequencies --   1212.8432              1251.4584              1255.4553
 Red. masses --      2.2783                 1.3714                 1.4066
 Frc consts  --      1.9746                 1.2655                 1.3062
 IR Inten    --      1.2532                 1.7192                 2.7536

                     52                     53                     54
                      A                      A                      A
 Frequencies --   1289.7983              1299.4908              1306.1528
 Red. masses --      1.2256                 1.6704                 1.9775
 Frc consts  --      1.2013                 1.6620                 1.9877
 IR Inten    --      1.8631                 1.0459                 1.2439

                     55                     56                     57
                      A                      A                      A
 Frequencies --   1322.3713              1328.0308              1336.0816
 Red. masses --      1.3184                 1.1595                 1.3718
 Frc consts  --      1.3584                 1.2049                 1.4428
 IR Inten    --      0.8086                 1.3423                 0.3382

                     58                     59                     60
                      A                      A                      A
 Frequencies --   1345.2248              1360.4969              1391.8521
 Red. masses --      1.4897                 1.3446                 1.5264
 Frc consts  --      1.5884                 1.4663                 1.7423
 IR Inten    --      0.9892                 1.8451                 0.8969

                     61                     62                     63
                      A                      A                      A
 Frequencies --   1404.6506              1408.1486              1412.0101
 Red. masses --      1.2380                 1.2276                 1.2298
 Frc consts  --      1.4391                 1.4342                 1.4447
 IR Inten    --      4.3781                 0.7266                 0.7134

                     64                     65                     66
                      A                      A                      A
 Frequencies --   1444.4341              1473.4766              1478.1791
 Red. masses --      1.1846                 1.0542                 1.0589
 Frc consts  --      1.4561                 1.3485                 1.3633
 IR Inten    --      0.0567                 4.9239                 4.6183

                     67                     68                     69
                      A                      A                      A
 Frequencies --   1481.1473              1485.3965              1486.4369
 Red. masses --      1.0725                 1.0744                 1.0680
 Frc consts  --      1.3863                 1.3966                 1.3903
 IR Inten    --      3.9348                 5.1591                 1.5657

                     70                     71                     72
                      A                      A                      A
 Frequencies --   1490.3889              1491.6235              1494.9161
 Red. masses --      1.0800                 1.0580                 1.0541
 Frc consts  --      1.4134                 1.3869                 1.3880
 IR Inten    --      0.7174                 9.0609                 0.3823

                     73                     74                     75
                      A                      A                      A
 Frequencies --   1499.8232              1507.3357              1510.7576
 Red. masses --      1.0406                 1.0988                 1.0833
 Frc consts  --      1.3792                 1.4709                 1.4568
 IR Inten    --      5.0732                 0.9234                 2.3074

                     76                     77                     78
                      A                      A                      A
 Frequencies --   1701.5897              1734.7865              2995.2935
 Red. masses --      5.5718                 8.4819                 1.0671
 Frc consts  --      9.5050                15.0395                 5.6405
 IR Inten    --     15.7383                 0.9537                 9.8242

                     79                     80                     81
                      A                      A                      A
 Frequencies --   3000.0641              3017.5937              3019.5159
 Red. masses --      1.0623                 1.0638                 1.0415
 Frc consts  --      5.6335                 5.7074                 5.5946
 IR Inten    --     28.1034                10.4467                27.7697

                     82                     83                     84
                      A                      A                      A
 Frequencies --   3020.8671              3026.9098              3028.1156
 Red. masses --      1.0405                 1.0420                 1.0836
 Frc consts  --      5.5945                 5.6249                 5.8542
 IR Inten    --     33.7214                36.9225                10.4353

                     85                     86                     87
                      A                      A                      A
 Frequencies --   3039.3629              3042.0648              3046.7532
 Red. masses --      1.0599                 1.0671                 1.0883
 Frc consts  --      5.7688                 5.8182                 5.9520
 IR Inten    --     32.5990                42.6374                30.7374

                     88                     89                     90
                      A                      A                      A
 Frequencies --   3063.7837              3065.6621              3071.2730
 Red. masses --      1.0980                 1.0985                 1.0982
 Frc consts  --      6.0723                 6.0829                 6.1036
 IR Inten    --     13.5745                17.4020                16.1674

                     91                     92                     93
                      A                      A                      A
 Frequencies --   3081.5476              3094.9641              3095.3356
 Red. masses --      1.0970                 1.1029                 1.1029
 Frc consts  --      6.1377                 6.2246                 6.2261
 IR Inten    --     30.3652                23.5923                87.8501

                     94                     95                     96
                      A                      A                      A
 Frequencies --   3099.0006              3108.2027              3111.3472
 Red. masses --      1.1008                 1.1011                 1.0918
 Frc consts  --      6.2285                 6.2678                 6.2271
 IR Inten    --     36.1220                30.1839                16.3393

                     97                     98                     99
                      A                      A                      A
 Frequencies --   3134.7917              3137.0367              3218.0587
 Red. masses --      1.0955                 1.0607                 1.1146
 Frc consts  --      6.3429                 6.1499                 6.8009
 IR Inten    --     27.1930                 9.7029                16.8284

 - Thermochemistry -
 -------------------
 Temperature   298.150 Kelvin.  Pressure   1.00000 Atm.
 Atom     1 has atomic number  6 and mass  12.00000

 Molecular mass:   178.17215 amu.
 Principal axes and moments of inertia in atomic units:
                           1         2         3
     Eigenvalues --  1963.921223187.054704265.81606
           X            0.99989  -0.01513   0.00043
           Y            0.01513   0.99988   0.00261
           Z           -0.00047  -0.00261   1.00000
 This molecule is an asymmetric top.
 Rotational symmetry number  1.
 Warning -- assumption of classical behavior for rotation
           may cause significant error
 Rotational temperatures (Kelvin)      0.04410     0.02718     0.02030
 Rotational constants (GHZ):           0.91895     0.56627     0.42307
 Zero-point vibrational energy     835705.6 (Joules/Mol)
                                  199.73842 (Kcal/Mol)
 Warning -- explicit consideration of  22 degrees of freedom as
           vibrations may cause significant error
 Vibrational temperatures:     27.76    68.27    89.23   143.82   162.42
          (Kelvin)            193.72   217.71   225.34   262.21   292.69
                              337.84   356.09   371.02   379.85   445.52
                              520.20   585.65   660.05   732.14   782.35
                              822.57   880.89   940.97  1046.10  1066.10
                             1093.05  1181.84  1204.76  1232.19  1290.87
                             1318.10  1321.12  1340.97  1352.52  1371.51
                             1437.73  1459.54  1490.21  1510.56  1517.58
                             1524.59  1533.15  1551.84  1577.10  1602.54
                             1638.48  1710.38  1726.86  1745.01  1800.57
                             1806.32  1855.73  1869.68  1879.26  1902.60
                             1910.74  1922.32  1935.48  1957.45  2002.56
                             2020.98  2026.01  2031.57  2078.22  2120.00
                             2126.77  2131.04  2137.15  2138.65  2144.34
                             2146.11  2150.85  2157.91  2168.72  2173.64
                             2448.21  2495.97  4309.56  4316.42  4341.64
                             4344.41  4346.35  4355.05  4356.78  4372.97
                             4376.85  4383.60  4408.10  4410.80  4418.88
                             4433.66  4452.96  4453.50  4458.77  4472.01
                             4476.53  4510.27  4513.50  4630.07

 Zero-point correction=                           0.318303 (Hartree/Particle)
 Thermal correction to Energy=                    0.333713
 Thermal correction to Enthalpy=                  0.334657
 Thermal correction to Gibbs Free Energy=         0.275079
 Sum of electronic and zero-point Energies=           -508.329161
 Sum of electronic and thermal Energies=              -508.313752
 Sum of electronic and thermal Enthalpies=            -508.312807
 Sum of electronic and thermal Free Energies=         -508.372385

                     E (Thermal)             CV                S
                      KCal/Mol        Cal/Mol-Kelvin    Cal/Mol-Kelvin
 Total                  209.408             57.404            125.391
 Electronic               0.000              0.000              0.000
 Translational            0.889              2.981             41.440
 Rotational               0.889              2.981             31.657
 Vibrational            207.630             51.442             52.294
 Vibration     1          0.593              1.986              6.705
 Vibration     2          0.595              1.979              4.921
 Vibration     3          0.597              1.972              4.392
 Vibration     4          0.604              1.949              3.455
 Vibration     5          0.607              1.939              3.219
 Vibration     6          0.613              1.919              2.879
 Vibration     7          0.619              1.901              2.656
 Vibration     8          0.620              1.895              2.590
 Vibration     9          0.630              1.864              2.305
 Vibration    10          0.639              1.835              2.102
 Vibration    11          0.655              1.788              1.842
 Vibration    12          0.661              1.767              1.748
 Vibration    13          0.667              1.749              1.676
 Vibration    14          0.671              1.739              1.635
 Vibration    15          0.699              1.655              1.364
 Vibration    16          0.736              1.551              1.115
 Vibration    17          0.772              1.455              0.937
 Vibration    18          0.817              1.342              0.770
 Vibration    19          0.864              1.230              0.636
 Vibration    20          0.899              1.153              0.557
 Vibration    21          0.928              1.092              0.501
 Vibration    22          0.971              1.006              0.429

 Optimization completed.
    -- Stationary point found.
 Normal termination of Gaussian 16 at Sun May 28 12:18:15 2023.
