 Gaussian 16, Revision A.03,
 Gaussian 16:  ES64L-G16RevA.03 25-Dec-2016

 -----------------------------
 # opt freq b3lyp/6-31g(2df,p)
 -----------------------------

 -------------------
 Title Card Required
 -------------------
 Symbolic Z-matrix:
 Charge =  0 Multiplicity = 1

 SCF Done:  E(RB3LYP) =  -819.707854319     A.U. after   14 cycles
 SCF Done:  E(RB3LYP) =  -819.728882485     A.U. after   12 cycles
 SCF Done:  E(RB3LYP) =  -819.743718190     A.U. after   13 cycles
 SCF Done:  E(RB3LYP) =  -819.754014152     A.U. after   12 cycles
 SCF Done:  E(RB3LYP) =  -819.760883121     A.U. after   13 cycles
 SCF Done:  E(RB3LYP) =  -819.764830211     A.U. after   13 cycles
 SCF Done:  E(RB3LYP) =  -819.766106703     A.U. after   13 cycles
 SCF Done:  E(RB3LYP) =  -819.767184379     A.U. after   12 cycles
 SCF Done:  E(RB3LYP) =  -819.767926808     A.U. after   12 cycles
 SCF Done:  E(RB3LYP) =  -819.767769080     A.U. after   11 cycles
 SCF Done:  E(RB3LYP) =  -819.769184865     A.U. after    8 cycles
 SCF Done:  E(RB3LYP) =  -819.768811128     A.U. after   11 cycles
 SCF Done:  E(RB3LYP) =  -819.769243694     A.U. after   11 cycles
 SCF Done:  E(RB3LYP) =  -819.769282309     A.U. after    9 cycles
 SCF Done:  E(RB3LYP) =  -819.769291822     A.U. after    9 cycles
 SCF Done:  E(RB3LYP) =  -819.769293144     A.U. after    9 cycles
 SCF Done:  E(RB3LYP) =  -819.769294125     A.U. after    7 cycles
 SCF Done:  E(RB3LYP) =  -819.769294385     A.U. after    7 cycles
 SCF Done:  E(RB3LYP) =  -819.769294421     A.U. after    6 cycles
 Optimization completed.
    -- Stationary point found.
 Normal termination of Gaussian 16 at Mon May 22 22:29:20 2023.

 ----------------------------------------------------------------------
 #N Geom=AllCheck Guess=TCheck SCRF=Check GenChk RB3LYP/6-31G(2df,p) Fr
 eq
 ----------------------------------------------------------------------

 Structure from the checkpoint file:  "CdCqCrCqCqCCdOrCCCCCCCrC1CCCC1.chk"
 -------------------
 Title Card Required
 -------------------
 Charge =  0 Multiplicity = 1

                         Standard orientation:
 ---------------------------------------------------------------------
 Center     Atomic      Atomic             Coordinates (Angstroms)
 Number     Number       Type             X           Y           Z
 ---------------------------------------------------------------------
      1          6           0        1.769895   -3.104577   -0.637765
      2          6           0        1.599508   -2.002328    0.095712
      3          6           0        1.193782   -2.115197    1.548811
      4          6           0        1.786821   -0.618408   -0.524205
      5          6           0        0.625373    0.348857   -0.134857
      6          6           0        0.827866    1.782474   -0.690168
      7          6           0        1.595974    2.710280    0.221430
      8          8           0        2.553768    3.370857   -0.091767
      9          6           0       -0.731050   -0.214870   -0.619992
     10          6           0       -1.958605    0.357707    0.098475
     11          6           0       -3.283709   -0.199602   -0.434744
     12          6           0       -4.515131    0.348205    0.294607
     13          6           0       -5.839314   -0.209697   -0.237503
     14          6           0       -7.071460    0.335813    0.492455
     15          6           0       -8.389882   -0.227261   -0.044987
     16          6           0        3.209894   -0.031530   -0.301084
     17          6           0        3.748429    0.142989    1.132026
     18          6           0        5.207725    0.564365    0.891884
     19          6           0        5.658501   -0.263600   -0.344537
     20          6           0        4.353240   -0.813891   -0.983344
     21          1           0        1.662784   -4.097095   -0.210575
     22          1           0        2.022048   -3.057121   -1.692441
     23          1           0        1.250664   -3.153195    1.886519
     24          1           0        0.161407   -1.777301    1.700864
     25          1           0        1.817676   -1.506991    2.209266
     26          1           0        1.705610   -0.755395   -1.612263
     27          1           0        0.585940    0.421352    0.961171
     28          1           0       -0.160528    2.251583   -0.799227
     29          1           0        1.293978    1.777581   -1.680168
     30          1           0        1.182215    2.764513    1.257290
     31          1           0       -0.733591   -1.303724   -0.502758
     32          1           0       -0.818171   -0.034919   -1.701049
     33          1           0       -1.977029    1.453376    0.017360
     34          1           0       -1.880278    0.139754    1.173166
     35          1           0       -3.272865   -1.295658   -0.357557
     36          1           0       -3.365950    0.025448   -1.507218
     37          1           0       -4.525804    1.444568    0.216989
     38          1           0       -4.431513    0.123434    1.367241
     39          1           0       -5.828815   -1.306153   -0.160964
     40          1           0       -5.924242    0.015623   -1.309987
     41          1           0       -7.081894    1.431227    0.415013
     42          1           0       -6.986041    0.110181    1.563830
     43          1           0       -8.519632    0.012914   -1.106243
     44          1           0       -9.249928    0.180394    0.495555
     45          1           0       -8.422986   -1.318314    0.051460
     46          1           0        3.212985    0.965195   -0.756077
     47          1           0        3.725897   -0.815658    1.662608
     48          1           0        3.192293    0.868004    1.734689
     49          1           0        5.844994    0.402745    1.765721
     50          1           0        5.239292    1.635079    0.663479
     51          1           0        6.322480   -1.082674   -0.052996
     52          1           0        6.220672    0.357371   -1.047511
     53          1           0        4.246066   -1.882470   -0.772599
     54          1           0        4.334985   -0.698914   -2.071742
 ---------------------------------------------------------------------

 SCF Done:  E(RB3LYP) =  -819.769294421     A.U. after    1 cycles

 The electronic state is 1-A.
 Alpha  occ. eigenvalues --  -19.13862 -10.27089 -10.19874 -10.19273 -10.19207
 Alpha  occ. eigenvalues --  -10.19044 -10.18268 -10.18068 -10.18062 -10.17939
 Alpha  occ. eigenvalues --  -10.17805 -10.17780 -10.17766 -10.17621 -10.17148
 Alpha  occ. eigenvalues --  -10.17141 -10.16903 -10.16878 -10.16854 -10.16652
 Alpha  occ. eigenvalues --   -1.04522  -0.84717  -0.81953  -0.80552  -0.79112
 Alpha  occ. eigenvalues --   -0.77176  -0.73209  -0.72431  -0.69946  -0.69065
 Alpha  occ. eigenvalues --   -0.68340  -0.65775  -0.61895  -0.58564  -0.57922
 Alpha  occ. eigenvalues --   -0.57760  -0.57207  -0.56023  -0.55210  -0.51740
 Alpha  occ. eigenvalues --   -0.49038  -0.47841  -0.47368  -0.46413  -0.46160
 Alpha  occ. eigenvalues --   -0.45111  -0.43724  -0.43660  -0.43082  -0.42386
 Alpha  occ. eigenvalues --   -0.42048  -0.41293  -0.41120  -0.40658  -0.39406
 Alpha  occ. eigenvalues --   -0.38943  -0.38274  -0.37662  -0.37018  -0.36947
 Alpha  occ. eigenvalues --   -0.35752  -0.35617  -0.34657  -0.34242  -0.33373
 Alpha  occ. eigenvalues --   -0.33041  -0.32910  -0.32566  -0.32370  -0.32270
 Alpha  occ. eigenvalues --   -0.32110  -0.32017  -0.30833  -0.30485  -0.29883
 Alpha  occ. eigenvalues --   -0.29238  -0.24983  -0.24438
 Alpha virt. eigenvalues --   -0.02134   0.01963   0.07545   0.08731   0.08897
 Alpha virt. eigenvalues --    0.09332   0.09747   0.10446   0.11098   0.11592
 Alpha virt. eigenvalues --    0.12225   0.12748   0.12970   0.13684   0.14264

 Mulliken charges:
               1
     1  C   -0.412441
     2  C    0.379023
     3  C   -0.485797
     4  C   -0.129353
     5  C   -0.030890
     6  C   -0.305748
     7  C    0.169858
     8  O   -0.250538
     9  C   -0.201462
    10  C   -0.198580
    11  C   -0.179408
    12  C   -0.180532
    13  C   -0.158731
    14  C   -0.163322
    15  C   -0.379284
    16  C    0.028948
    17  C   -0.218808
    18  C   -0.212004
    19  C   -0.205372
    20  C   -0.230711
    21  H    0.100720
    22  H    0.102071
    23  H    0.118762
    24  H    0.127066
    25  H    0.130382
    26  H    0.073476
    27  H    0.076103
    28  H    0.118664
    29  H    0.121347
    30  H    0.073055
    31  H    0.107088
    32  H    0.091907
    33  H    0.091387
    34  H    0.094074
    35  H    0.094625
    36  H    0.092892
    37  H    0.090809
    38  H    0.090908
    39  H    0.090691
    40  H    0.090538
    41  H    0.093263
    42  H    0.093177
    43  H    0.112894
    44  H    0.110451
    45  H    0.112843
    46  H    0.096558
    47  H    0.097658
    48  H    0.085304
    49  H    0.088593
    50  H    0.114535
    51  H    0.095796
    52  H    0.098534
    53  H    0.103197
    54  H    0.085781
 Sum of Mulliken charges =  -0.00000

 Dipole moment (field-independent basis, Debye):
    X=             -2.1527    Y=             -1.4555    Z=              0.3963  Tot=              2.6286
 Quadrupole moment (field-independent basis, Debye-Ang):
   XX=           -135.5713   YY=           -135.8741   ZZ=           -125.8886
   XY=             -8.5820   XZ=              0.5093   YZ=             -0.8292

  Exact polarizability: 248.233   4.524 199.792  -3.894   6.314 175.747
 Approx polarizability: 284.753   6.855 302.471  -8.687   9.092 286.288

                      1                      2                      3
                      A                      A                      A
 Frequencies --     20.3528                24.8114                36.9735
 Red. masses --      3.8883                 3.9695                 1.5764
 Frc consts  --      0.0009                 0.0014                 0.0013
 IR Inten    --      0.0443                 0.0740                 0.0431

                      4                      5                      6
                      A                      A                      A
 Frequencies --     45.2794                58.3873                62.1590
 Red. masses --      3.6528                 3.4801                 2.2833
 Frc consts  --      0.0044                 0.0070                 0.0052
 IR Inten    --      0.7721                 0.9178                 0.1948

                      7                      8                      9
                      A                      A                      A
 Frequencies --     71.5163                82.1070                87.3053
 Red. masses --      3.9420                 3.0840                 3.2350
 Frc consts  --      0.0119                 0.0122                 0.0145
 IR Inten    --      2.7879                 2.9973                 2.6250

                     10                     11                     12
                      A                      A                      A
 Frequencies --     96.2530               106.3878               124.5305
 Red. masses --      2.4992                 1.9916                 2.5228
 Frc consts  --      0.0136                 0.0133                 0.0231
 IR Inten    --      1.2695                 0.4709                 0.5498

                     13                     14                     15
                      A                      A                      A
 Frequencies --    138.1305               152.4651               155.3613
 Red. masses --      2.4389                 2.2956                 2.0389
 Frc consts  --      0.0274                 0.0314                 0.0290
 IR Inten    --      0.0248                 0.4083                 0.1010

                     16                     17                     18
                      A                      A                      A
 Frequencies --    172.1032               176.9183               191.9366
 Red. masses --      2.2091                 3.2173                 1.4541
 Frc consts  --      0.0386                 0.0593                 0.0316
 IR Inten    --      0.1886                 0.3194                 0.2232

                     19                     20                     21
                      A                      A                      A
 Frequencies --    200.5274               231.0049               243.9728
 Red. masses --      2.9244                 2.3518                 3.0655
 Frc consts  --      0.0693                 0.0739                 0.1075
 IR Inten    --      0.0340                 0.6649                 1.3531

                     22                     23                     24
                      A                      A                      A
 Frequencies --    247.2328               269.9480               312.1292
 Red. masses --      1.1239                 2.9358                 2.9805
 Frc consts  --      0.0405                 0.1260                 0.1711
 IR Inten    --      0.0094                 0.9840                 1.1121

                     25                     26                     27
                      A                      A                      A
 Frequencies --    338.6262               361.6916               389.9208
 Red. masses --      3.2442                 2.6772                 3.4156
 Frc consts  --      0.2192                 0.2063                 0.3060
 IR Inten    --      0.1616                 0.4463                 0.1744

                     28                     29                     30
                      A                      A                      A
 Frequencies --    430.4627               453.4267               484.7547
 Red. masses --      2.3510                 2.6496                 2.6467
 Frc consts  --      0.2567                 0.3209                 0.3664
 IR Inten    --      1.8952                 0.7374                 8.7478

                     31                     32                     33
                      A                      A                      A
 Frequencies --    495.9934               516.9343               543.9930
 Red. masses --      2.5250                 2.7733                 2.7399
 Frc consts  --      0.3660                 0.4366                 0.4777
 IR Inten    --      3.2869                 2.8352                 4.1892

                     34                     35                     36
                      A                      A                      A
 Frequencies --    561.1006               621.6003               669.0960
 Red. masses --      2.6181                 2.4837                 1.7157
 Frc consts  --      0.4857                 0.5654                 0.4526
 IR Inten    --      3.6035                 0.1705                 1.8187

                     37                     38                     39
                      A                      A                      A
 Frequencies --    730.0011               734.1321               754.5290
 Red. masses --      1.0704                 1.0977                 1.3938
 Frc consts  --      0.3361                 0.3486                 0.4675
 IR Inten    --      3.9890                 0.7972                 0.9331

                     40                     41                     42
                      A                      A                      A
 Frequencies --    754.6835               775.9773               784.7297
 Red. masses --      1.5821                 1.5016                 1.3151
 Frc consts  --      0.5309                 0.5327                 0.4772
 IR Inten    --      0.6726                 0.5066                 1.1842

                     43                     44                     45
                      A                      A                      A
 Frequencies --    798.7645               833.6087               836.2494
 Red. masses --      1.8298                 1.5861                 1.4511
 Frc consts  --      0.6879                 0.6494                 0.5979
 IR Inten    --      2.1050                 1.0794                 0.1344

                     46                     47                     48
                      A                      A                      A
 Frequencies --    881.5043               895.2015               897.9112
 Red. masses --      3.0178                 2.5071                 1.9510
 Frc consts  --      1.3816                 1.1837                 0.9268
 IR Inten    --      1.0028                 1.5360                 1.2344

                     49                     50                     51
                      A                      A                      A
 Frequencies --    912.9844               934.4859               941.4466
 Red. masses --      1.3948                 1.3932                 2.2123
 Frc consts  --      0.6850                 0.7168                 1.1553
 IR Inten    --      0.8671                33.1486                 3.3720

                     52                     53                     54
                      A                      A                      A
 Frequencies --    954.6656               965.8486               970.6063
 Red. masses --      2.1234                 1.6726                 1.9043
 Frc consts  --      1.1402                 0.9193                 1.0570
 IR Inten    --      2.6563                 1.3823                 2.3934

                     55                     56                     57
                      A                      A                      A
 Frequencies --    986.9313               995.4365              1009.2127
 Red. masses --      1.3950                 2.6295                 1.7606
 Frc consts  --      0.8006                 1.5351                 1.0565
 IR Inten    --      4.0279                 0.3623                 1.2835

                     58                     59                     60
                      A                      A                      A
 Frequencies --   1013.0156              1022.7742              1031.5566
 Red. masses --      1.5398                 1.6406                 2.6525
 Frc consts  --      0.9310                 1.0111                 1.6630
 IR Inten    --      5.7824                 2.1747                 3.0920

                     61                     62                     63
                      A                      A                      A
 Frequencies --   1035.8460              1046.5831              1053.2094
 Red. masses --      2.4773                 2.6946                 1.5061
 Frc consts  --      1.5661                 1.7390                 0.9843
 IR Inten    --      1.7246                 0.0398                 8.4699

                     64                     65                     66
                      A                      A                      A
 Frequencies --   1061.2559              1066.5622              1071.2220
 Red. masses --      2.4796                 2.3763                 1.9521
 Frc consts  --      1.6454                 1.5927                 1.3198
 IR Inten    --      4.3013                 0.1101                 0.7260

                     67                     68                     69
                      A                      A                      A
 Frequencies --   1072.0945              1076.9631              1112.8392
 Red. masses --      1.7811                 2.2432                 2.4333
 Frc consts  --      1.2062                 1.5329                 1.7755
 IR Inten    --      0.0315                 0.8781                 6.2122

                     70                     71                     72
                      A                      A                      A
 Frequencies --   1123.2554              1146.6539              1160.5258
 Red. masses --      2.4222                 3.2403                 1.8494
 Frc consts  --      1.8006                 2.5101                 1.4675
 IR Inten    --      2.5432                 2.4149                 3.4045

                     73                     74                     75
                      A                      A                      A
 Frequencies --   1183.8629              1203.7159              1211.3956
 Red. masses --      1.3679                 1.3019                 1.4503
 Frc consts  --      1.1296                 1.1114                 1.2540
 IR Inten    --      2.7749                 6.9026                 3.1571

                     76                     77                     78
                      A                      A                      A
 Frequencies --   1218.3282              1227.7355              1236.0874
 Red. masses --      1.6726                 1.5450                 1.3169
 Frc consts  --      1.4627                 1.3721                 1.1855
 IR Inten    --      1.1894                 1.6923                 3.7849

                     79                     80                     81
                      A                      A                      A
 Frequencies --   1261.2283              1265.4184              1276.1467
 Red. masses --      1.3459                 1.3712                 1.6324
 Frc consts  --      1.2614                 1.2937                 1.5663
 IR Inten    --      1.7092                 0.4304                 7.7092

                     82                     83                     84
                      A                      A                      A
 Frequencies --   1282.9438              1285.4132              1296.2156
 Red. masses --      1.4972                 1.3524                 1.2496
 Frc consts  --      1.4519                 1.3165                 1.2370
 IR Inten    --      0.2288                 4.3728                 1.6747

                     85                     86                     87
                      A                      A                      A
 Frequencies --   1309.0176              1312.4829              1317.2282
 Red. masses --      1.2990                 1.3461                 1.2490
 Frc consts  --      1.3114                 1.3662                 1.2768
 IR Inten    --      3.1829                 0.6416                 0.6212

                     88                     89                     90
                      A                      A                      A
 Frequencies --   1321.1038              1325.9838              1335.9148
 Red. masses --      1.3027                 1.0306                 1.1388
 Frc consts  --      1.3396                 1.0676                 1.1975
 IR Inten    --      0.4861                 0.2879                 0.4713

                     91                     92                     93
                      A                      A                      A
 Frequencies --   1336.8004              1339.4461              1342.7044
 Red. masses --      1.0888                 1.3805                 1.2971
 Frc consts  --      1.1464                 1.4593                 1.3778
 IR Inten    --      0.5553                 0.7650                 0.0067

                     94                     95                     96
                      A                      A                      A
 Frequencies --   1349.0205              1364.7854              1373.2372
 Red. masses --      1.3273                 1.3512                 1.3137
 Frc consts  --      1.4232                 1.4829                 1.4596
 IR Inten    --      2.2728                 0.1929                 2.8088

                     97                     98                     99
                      A                      A                      A
 Frequencies --   1383.0532              1389.6569              1400.4513
 Red. masses --      1.3192                 1.4604                 1.5958
 Frc consts  --      1.4867                 1.6616                 1.8440
 IR Inten    --      1.8650                 2.6685                 0.4565

                    100                    101                    102
                      A                      A                      A
 Frequencies --   1401.9150              1403.9203              1413.1408
 Red. masses --      1.5714                 1.3487                 1.2608
 Frc consts  --      1.8197                 1.5662                 1.4834
 IR Inten    --      0.4022                 6.7278                 6.7556

                    103                    104                    105
                      A                      A                      A
 Frequencies --   1413.6976              1427.3654              1457.1692
 Red. masses --      1.2578                 1.1876                 1.1948
 Frc consts  --      1.4811                 1.4256                 1.4948
 IR Inten    --      0.6824                 2.3115                 2.9410

                    106                    107                    108
                      A                      A                      A
 Frequencies --   1462.7078              1479.4275              1482.1121
 Red. masses --      1.0906                 1.0624                 1.0711
 Frc consts  --      1.3747                 1.3701                 1.3862
 IR Inten    --      8.2830                 0.5322                 0.8995

                    109                    110                    111
                      A                      A                      A
 Frequencies --   1482.9132              1486.0384              1488.7101
 Red. masses --      1.0704                 1.0700                 1.0767
 Frc consts  --      1.3869                 1.3922                 1.4059
 IR Inten    --      0.7313                 0.3586                 0.8389

                    112                    113                    114
                      A                      A                      A
 Frequencies --   1491.8912              1494.4559              1498.2292
 Red. masses --      1.0746                 1.0875                 1.0712
 Frc consts  --      1.4092                 1.4310                 1.4167
 IR Inten    --      2.0938                 0.7029                 6.5486

                    115                    116                    117
                      A                      A                      A
 Frequencies --   1499.2529              1499.8299              1502.9768
 Red. masses --      1.0837                 1.0403                 1.0727
 Frc consts  --      1.4352                 1.3787                 1.4278
 IR Inten    --      0.6308                 4.9856                 1.4725

                    118                    119                    120
                      A                      A                      A
 Frequencies --   1509.8484              1515.6557              1519.9444
 Red. masses --      1.0878                 1.0956                 1.1036
 Frc consts  --      1.4611                 1.4829                 1.5022
 IR Inten    --      0.7192                 3.1470                 0.6343

                    121                    122                    123
                      A                      A                      A
 Frequencies --   1704.4183              1826.4691              2841.9164
 Red. masses --      5.0466                10.1477                 1.0810
 Frc consts  --      8.6378                19.9455                 5.1440
 IR Inten    --     10.7597               177.7817                79.3105

                    124                    125                    126
                      A                      A                      A
 Frequencies --   2990.7267              2997.3174              2999.7673
 Red. masses --      1.0804                 1.0581                 1.0580
 Frc consts  --      5.6934                 5.6006                 5.6094
 IR Inten    --      4.9397                 1.2252                 0.8485

                    127                    128                    129
                      A                      A                      A
 Frequencies --   3000.7401              3003.4211              3009.2242
 Red. masses --      1.0593                 1.0739                 1.0635
 Frc consts  --      5.6201                 5.7074                 5.6741
 IR Inten    --      0.1904                 5.5146                 3.8028

                    130                    131                    132
                      A                      A                      A
 Frequencies --   3013.6456              3015.5413              3018.0264
 Red. masses --      1.0649                 1.0665                 1.0749
 Frc consts  --      5.6981                 5.7139                 5.7685
 IR Inten    --      8.4506                22.1486               102.9720

                    133                    134                    135
                      A                      A                      A
 Frequencies --   3019.2907              3024.0989              3028.1763
 Red. masses --      1.0916                 1.0944                 1.0357
 Frc consts  --      5.8630                 5.8968                 5.5956
 IR Inten    --     24.9180                11.4282                42.6916

                    136                    137                    138
                      A                      A                      A
 Frequencies --   3031.0904              3033.6064              3035.1778
 Red. masses --      1.0457                 1.1005                 1.0600
 Frc consts  --      5.6604                 5.9668                 5.7533
 IR Inten    --      7.3750                 3.6525                40.2025

                    139                    140                    141
                      A                      A                      A
 Frequencies --   3042.2554              3044.0386              3047.6061
 Red. masses --      1.0603                 1.0637                 1.0774
 Frc consts  --      5.7818                 5.8070                 5.8958
 IR Inten    --      4.0008                38.7287                20.2254

                    142                    143                    144
                      A                      A                      A
 Frequencies --   3048.5068              3056.7987              3060.9859
 Red. masses --      1.1032                 1.0646                 1.1039
 Frc consts  --      6.0406                 5.8611                 6.0940
 IR Inten    --      0.5166                51.2712                73.5746

                    145                    146                    147
                      A                      A                      A
 Frequencies --   3073.5810              3074.1569              3082.4119
 Red. masses --      1.0974                 1.0984                 1.1012
 Frc consts  --      6.1082                 6.1162                 6.1644
 IR Inten    --     66.5352                20.8322                19.5934

                    148                    149                    150
                      A                      A                      A
 Frequencies --   3088.9137              3089.5323              3091.0942
 Red. masses --      1.0990                 1.0948                 1.0976
 Frc consts  --      6.1782                 6.1571                 6.1787
 IR Inten    --      2.0514                12.5085                28.5337

                    151                    152                    153
                      A                      A                      A
 Frequencies --   3094.2489              3099.9676              3105.5268
 Red. masses --      1.1020                 1.1009                 1.1050
 Frc consts  --      6.2166                 6.2335                 6.2787
 IR Inten    --     58.5974                39.2706                85.7255

                    154                    155                    156
                      A                      A                      A
 Frequencies --   3121.5078              3138.5039              3217.7413
 Red. masses --      1.1013                 1.0609                 1.1145
 Frc consts  --      6.3227                 6.1573                 6.7989
 IR Inten    --     12.5141                 8.6030                15.3767

 - Thermochemistry -
 -------------------
 Temperature   298.150 Kelvin.  Pressure   1.00000 Atm.
 Atom     1 has atomic number  6 and mass  12.00000

 Molecular mass:   278.26097 amu.
 Principal axes and moments of inertia in atomic units:
                           1         2         3
     Eigenvalues --  2789.96197********************
           X            0.99999  -0.00419   0.00044
           Y            0.00419   0.99999   0.00116
           Z           -0.00045  -0.00116   1.00000
 This molecule is an asymmetric top.
 Rotational symmetry number  1.
 Warning -- assumption of classical behavior for rotation
           may cause significant error
 Rotational temperatures (Kelvin)      0.03104     0.00524     0.00474
 Rotational constants (GHZ):           0.64687     0.10913     0.09878
 Zero-point vibrational energy    1297166.3 (Joules/Mol)
                                  310.03019 (Kcal/Mol)
 Warning -- explicit consideration of  34 degrees of freedom as
           vibrations may cause significant error
 Vibrational temperatures:     29.28    35.70    53.20    65.15    84.01
          (Kelvin)             89.43   102.90   118.13   125.61   138.49
                              153.07   179.17   198.74   219.36   223.53
                              247.62   254.55   276.15   288.51   332.36
                              351.02   355.71   388.39   449.08   487.21
                              520.39   561.01   619.34   652.38   697.45
                              713.62   743.75   782.68   807.30   894.34
                              962.68  1050.31  1056.25  1085.60  1085.82
                             1116.46  1129.05  1149.24  1199.38  1203.18
                             1268.29  1288.00  1291.89  1313.58  1344.52
                             1354.53  1373.55  1389.64  1396.49  1419.97
                             1432.21  1452.03  1457.50  1471.54  1484.18
                             1490.35  1505.80  1515.33  1526.91  1534.55
                             1541.25  1542.50  1549.51  1601.13  1616.11
                             1649.78  1669.74  1703.31  1731.88  1742.93
                             1752.90  1766.44  1778.45  1814.63  1820.65
                             1836.09  1845.87  1849.42  1864.97  1883.38
                             1888.37  1895.20  1900.77  1907.79  1922.08
                             1923.36  1927.16  1931.85  1940.94  1963.62
                             1975.78  1989.91  1999.41  2014.94  2017.04
                             2019.93  2033.19  2034.00  2053.66  2096.54
                             2104.51  2128.57  2132.43  2133.58  2138.08
                             2141.92  2146.50  2150.19  2155.62  2157.09
                             2157.92  2162.45  2172.34  2180.69  2186.86
                             2452.28  2627.88  4088.88  4302.99  4312.47
                             4316.00  4317.40  4321.25  4329.60  4335.96
                             4338.69  4342.27  4344.09  4351.00  4356.87
                             4361.06  4364.68  4366.94  4377.13  4379.69
                             4384.83  4386.12  4398.05  4404.08  4422.20
                             4423.03  4434.90  4444.26  4445.15  4447.40
                             4451.93  4460.16  4468.16  4491.15  4515.61
                             4629.61

 Zero-point correction=                           0.494065 (Hartree/Particle)
 Thermal correction to Energy=                    0.518210
 Thermal correction to Enthalpy=                  0.519154
 Thermal correction to Gibbs Free Energy=         0.437694
 Sum of electronic and zero-point Energies=           -819.275230
 Sum of electronic and thermal Energies=              -819.251084
 Sum of electronic and thermal Enthalpies=            -819.250140
 Sum of electronic and thermal Free Energies=         -819.331600

                     E (Thermal)             CV                S
                      KCal/Mol        Cal/Mol-Kelvin    Cal/Mol-Kelvin
 Total                  325.182             88.674            171.447
 Electronic               0.000              0.000              0.000
 Translational            0.889              2.981             42.769
 Rotational               0.889              2.981             35.087
 Vibrational            323.404             82.712             93.591
 Vibration     1          0.593              1.986              6.599
 Vibration     2          0.593              1.985              6.206
 Vibration     3          0.594              1.982              5.415
 Vibration     4          0.595              1.979              5.014
 Vibration     5          0.596              1.974              4.511
 Vibration     6          0.597              1.972              4.387
 Vibration     7          0.598              1.968              4.111
 Vibration     8          0.600              1.961              3.840
 Vibration     9          0.601              1.958              3.720
 Vibration    10          0.603              1.952              3.529
 Vibration    11          0.605              1.944              3.334
 Vibration    12          0.610              1.928              3.029
 Vibration    13          0.614              1.915              2.830
 Vibration    14          0.619              1.900              2.641
 Vibration    15          0.620              1.897              2.606
 Vibration    16          0.626              1.877              2.412
 Vibration    17          0.628              1.871              2.361
 Vibration    18          0.634              1.851              2.209
 Vibration    19          0.638              1.839              2.128
 Vibration    20          0.653              1.794              1.871
 Vibration    21          0.659              1.773              1.774
 Vibration    22          0.661              1.767              1.750
 Vibration    23          0.674              1.729              1.597
 Vibration    24          0.700              1.651              1.351
 Vibration    25          0.719              1.598              1.219
 Vibration    26          0.736              1.551              1.115
 Vibration    27          0.758              1.492              1.000
 Vibration    28          0.792              1.404              0.857
 Vibration    29          0.812              1.353              0.785
 Vibration    30          0.841              1.284              0.697
 Vibration    31          0.852              1.259              0.668
 Vibration    32          0.872              1.212              0.617
 Vibration    33          0.899              1.153              0.557
 Vibration    34          0.917              1.115              0.522

                           ! Non-Optimized Parameters !
 Normal termination of Gaussian 16 at Tue May 23 07:48:16 2023.
