 Gaussian 16, Revision A.03,
 Gaussian 16:  ES64L-G16RevA.03 25-Dec-2016

 -----------------------------
 # opt freq b3lyp/6-31g(2df,p)
 -----------------------------

 -------------------
 Title Card Required
 -------------------
 Symbolic Z-matrix:
 Charge =  0 Multiplicity = 1

 SCF Done:  E(RB3LYP) =  -444.813715433     A.U. after   14 cycles
 SCF Done:  E(RB3LYP) =  -444.824490655     A.U. after   12 cycles
 SCF Done:  E(RB3LYP) =  -444.827320701     A.U. after   11 cycles
 SCF Done:  E(RB3LYP) =  -444.828844257     A.U. after   11 cycles
 SCF Done:  E(RB3LYP) =  -444.830947708     A.U. after   13 cycles
 SCF Done:  E(RB3LYP) =  -444.832376816     A.U. after   11 cycles
 SCF Done:  E(RB3LYP) =  -444.834186358     A.U. after   12 cycles
 SCF Done:  E(RB3LYP) =  -444.834506370     A.U. after   11 cycles
 SCF Done:  E(RB3LYP) =  -444.834739323     A.U. after   11 cycles
 SCF Done:  E(RB3LYP) =  -444.834816468     A.U. after    9 cycles
 SCF Done:  E(RB3LYP) =  -444.834867646     A.U. after   10 cycles
 SCF Done:  E(RB3LYP) =  -444.834883872     A.U. after    9 cycles
 SCF Done:  E(RB3LYP) =  -444.834888464     A.U. after    8 cycles
 SCF Done:  E(RB3LYP) =  -444.834890416     A.U. after    8 cycles
 SCF Done:  E(RB3LYP) =  -444.834890716     A.U. after    7 cycles
 SCF Done:  E(RB3LYP) =  -444.834890964     A.U. after    8 cycles
 SCF Done:  E(RB3LYP) =  -444.834891059     A.U. after    7 cycles
 SCF Done:  E(RB3LYP) =  -444.834891067     A.U. after    7 cycles
 Optimization completed.
    -- Stationary point found.
 Normal termination of Gaussian 16 at Mon May 22 22:28:37 2023.

 ----------------------------------------------------------------------
 #N Geom=AllCheck Guess=TCheck SCRF=Check GenChk RB3LYP/6-31G(2df,p) Fr
 eq
 ----------------------------------------------------------------------

 Structure from the checkpoint file:  "CdCqCrC1CdCCdCqCCrN1.chk"
 -------------------
 Title Card Required
 -------------------
 Charge =  0 Multiplicity = 1

                         Standard orientation:
 ---------------------------------------------------------------------
 Center     Atomic      Atomic             Coordinates (Angstroms)
 Number     Number       Type             X           Y           Z
 ---------------------------------------------------------------------
      1          6           0        1.634383   -1.627023   -0.984556
      2          6           0        1.989850   -0.723530   -0.073986
      3          6           0        3.431975   -0.413757    0.233592
      4          6           0        0.969524    0.069033    0.754961
      5          6           0        1.015183    1.551880    0.426939
      6          6           0        0.066180    2.125774   -0.328620
      7          6           0       -1.101084    1.393660   -0.767227
      8          6           0       -1.314158    0.156083   -0.259179
      9          6           0       -2.555720   -0.653168   -0.523311
     10          6           0       -3.462667   -0.806544    0.711474
     11          7           0       -0.408880   -0.398621    0.620693
     12          1           0        2.376289   -2.179319   -1.552481
     13          1           0        0.595630   -1.841943   -1.206768
     14          1           0        4.108628   -1.055056   -0.336070
     15          1           0        3.646956   -0.551283    1.301611
     16          1           0        3.675074    0.628475   -0.003132
     17          1           0        1.264276   -0.068580    1.809122
     18          1           0        1.869843    2.112650    0.786440
     19          1           0        0.149417    3.177471   -0.588654
     20          1           0       -1.836897    1.849885   -1.415281
     21          1           0       -2.274424   -1.650948   -0.890358
     22          1           0       -3.114249   -0.170577   -1.330100
     23          1           0       -2.943517   -1.304192    1.536242
     24          1           0       -4.349866   -1.398676    0.467658
     25          1           0       -3.790638    0.173194    1.070870
     26          1           0       -0.555162   -1.365208    0.865535
 ---------------------------------------------------------------------

 SCF Done:  E(RB3LYP) =  -444.834891067     A.U. after    1 cycles

 The electronic state is 1-A.
 Alpha  occ. eigenvalues --  -14.33654 -10.22200 -10.21210 -10.19026 -10.18443
 Alpha  occ. eigenvalues --  -10.17952 -10.17731 -10.17072 -10.16505 -10.16325
 Alpha  occ. eigenvalues --  -10.14894  -0.93507  -0.80806  -0.77935  -0.77116
 Alpha  occ. eigenvalues --   -0.72026  -0.67985  -0.64854  -0.62849  -0.58402
 Alpha  occ. eigenvalues --   -0.53511  -0.51699  -0.47731  -0.46356  -0.45890
 Alpha  occ. eigenvalues --   -0.43722  -0.42861  -0.42822  -0.40589  -0.39576
 Alpha  occ. eigenvalues --   -0.39156  -0.36991  -0.36766  -0.35464  -0.35286
 Alpha  occ. eigenvalues --   -0.33815  -0.32234  -0.30526  -0.26898  -0.24139
 Alpha  occ. eigenvalues --   -0.16757
 Alpha virt. eigenvalues --   -0.00177   0.03347   0.07152   0.10285   0.10848
 Alpha virt. eigenvalues --    0.11755   0.12789   0.13381   0.14627   0.15230
 Alpha virt. eigenvalues --    0.15871   0.16758   0.17093   0.17482   0.19023

 Mulliken charges:
               1
     1  C   -0.417827
     2  C    0.366593
     3  C   -0.474140
     4  C   -0.120966
     5  C   -0.124721
     6  C   -0.050104
     7  C   -0.244196
     8  C    0.373978
     9  C   -0.292986
    10  C   -0.366478
    11  N   -0.353856
    12  H    0.099271
    13  H    0.097084
    14  H    0.121246
    15  H    0.118382
    16  H    0.132212
    17  H    0.080843
    18  H    0.087621
    19  H    0.083989
    20  H    0.074952
    21  H    0.101429
    22  H    0.115288
    23  H    0.115990
    24  H    0.114831
    25  H    0.128365
    26  H    0.233199
 Sum of Mulliken charges =  -0.00000

 Dipole moment (field-independent basis, Debye):
    X=             -0.2499    Y=             -1.1607    Z=              0.5221  Tot=              1.2970
 Quadrupole moment (field-independent basis, Debye-Ang):
   XX=            -63.0183   YY=            -65.9780   ZZ=            -68.6505
   XY=              1.9397   XZ=              2.3028   YZ=             -1.0510

  Exact polarizability: 135.257   6.585 114.903  11.298   0.886  88.063
 Approx polarizability: 180.063  15.125 183.903  26.290  -0.681 147.269

                      1                      2                      3
                      A                      A                      A
 Frequencies --     41.5516                54.7346                70.9347
 Red. masses --      2.9847                 2.6248                 3.2236
 Frc consts  --      0.0030                 0.0046                 0.0096
 IR Inten    --      0.1719                 0.0496                 0.2096

                      4                      5                      6
                      A                      A                      A
 Frequencies --    120.5987               179.9285               185.5870
 Red. masses --      2.7470                 1.1933                 2.0325
 Frc consts  --      0.0235                 0.0228                 0.0412
 IR Inten    --      2.7287                 0.7528                 0.1075

                      7                      8                      9
                      A                      A                      A
 Frequencies --    213.6782               279.5289               294.6422
 Red. masses --      1.2679                 2.5159                 3.0296
 Frc consts  --      0.0341                 0.1158                 0.1550
 IR Inten    --      0.1743                12.7734                 0.7368

                     10                     11                     12
                      A                      A                      A
 Frequencies --    359.4929               374.4329               419.9788
 Red. masses --      2.7262                 2.6256                 1.5441
 Frc consts  --      0.2076                 0.2169                 0.1605
 IR Inten    --     11.8640                 2.1112                45.3139

                     13                     14                     15
                      A                      A                      A
 Frequencies --    483.7801               485.2214               513.2382
 Red. masses --      3.3231                 2.7843                 2.4706
 Frc consts  --      0.4582                 0.3862                 0.3834
 IR Inten    --     16.9577                 2.9382                32.0439

                     16                     17                     18
                      A                      A                      A
 Frequencies --    581.5248               618.1065               672.8801
 Red. masses --      3.1374                 3.7566                 3.4605
 Frc consts  --      0.6251                 0.8456                 0.9231
 IR Inten    --      4.6450                 1.2525                 0.7940

                     19                     20                     21
                      A                      A                      A
 Frequencies --    713.0149               734.1128               767.3065
 Red. masses --      1.2117                 1.3882                 1.3839
 Frc consts  --      0.3629                 0.4408                 0.4801
 IR Inten    --      2.9442                26.5656                16.3392

                     22                     23                     24
                      A                      A                      A
 Frequencies --    795.5017               804.3353               867.5218
 Red. masses --      1.2307                 2.8500                 2.6201
 Frc consts  --      0.4589                 1.0864                 1.1618
 IR Inten    --      0.9630                 1.6890                20.7334

                     25                     26                     27
                      A                      A                      A
 Frequencies --    914.4220               923.9351               959.2175
 Red. masses --      2.9847                 1.3605                 2.1904
 Frc consts  --      1.4704                 0.6843                 1.1874
 IR Inten    --      0.9153                24.2117                 7.0111

                     28                     29                     30
                      A                      A                      A
 Frequencies --    971.5187               979.6253              1003.8586
 Red. masses --      2.2318                 1.3209                 1.7224
 Frc consts  --      1.2411                 0.7469                 1.0226
 IR Inten    --      0.2141                 1.4356                 3.7195

                     31                     32                     33
                      A                      A                      A
 Frequencies --   1025.9126              1032.9663              1070.1796
 Red. masses --      2.4965                 1.7283                 1.5279
 Frc consts  --      1.5481                 1.0865                 1.0310
 IR Inten    --      1.4866                 5.7518                 2.0001

                     34                     35                     36
                      A                      A                      A
 Frequencies --   1077.9813              1102.9276              1156.2752
 Red. masses --      1.9750                 1.4799                 2.5029
 Frc consts  --      1.3522                 1.0607                 1.9716
 IR Inten    --      2.4039                 1.3406                36.9546

                     37                     38                     39
                      A                      A                      A
 Frequencies --   1186.1411              1227.5143              1258.0548
 Red. masses --      1.1883                 1.6016                 2.3597
 Frc consts  --      0.9850                 1.4219                 2.2004
 IR Inten    --      3.2511                 7.6722                 4.6856

                     40                     41                     42
                      A                      A                      A
 Frequencies --   1276.4795              1300.0480              1350.4355
 Red. masses --      1.2406                 1.5687                 1.5455
 Frc consts  --      1.1910                 1.5621                 1.6606
 IR Inten    --      3.6883                 5.3411                15.0982

                     43                     44                     45
                      A                      A                      A
 Frequencies --   1360.3493              1374.1410              1405.9930
 Red. masses --      1.3686                 1.3461                 1.2206
 Frc consts  --      1.4922                 1.4976                 1.4217
 IR Inten    --     17.3639                12.6795                 6.1350

                     46                     47                     48
                      A                      A                      A
 Frequencies --   1407.4075              1438.2223              1443.4965
 Red. masses --      1.2248                 1.7722                 1.1850
 Frc consts  --      1.4294                 2.1598                 1.4548
 IR Inten    --      1.9878                 2.5576                 1.8137

                     49                     50                     51
                      A                      A                      A
 Frequencies --   1478.8422              1480.4019              1494.6248
 Red. masses --      1.0892                 1.0513                 1.0544
 Frc consts  --      1.4035                 1.3575                 1.3877
 IR Inten    --      8.5211                 4.6198                10.0222

                     52                     53                     54
                      A                      A                      A
 Frequencies --   1495.1771              1506.6948              1523.9453
 Red. masses --      1.0467                 1.0716                 1.8802
 Frc consts  --      1.3787                 1.4333                 2.5727
 IR Inten    --      2.7238                 2.4742                74.0225

                     55                     56                     57
                      A                      A                      A
 Frequencies --   1641.9022              1699.0838              1720.1152
 Red. masses --      5.2177                 6.0340                 5.4502
 Frc consts  --      8.2875                10.2632                 9.5012
 IR Inten    --     91.2687                33.5817                 8.0445

                     58                     59                     60
                      A                      A                      A
 Frequencies --   2936.9562              3002.3103              3018.5561
 Red. masses --      1.0828                 1.0697                 1.0407
 Frc consts  --      5.5030                 5.6811                 5.5870
 IR Inten    --     61.5974                32.1435                30.6124

                     61                     62                     63
                      A                      A                      A
 Frequencies --   3039.5970              3070.7113              3083.6580
 Red. masses --      1.0344                 1.0951                 1.0921
 Frc consts  --      5.6309                 6.0841                 6.1183
 IR Inten    --     28.4273                17.4336                 4.5251

                     64                     65                     66
                      A                      A                      A
 Frequencies --   3111.0626              3116.3911              3116.8071
 Red. masses --      1.1010                 1.1025                 1.0993
 Frc consts  --      6.2782                 6.3084                 6.2920
 IR Inten    --     39.0319                24.9088                23.2008

                     67                     68                     69
                      A                      A                      A
 Frequencies --   3149.7227              3159.9461              3195.9401
 Red. masses --      1.0610                 1.0858                 1.0936
 Frc consts  --      6.2014                 6.3880                 6.5810
 IR Inten    --      9.3759                17.7548                16.8319

                     70                     71                     72
                      A                      A                      A
 Frequencies --   3216.7257              3229.3995              3621.8642
 Red. masses --      1.0921                 1.1129                 1.0755
 Frc consts  --      6.6578                 6.8385                 8.3127
 IR Inten    --      9.0394                13.2817                15.8530

 - Thermochemistry -
 -------------------
 Temperature   298.150 Kelvin.  Pressure   1.00000 Atm.
 Atom     1 has atomic number  6 and mass  12.00000

 Molecular mass:   149.12045 amu.
 Principal axes and moments of inertia in atomic units:
                           1         2         3
     Eigenvalues --   938.549092446.704462925.31882
           X            0.99993   0.01167   0.00053
           Y           -0.01167   0.99993   0.00240
           Z           -0.00050  -0.00240   1.00000
 This molecule is an asymmetric top.
 Rotational symmetry number  1.
 Warning -- assumption of classical behavior for rotation
           may cause significant error
 Rotational temperatures (Kelvin)      0.09228     0.03540     0.02961
 Rotational constants (GHZ):           1.92291     0.73762     0.61694
 Zero-point vibrational energy     598068.1 (Joules/Mol)
                                  142.94170 (Kcal/Mol)
 Warning -- explicit consideration of  17 degrees of freedom as
           vibrations may cause significant error
 Vibrational temperatures:     59.78    78.75   102.06   173.51   258.88
          (Kelvin)            267.02   307.44   402.18   423.92   517.23
                              538.73   604.26   696.05   698.13   738.44
                              836.68   889.32   968.12  1025.87  1056.22
                             1103.98  1144.55  1157.26  1248.17  1315.65
                             1329.34  1380.10  1397.80  1409.46  1444.33
                             1476.06  1486.21  1539.75  1550.97  1586.87
                             1663.62  1706.59  1766.12  1810.06  1836.57
                             1870.48  1942.98  1957.24  1977.08  2022.91
                             2024.95  2069.28  2076.87  2127.72  2129.97
                             2150.43  2151.23  2167.80  2192.62  2362.33
                             2444.60  2474.86  4225.62  4319.65  4343.03
                             4373.30  4418.07  4436.70  4476.13  4483.79
                             4484.39  4531.75  4546.46  4598.24  4628.15
                             4646.39  5211.05

 Zero-point correction=                           0.227792 (Hartree/Particle)
 Thermal correction to Energy=                    0.239586
 Thermal correction to Enthalpy=                  0.240530
 Thermal correction to Gibbs Free Energy=         0.189685
 Sum of electronic and zero-point Energies=           -444.607099
 Sum of electronic and thermal Energies=              -444.595305
 Sum of electronic and thermal Enthalpies=            -444.594361
 Sum of electronic and thermal Free Energies=         -444.645206

                     E (Thermal)             CV                S
                      KCal/Mol        Cal/Mol-Kelvin    Cal/Mol-Kelvin
 Total                  150.342             44.698            107.013
 Electronic               0.000              0.000              0.000
 Translational            0.889              2.981             40.909
 Rotational               0.889              2.981             30.286
 Vibrational            148.565             38.737             35.817
 Vibration     1          0.594              1.981              5.184
 Vibration     2          0.596              1.976              4.639
 Vibration     3          0.598              1.968              4.127
 Vibration     4          0.609              1.932              3.091
 Vibration     5          0.629              1.867              2.329
 Vibration     6          0.632              1.860              2.271
 Vibration     7          0.644              1.820              2.012
 Vibration     8          0.680              1.711              1.537
 Vibration     9          0.689              1.684              1.447
 Vibration    10          0.734              1.556              1.124
 Vibration    11          0.746              1.525              1.062
 Vibration    12          0.783              1.427              0.892
 Vibration    13          0.840              1.286              0.700
 Vibration    14          0.841              1.283              0.696
 Vibration    15          0.868              1.221              0.626
 Vibration    16          0.938              1.071              0.483
 Vibration    17          0.978              0.994              0.420

 Optimization completed.
    -- Stationary point found.
 Normal termination of Gaussian 16 at Mon May 22 23:28:54 2023.
