 Gaussian 16, Revision A.03,
 Gaussian 16:  ES64L-G16RevA.03 25-Dec-2016

 -----------------------------
 # opt freq b3lyp/6-31g(2df,p)
 -----------------------------

 -------------------
 Title Card Required
 -------------------
 Symbolic Z-matrix:
 Charge =  0 Multiplicity = 1

 SCF Done:  E(RB3LYP) =  -549.152829184     A.U. after   12 cycles
 SCF Done:  E(RB3LYP) =  -549.161245833     A.U. after   11 cycles
 SCF Done:  E(RB3LYP) =  -549.164641889     A.U. after   10 cycles
 SCF Done:  E(RB3LYP) =  -549.166954454     A.U. after   11 cycles
 SCF Done:  E(RB3LYP) =  -549.169105139     A.U. after   12 cycles
 SCF Done:  E(RB3LYP) =  -549.170491961     A.U. after   11 cycles
 SCF Done:  E(RB3LYP) =  -549.173627251     A.U. after   11 cycles
 SCF Done:  E(RB3LYP) =  -549.174640466     A.U. after   13 cycles
 SCF Done:  E(RB3LYP) =  -549.175816248     A.U. after   10 cycles
 SCF Done:  E(RB3LYP) =  -549.176660838     A.U. after   11 cycles
 SCF Done:  E(RB3LYP) =  -549.176849121     A.U. after   10 cycles
 SCF Done:  E(RB3LYP) =  -549.176885492     A.U. after    9 cycles
 SCF Done:  E(RB3LYP) =  -549.176895247     A.U. after    9 cycles
 SCF Done:  E(RB3LYP) =  -549.176900647     A.U. after    8 cycles
 SCF Done:  E(RB3LYP) =  -549.176902792     A.U. after    8 cycles
 SCF Done:  E(RB3LYP) =  -549.176903592     A.U. after    7 cycles
 SCF Done:  E(RB3LYP) =  -549.176903679     A.U. after    6 cycles
 SCF Done:  E(RB3LYP) =  -549.176903711     A.U. after    6 cycles
 SCF Done:  E(RB3LYP) =  -549.176903719     A.U. after    6 cycles
 Optimization completed.
    -- Stationary point found.
 Normal termination of Gaussian 16 at Sat May 27 23:00:31 2023.

 ----------------------------------------------------------------------
 #N Geom=AllCheck Guess=TCheck SCRF=Check GenChk RB3LYP/6-31G(2df,p) Fr
 eq
 ----------------------------------------------------------------------

 Structure from the checkpoint file:  "CdCqCrCCCqCdCCCrCCCC.chk"
 -------------------
 Title Card Required
 -------------------
 Charge =  0 Multiplicity = 1

                         Standard orientation:
 ---------------------------------------------------------------------
 Center     Atomic      Atomic             Coordinates (Angstroms)
 Number     Number       Type             X           Y           Z
 ---------------------------------------------------------------------
      1          6           0       -4.301135   -1.828507   -1.077142
      2          6           0       -3.598318   -1.182910   -0.146382
      3          6           0       -4.064745   -1.107203    1.285993
      4          6           0       -2.300361   -0.481286   -0.476425
      5          6           0       -1.057454   -1.147889    0.142796
      6          6           0        0.271801   -0.443532   -0.212496
      7          6           0        0.323436    0.945312    0.368613
      8          6           0        0.421851    2.084775   -0.314422
      9          6           0        0.465500    3.462673    0.283840
     10          6           0       -0.695872    4.353883   -0.186697
     11          6           0        1.469361   -1.294492    0.267930
     12          6           0        2.836587   -0.789917   -0.204426
     13          6           0        4.003206   -1.654996    0.284849
     14          6           0        5.367734   -1.153255   -0.195545
     15          1           0       -5.233300   -2.333342   -0.842857
     16          1           0       -3.971893   -1.874595   -2.110677
     17          1           0       -5.025369   -1.610102    1.422734
     18          1           0       -4.175652   -0.063229    1.606450
     19          1           0       -3.343597   -1.566720    1.972449
     20          1           0       -2.347643    0.561001   -0.133894
     21          1           0       -2.175484   -0.445542   -1.565058
     22          1           0       -1.009430   -2.189737   -0.197368
     23          1           0       -1.154875   -1.185377    1.235777
     24          1           0        0.330890   -0.362394   -1.307597
     25          1           0        0.278297    0.991282    1.459743
     26          1           0        0.464714    2.041624   -1.404126
     27          1           0        1.412708    3.948718    0.009906
     28          1           0        0.459461    3.389827    1.377706
     29          1           0       -0.702374    4.449758   -1.277881
     30          1           0       -0.617139    5.360181    0.236642
     31          1           0       -1.659897    3.931671    0.114185
     32          1           0        1.326014   -2.326327   -0.079610
     33          1           0        1.455753   -1.340820    1.366526
     34          1           0        2.982251    0.244517    0.130901
     35          1           0        2.848626   -0.753866   -1.303218
     36          1           0        3.854651   -2.690160   -0.050804
     37          1           0        3.991788   -1.690117    1.382532
     38          1           0        5.421965   -1.140951   -1.289975
     39          1           0        6.180579   -1.788599    0.170338
     40          1           0        5.559417   -0.132641    0.154263
 ---------------------------------------------------------------------

 SCF Done:  E(RB3LYP) =  -549.176903719     A.U. after    1 cycles

 The electronic state is 1-A.
 Alpha  occ. eigenvalues --  -10.18434 -10.18386 -10.18263 -10.17652 -10.17595
 Alpha  occ. eigenvalues --  -10.17479 -10.17463 -10.17412 -10.17389 -10.17387
 Alpha  occ. eigenvalues --  -10.17377 -10.17018 -10.16830 -10.16035  -0.82546
 Alpha  occ. eigenvalues --   -0.80127  -0.78867  -0.76870  -0.72215  -0.71648
 Alpha  occ. eigenvalues --   -0.67886  -0.66572  -0.62173  -0.61003  -0.57116
 Alpha  occ. eigenvalues --   -0.56521  -0.54693  -0.51536  -0.47686  -0.45744
 Alpha  occ. eigenvalues --   -0.45037  -0.44472  -0.44162  -0.42467  -0.42144
 Alpha  occ. eigenvalues --   -0.41103  -0.40672  -0.39910  -0.38598  -0.37862
 Alpha  occ. eigenvalues --   -0.37363  -0.36325  -0.36049  -0.35727  -0.34937
 Alpha  occ. eigenvalues --   -0.33631  -0.33334  -0.33135  -0.32735  -0.31831
 Alpha  occ. eigenvalues --   -0.31652  -0.30774  -0.30348  -0.24513  -0.23218
 Alpha virt. eigenvalues --    0.02438   0.03397   0.09145   0.09645   0.10003
 Alpha virt. eigenvalues --    0.10413   0.11448   0.13395   0.13613   0.13954
 Alpha virt. eigenvalues --    0.14138   0.14826   0.15032   0.15697   0.16553

 Mulliken charges:
               1
     1  C   -0.410439
     2  C    0.386877
     3  C   -0.470426
     4  C   -0.290936
     5  C   -0.190433
     6  C   -0.046233
     7  C   -0.019726
     8  C   -0.047274
     9  C   -0.225225
    10  C   -0.366097
    11  C   -0.196408
    12  C   -0.165998
    13  C   -0.161601
    14  C   -0.379370
    15  H    0.097013
    16  H    0.095359
    17  H    0.119148
    18  H    0.120881
    19  H    0.125378
    20  H    0.103300
    21  H    0.093828
    22  H    0.095780
    23  H    0.092765
    24  H    0.065871
    25  H    0.071914
    26  H    0.075342
    27  H    0.103046
    28  H    0.095791
    29  H    0.115700
    30  H    0.111905
    31  H    0.119441
    32  H    0.088748
    33  H    0.088537
    34  H    0.098618
    35  H    0.087113
    36  H    0.091951
    37  H    0.092137
    38  H    0.112059
    39  H    0.108943
    40  H    0.112722
 Sum of Mulliken charges =  -0.00000

 Dipole moment (field-independent basis, Debye):
    X=              0.4068    Y=              0.3978    Z=              0.3696  Tot=              0.6785
 Quadrupole moment (field-independent basis, Debye-Ang):
   XX=            -95.2248   YY=            -90.5435   ZZ=            -89.1403
   XY=             -0.1743   XZ=             -1.8100   YZ=              0.0773

  Exact polarizability: 172.398   7.822 164.800   3.998   1.784 135.846
 Approx polarizability: 202.774  14.409 226.195   7.631   1.286 219.665

                      1                      2                      3
                      A                      A                      A
 Frequencies --     23.9182                33.7604                38.2094
 Red. masses --      2.7205                 3.0568                 3.0251
 Frc consts  --      0.0009                 0.0021                 0.0026
 IR Inten    --      0.0776                 0.0153                 0.0399

                      4                      5                      6
                      A                      A                      A
 Frequencies --     56.0470                61.8888                64.5416
 Red. masses --      2.3685                 1.9138                 2.4812
 Frc consts  --      0.0044                 0.0043                 0.0061
 IR Inten    --      0.0120                 0.0118                 0.0070

                      7                      8                      9
                      A                      A                      A
 Frequencies --     83.9338               115.6408               125.7277
 Red. masses --      2.2517                 2.4930                 2.4558
 Frc consts  --      0.0093                 0.0196                 0.0229
 IR Inten    --      0.1878                 0.1344                 0.2750

                     10                     11                     12
                      A                      A                      A
 Frequencies --    156.4533               159.8410               177.2668
 Red. masses --      2.4583                 2.3811                 1.6430
 Frc consts  --      0.0355                 0.0358                 0.0304
 IR Inten    --      0.0890                 0.1092                 0.3829

                     13                     14                     15
                      A                      A                      A
 Frequencies --    188.7748               224.1944               245.3454
 Red. masses --      1.1522                 3.4766                 1.1336
 Frc consts  --      0.0242                 0.1030                 0.0402
 IR Inten    --      0.2159                 0.1581                 0.0147

                     16                     17                     18
                      A                      A                      A
 Frequencies --    256.3194               269.6716               300.0268
 Red. masses --      1.3551                 2.8665                 2.3655
 Frc consts  --      0.0525                 0.1228                 0.1255
 IR Inten    --      0.1293                 0.5299                 0.1877

                     19                     20                     21
                      A                      A                      A
 Frequencies --    377.3051               385.6391               415.4363
 Red. masses --      2.8726                 2.1936                 2.6047
 Frc consts  --      0.2409                 0.1922                 0.2649
 IR Inten    --      0.7429                 0.1405                 0.9263

                     22                     23                     24
                      A                      A                      A
 Frequencies --    456.0776               460.4319               477.1009
 Red. masses --      2.4351                 2.4585                 2.4576
 Frc consts  --      0.2984                 0.3071                 0.3296
 IR Inten    --      3.0461                 1.0078                 1.3376

                     25                     26                     27
                      A                      A                      A
 Frequencies --    550.3851               569.8659               729.1692
 Red. masses --      2.7833                 2.5257                 1.1113
 Frc consts  --      0.4968                 0.4833                 0.3481
 IR Inten    --      0.1548                 4.5532                 0.3533

                     28                     29                     30
                      A                      A                      A
 Frequencies --    734.7003               763.1206               781.9362
 Red. masses --      1.0812                 1.2087                 1.2075
 Frc consts  --      0.3439                 0.4147                 0.4350
 IR Inten    --      2.4620                 2.1104                 0.5313

                     31                     32                     33
                      A                      A                      A
 Frequencies --    795.9062               832.6007               858.1504
 Red. masses --      1.2272                 3.2472                 1.8065
 Frc consts  --      0.4580                 1.3263                 0.7838
 IR Inten    --      2.8134                 0.7467                 0.4700

                     34                     35                     36
                      A                      A                      A
 Frequencies --    895.1552               905.2137               911.5982
 Red. masses --      1.9056                 1.6421                 1.6439
 Frc consts  --      0.8997                 0.7928                 0.8049
 IR Inten    --      0.8827                 1.3925                 7.1925

                     37                     38                     39
                      A                      A                      A
 Frequencies --    927.4673               953.1100               976.4541
 Red. masses --      1.3427                 1.5309                 2.4317
 Frc consts  --      0.6805                 0.8194                 1.3661
 IR Inten    --     31.5758                 0.5228                 0.9240

                     40                     41                     42
                      A                      A                      A
 Frequencies --    999.5090              1000.1703              1019.5220
 Red. masses --      1.4562                 2.4426                 1.3273
 Frc consts  --      0.8571                 1.4396                 0.8128
 IR Inten    --      2.8001                 0.1756                15.2518

                     43                     44                     45
                      A                      A                      A
 Frequencies --   1028.3591              1039.6581              1044.3346
 Red. masses --      1.7336                 2.0451                 2.1840
 Frc consts  --      1.0801                 1.3024                 1.4034
 IR Inten    --     11.6449                 0.1899                 0.7350

                     46                     47                     48
                      A                      A                      A
 Frequencies --   1061.9404              1068.5679              1074.7700
 Red. masses --      1.8072                 1.9789                 1.9678
 Frc consts  --      1.2007                 1.3313                 1.3392
 IR Inten    --      0.7366                 0.6111                 0.3024

                     49                     50                     51
                      A                      A                      A
 Frequencies --   1090.2214              1102.1104              1114.3237
 Red. masses --      1.6478                 2.1293                 1.8526
 Frc consts  --      1.1539                 1.5238                 1.3553
 IR Inten    --      2.9238                 1.0504                 0.1964

                     52                     53                     54
                      A                      A                      A
 Frequencies --   1141.0954              1157.8275              1205.7980
 Red. masses --      2.0957                 1.6160                 1.7312
 Frc consts  --      1.6078                 1.2764                 1.4830
 IR Inten    --      3.2274                 1.0349                 0.2775

                     55                     56                     57
                      A                      A                      A
 Frequencies --   1234.5007              1255.0302              1270.4270
 Red. masses --      1.4817                 1.2635                 1.3317
 Frc consts  --      1.3304                 1.1726                 1.2663
 IR Inten    --      1.4744                 0.7084                 1.6307

                     58                     59                     60
                      A                      A                      A
 Frequencies --   1288.1806              1297.7160              1303.0571
 Red. masses --      1.4164                 1.3542                 1.4925
 Frc consts  --      1.3848                 1.3437                 1.4931
 IR Inten    --      1.7918                 3.0100                 4.6325

                     61                     62                     63
                      A                      A                      A
 Frequencies --   1315.9430              1324.9191              1329.5291
 Red. masses --      1.2563                 1.2406                 1.1254
 Frc consts  --      1.2818                 1.2831                 1.1720
 IR Inten    --      3.2693                 5.4939                 1.9801

                     64                     65                     66
                      A                      A                      A
 Frequencies --   1333.3092              1337.2700              1355.5553
 Red. masses --      1.2550                 1.2994                 1.3116
 Frc consts  --      1.3145                 1.3690                 1.4200
 IR Inten    --      3.4024                 0.8797                 0.8782

                     67                     68                     69
                      A                      A                      A
 Frequencies --   1371.2423              1377.0703              1393.6589
 Red. masses --      1.4439                 1.4250                 1.4798
 Frc consts  --      1.5997                 1.5921                 1.6934
 IR Inten    --      0.6881                 1.8716                 5.8938

                     70                     71                     72
                      A                      A                      A
 Frequencies --   1401.3762              1407.7510              1410.7061
 Red. masses --      1.5234                 1.2210                 1.2567
 Frc consts  --      1.7626                 1.4257                 1.4736
 IR Inten    --      3.9577                 0.9124                 4.5603

                     73                     74                     75
                      A                      A                      A
 Frequencies --   1412.8189              1451.0684              1473.3801
 Red. masses --      1.2451                 1.1682                 1.0728
 Frc consts  --      1.4643                 1.4492                 1.3722
 IR Inten    --      1.4394                 0.1210                 0.8414

                     76                     77                     78
                      A                      A                      A
 Frequencies --   1479.6491              1480.3970              1484.8555
 Red. masses --      1.0681                 1.0683                 1.0642
 Frc consts  --      1.3777                 1.3794                 1.3824
 IR Inten    --      5.4428                 0.2090                 2.5354

                     79                     80                     81
                      A                      A                      A
 Frequencies --   1486.3677              1495.8762              1497.6088
 Red. masses --      1.0667                 1.0715                 1.0405
 Frc consts  --      1.3885                 1.4126                 1.3750
 IR Inten    --      0.9809                 6.4223                 4.4586

                     82                     83                     84
                      A                      A                      A
 Frequencies --   1499.4266              1499.6631              1500.9396
 Red. masses --      1.0828                 1.0403                 1.0850
 Frc consts  --      1.4344                 1.3785                 1.4402
 IR Inten    --      3.1303                 5.0188                 0.8969

                     85                     86                     87
                      A                      A                      A
 Frequencies --   1506.2909              1513.1282              1720.9268
 Red. masses --      1.0679                 1.0891                 5.2857
 Frc consts  --      1.4276                 1.4692                 9.2232
 IR Inten    --      2.3400                 2.3286                18.1675

                     88                     89                     90
                      A                      A                      A
 Frequencies --   1736.5168              2996.5778              3000.4646
 Red. masses --      6.4324                 1.0732                 1.0662
 Frc consts  --     11.4283                 5.6777                 5.6555
 IR Inten    --      1.2063                 4.7556                 2.3756

                     91                     92                     93
                      A                      A                      A
 Frequencies --   3005.3662              3005.5527              3012.1869
 Red. masses --      1.0640                 1.0633                 1.0565
 Frc consts  --      5.6624                 5.6593                 5.6479
 IR Inten    --     24.2689                 9.3189                 5.0098

                     94                     95                     96
                      A                      A                      A
 Frequencies --   3014.7302              3020.6999              3021.6459
 Red. masses --      1.0620                 1.0421                 1.0612
 Frc consts  --      5.6867                 5.6026                 5.7087
 IR Inten    --     37.2053                19.0435                75.2770

                     97                     98                     99
                      A                      A                      A
 Frequencies --   3027.4819              3032.0656              3032.3371
 Red. masses --      1.0378                 1.0349                 1.0896
 Frc consts  --      5.6045                 5.6054                 5.9031
 IR Inten    --     33.3328                30.7274                19.7371

                    100                    101                    102
                      A                      A                      A
 Frequencies --   3037.3641              3048.2102              3054.0764
 Red. masses --      1.1019                 1.0992                 1.0950
 Frc consts  --      5.9895                 6.0176                 6.0176
 IR Inten    --      0.2961                 4.9641                 8.7352

                    103                    104                    105
                      A                      A                      A
 Frequencies --   3063.4738              3067.7838              3071.3820
 Red. masses --      1.1026                 1.0981                 1.1026
 Frc consts  --      6.0969                 6.0890                 6.1284
 IR Inten    --     31.7682                36.2504                54.2678

                    106                    107                    108
                      A                      A                      A
 Frequencies --   3093.9364              3095.3299              3098.9055
 Red. masses --      1.1015                 1.0879                 1.1010
 Frc consts  --      6.2123                 6.1415                 6.2295
 IR Inten    --     45.7799                29.5538                41.5034

                    109                    110                    111
                      A                      A                      A
 Frequencies --   3100.7792              3106.6600              3113.6462
 Red. masses --      1.1008                 1.1021                 1.0992
 Frc consts  --      6.2358                 6.2667                 6.2787
 IR Inten    --     26.5937                39.8952                26.9944

                    112                    113                    114
                      A                      A                      A
 Frequencies --   3114.5561              3138.5688              3217.2038
 Red. masses --      1.0883                 1.0610                 1.1144
 Frc consts  --      6.2197                 6.1578                 6.7957
 IR Inten    --     41.1083                10.0460                19.5538

 - Thermochemistry -
 -------------------
 Temperature   298.150 Kelvin.  Pressure   1.00000 Atm.
 Atom     1 has atomic number  6 and mass  12.00000

 Molecular mass:   194.20345 amu.
 Principal axes and moments of inertia in atomic units:
                           1         2         3
     Eigenvalues --  2938.397485974.370008347.85671
           X            0.99993  -0.01140  -0.00379
           Y            0.01139   0.99993  -0.00271
           Z            0.00382   0.00267   0.99999
 This molecule is an asymmetric top.
 Rotational symmetry number  1.
 Warning -- assumption of classical behavior for rotation
           may cause significant error
 Rotational temperatures (Kelvin)      0.02948     0.01450     0.01038
 Rotational constants (GHZ):           0.61419     0.30208     0.21619
 Zero-point vibrational energy     964930.2 (Joules/Mol)
                                  230.62386 (Kcal/Mol)
 Warning -- explicit consideration of  26 degrees of freedom as
           vibrations may cause significant error
 Vibrational temperatures:     34.41    48.57    54.97    80.64    89.04
          (Kelvin)             92.86   120.76   166.38   180.89   225.10
                              229.98   255.05   271.60   322.57   353.00
                              368.79   388.00   431.67   542.86   554.85
                              597.72   656.19   662.46   686.44   791.88
                              819.91  1049.11  1057.07  1097.96  1125.03
                             1145.13  1197.93  1234.69  1287.93  1302.40
                             1311.59  1334.42  1371.31  1404.90  1438.07
                             1439.02  1466.86  1479.58  1495.84  1502.56
                             1527.90  1537.43  1546.35  1568.59  1585.69
                             1603.26  1641.78  1665.86  1734.87  1776.17
                             1805.71  1827.86  1853.40  1867.12  1874.81
                             1893.35  1906.26  1912.90  1918.33  1924.03
                             1950.34  1972.91  1981.30  2005.16  2016.27
                             2025.44  2029.69  2032.73  2087.76  2119.87
                             2128.89  2129.96  2136.38  2138.55  2152.23
                             2154.73  2157.34  2157.68  2159.52  2167.22
                             2177.05  2476.03  2498.46  4311.41  4317.00
                             4324.05  4324.32  4333.87  4337.52  4346.11
                             4347.47  4355.87  4362.47  4362.86  4370.09
                             4385.69  4394.13  4407.66  4413.86  4419.03
                             4451.48  4453.49  4458.63  4461.33  4469.79
                             4479.84  4481.15  4515.70  4628.84

 Zero-point correction=                           0.367523 (Hartree/Particle)
 Thermal correction to Energy=                    0.386007
 Thermal correction to Enthalpy=                  0.386951
 Thermal correction to Gibbs Free Energy=         0.318553
 Sum of electronic and zero-point Energies=           -548.809381
 Sum of electronic and thermal Energies=              -548.790897
 Sum of electronic and thermal Enthalpies=            -548.789953
 Sum of electronic and thermal Free Energies=         -548.858351

                     E (Thermal)             CV                S
                      KCal/Mol        Cal/Mol-Kelvin    Cal/Mol-Kelvin
 Total                  242.223             66.267            143.956
 Electronic               0.000              0.000              0.000
 Translational            0.889              2.981             41.696
 Rotational               0.889              2.981             33.349
 Vibrational            240.446             60.306             68.911
 Vibration     1          0.593              1.985              6.279
 Vibration     2          0.594              1.983              5.595
 Vibration     3          0.594              1.982              5.350
 Vibration     4          0.596              1.975              4.592
 Vibration     5          0.597              1.972              4.396
 Vibration     6          0.597              1.971              4.313
 Vibration     7          0.601              1.960              3.797
 Vibration     8          0.608              1.936              3.172
 Vibration     9          0.611              1.927              3.010
 Vibration    10          0.620              1.895              2.592
 Vibration    11          0.622              1.892              2.552
 Vibration    12          0.628              1.870              2.357
 Vibration    13          0.633              1.855              2.240
 Vibration    14          0.649              1.804              1.925
 Vibration    15          0.660              1.770              1.764
 Vibration    16          0.666              1.752              1.687
 Vibration    17          0.674              1.729              1.598
 Vibration    18          0.693              1.674              1.417
 Vibration    19          0.748              1.518              1.050
 Vibration    20          0.754              1.501              1.017
 Vibration    21          0.779              1.437              0.908
 Vibration    22          0.814              1.347              0.778
 Vibration    23          0.818              1.338              0.765
 Vibration    24          0.834              1.301              0.718
 Vibration    25          0.906              1.139              0.543
 Vibration    26          0.926              1.096              0.504

 Optimization completed.
    -- Stationary point found.
 Normal termination of Gaussian 16 at Sun May 28 01:31:37 2023.
