 Gaussian 16, Revision A.03,
 Gaussian 16:  ES64L-G16RevA.03 25-Dec-2016

 -----------------------------
 # opt freq b3lyp/6-31g(2df,p)
 -----------------------------

 -------------------
 Title Card Required
 -------------------
 Symbolic Z-matrix:
 Charge =  0 Multiplicity = 1

 SCF Done:  E(RB3LYP) =  -672.875039944     A.U. after   13 cycles
 SCF Done:  E(RB3LYP) =  -672.901061858     A.U. after   13 cycles
 SCF Done:  E(RB3LYP) =  -672.913837155     A.U. after   12 cycles
 SCF Done:  E(RB3LYP) =  -672.924971490     A.U. after   12 cycles
 SCF Done:  E(RB3LYP) =  -672.932050611     A.U. after   13 cycles
 SCF Done:  E(RB3LYP) =  -672.934530936     A.U. after   13 cycles
 SCF Done:  E(RB3LYP) =  -672.935402493     A.U. after   11 cycles
 SCF Done:  E(RB3LYP) =  -672.936058590     A.U. after   11 cycles
 SCF Done:  E(RB3LYP) =  -672.937433915     A.U. after   13 cycles
 SCF Done:  E(RB3LYP) =  -672.938830387     A.U. after   11 cycles
 SCF Done:  E(RB3LYP) =  -672.946321852     A.U. after    9 cycles
 SCF Done:  E(RB3LYP) =  -672.946324536     A.U. after    9 cycles
 SCF Done:  E(RB3LYP) =  -672.946325582     A.U. after    8 cycles
 SCF Done:  E(RB3LYP) =  -672.946326621     A.U. after    8 cycles
 SCF Done:  E(RB3LYP) =  -672.946327406     A.U. after    8 cycles
 SCF Done:  E(RB3LYP) =  -672.946328082     A.U. after    8 cycles
 SCF Done:  E(RB3LYP) =  -672.946328454     A.U. after    8 cycles
 SCF Done:  E(RB3LYP) =  -672.946328546     A.U. after    7 cycles
 SCF Done:  E(RB3LYP) =  -672.946328557     A.U. after    5 cycles
 Optimization completed.
    -- Stationary point found.
 Normal termination of Gaussian 16 at Tue May 23 21:31:35 2023.

 ----------------------------------------------------------------------
 #N Geom=AllCheck Guess=TCheck SCRF=Check GenChk RB3LYP/6-31G(2df,p) Fr
 eq
 ----------------------------------------------------------------------

 Structure from the checkpoint file:  "CdCqNrOC1OCqOCrCCC1CC.chk"
 -------------------
 Title Card Required
 -------------------
 Charge =  0 Multiplicity = 1

                         Standard orientation:
 ---------------------------------------------------------------------
 Center     Atomic      Atomic             Coordinates (Angstroms)
 Number     Number       Type             X           Y           Z
 ---------------------------------------------------------------------
      1          6           0        3.794288   -0.296136   -0.852979
      2          6           0        2.769468   -0.524823   -0.026854
      3          7           0        2.595200   -1.627197    0.800564
      4          8           0        1.804422    0.449063    0.137232
      5          6           0        0.501584    0.113279   -0.242706
      6          8           0       -0.102340   -0.589105    0.863285
      7          6           0       -1.410365   -1.041595    0.628393
      8          8           0       -1.346722   -2.037128   -0.379758
      9          6           0       -2.405072   -2.968284   -0.357416
     10          6           0       -2.337066    0.116577    0.241054
     11          6           0       -1.731118    0.941630   -0.902120
     12          6           0       -0.287136    1.381682   -0.576690
     13          6           0       -0.172128    2.443370    0.533770
     14          6           0       -0.812602    3.787706    0.174684
     15          1           0        4.606749   -1.005006   -0.945098
     16          1           0        3.842263    0.627551   -1.409770
     17          1           0        3.063303   -2.463627    0.485468
     18          1           0        1.633977   -1.779840    1.074915
     19          1           0        0.527940   -0.564656   -1.105968
     20          1           0       -1.732260   -1.503940    1.573516
     21          1           0       -2.177041   -3.731272   -1.105139
     22          1           0       -3.374693   -2.514282   -0.608774
     23          1           0       -2.495893   -3.451792    0.627564
     24          1           0       -2.491112    0.736597    1.130547
     25          1           0       -3.319240   -0.277355   -0.040558
     26          1           0       -2.359641    1.809734   -1.118677
     27          1           0       -1.718725    0.329656   -1.811370
     28          1           0        0.163511    1.795331   -1.488173
     29          1           0        0.891248    2.593272    0.740401
     30          1           0       -0.604918    2.059686    1.464025
     31          1           0       -0.394771    4.190676   -0.755096
     32          1           0       -0.631986    4.524315    0.963688
     33          1           0       -1.897104    3.712248    0.043655
 ---------------------------------------------------------------------

 SCF Done:  E(RB3LYP) =  -672.946328557     A.U. after    1 cycles

 The electronic state is 1-A.
 Alpha  occ. eigenvalues --  -19.15557 -19.15226 -19.15030 -14.31782 -10.28463
 Alpha  occ. eigenvalues --  -10.27860 -10.25079 -10.23586 -10.18761 -10.18664
 Alpha  occ. eigenvalues --  -10.18583 -10.17273 -10.17108 -10.13703  -1.08884
 Alpha  occ. eigenvalues --   -1.05559  -1.00669  -0.88763  -0.81609  -0.77492
 Alpha  occ. eigenvalues --   -0.73965  -0.71306  -0.69628  -0.64778  -0.64212
 Alpha  occ. eigenvalues --   -0.60406  -0.57045  -0.54078  -0.52144  -0.51296
 Alpha  occ. eigenvalues --   -0.50947  -0.48529  -0.47981  -0.47332  -0.45521
 Alpha  occ. eigenvalues --   -0.43772  -0.42495  -0.42099  -0.41048  -0.40375
 Alpha  occ. eigenvalues --   -0.39087  -0.38444  -0.37153  -0.36645  -0.35411
 Alpha  occ. eigenvalues --   -0.34248  -0.34077  -0.33554  -0.32147  -0.31227
 Alpha  occ. eigenvalues --   -0.30702  -0.28726  -0.26846  -0.26300  -0.18977
 Alpha virt. eigenvalues --    0.06255   0.06864   0.09692   0.09879   0.10917
 Alpha virt. eigenvalues --    0.11692   0.12472   0.13164   0.13538   0.14435
 Alpha virt. eigenvalues --    0.15262   0.15594   0.16038   0.16807   0.17174

 Mulliken charges:
               1
     1  C   -0.447281
     2  C    0.414596
     3  N   -0.554403
     4  O   -0.257168
     5  C    0.176106
     6  O   -0.279270
     7  C    0.214923
     8  O   -0.246342
     9  C   -0.239033
    10  C   -0.240502
    11  C   -0.239132
    12  C   -0.014080
    13  C   -0.172122
    14  C   -0.398330
    15  H    0.086500
    16  H    0.098217
    17  H    0.244608
    18  H    0.262628
    19  H    0.093872
    20  H    0.074606
    21  H    0.134500
    22  H    0.111775
    23  H    0.110131
    24  H    0.111578
    25  H    0.099811
    26  H    0.101011
    27  H    0.108624
    28  H    0.078649
    29  H    0.124238
    30  H    0.101003
    31  H    0.113982
    32  H    0.114163
    33  H    0.112143
 Sum of Mulliken charges =  -0.00000

 Dipole moment (field-independent basis, Debye):
    X=             -3.5225    Y=             -1.5556    Z=             -0.6394  Tot=              3.9034
 Quadrupole moment (field-independent basis, Debye-Ang):
   XX=            -85.7828   YY=            -77.7636   ZZ=            -87.4728
   XY=             -0.3371   XZ=             -2.6515   YZ=             -1.1885

  Exact polarizability: 141.849   2.100 134.617 -10.387  -4.594 103.344
 Approx polarizability: 185.991   5.129 171.857 -18.386  -8.473 168.575

                      1                      2                      3
                      A                      A                      A
 Frequencies --     25.0701                53.6736                61.7629
 Red. masses --      3.7117                 2.5765                 2.7344
 Frc consts  --      0.0014                 0.0044                 0.0061
 IR Inten    --      1.6387                 0.2090                 0.2985

                      4                      5                      6
                      A                      A                      A
 Frequencies --     77.6855                91.1399               103.2897
 Red. masses --      3.2524                 3.3240                 2.5876
 Frc consts  --      0.0116                 0.0163                 0.0163
 IR Inten    --      2.0918                 2.2168                 1.8625

                      7                      8                      9
                      A                      A                      A
 Frequencies --    157.9905               172.3908               205.6247
 Red. masses --      1.9368                 2.5740                 1.6546
 Frc consts  --      0.0285                 0.0451                 0.0412
 IR Inten    --      1.9959                 2.7139                 2.4168

                     10                     11                     12
                      A                      A                      A
 Frequencies --    232.6257               251.3623               296.6616
 Red. masses --      2.1210                 1.8872                 2.5410
 Frc consts  --      0.0676                 0.0703                 0.1318
 IR Inten    --      0.0960                 0.7967                 4.3334

                     13                     14                     15
                      A                      A                      A
 Frequencies --    313.2237               320.7468               342.9219
 Red. masses --      2.2217                 1.6321                 2.1097
 Frc consts  --      0.1284                 0.0989                 0.1462
 IR Inten    --      4.7563                 8.6337                10.1572

                     16                     17                     18
                      A                      A                      A
 Frequencies --    361.3301               397.4624               437.7406
 Red. masses --      3.1250                 2.5478                 2.7500
 Frc consts  --      0.2404                 0.2371                 0.3105
 IR Inten    --      3.2960                 0.6271                 0.6150

                     19                     20                     21
                      A                      A                      A
 Frequencies --    457.8321               503.4133               546.3207
 Red. masses --      2.7419                 3.7271                 3.3759
 Frc consts  --      0.3386                 0.5565                 0.5937
 IR Inten    --     15.9312                 5.1530                 3.2010

                     22                     23                     24
                      A                      A                      A
 Frequencies --    576.8734               649.7983               678.2899
 Red. masses --      2.8165                 1.6506                 2.7352
 Frc consts  --      0.5522                 0.4106                 0.7414
 IR Inten    --     37.0990               147.8629                38.0582

                     25                     26                     27
                      A                      A                      A
 Frequencies --    701.2705               707.7105               729.6647
 Red. masses --      1.8479                 2.4317                 1.5186
 Frc consts  --      0.5354                 0.7176                 0.4764
 IR Inten    --      2.5549                 6.6823                 2.3126

                     28                     29                     30
                      A                      A                      A
 Frequencies --    756.9564               770.8691               814.7579
 Red. masses --      1.5510                 1.8553                 1.9431
 Frc consts  --      0.5236                 0.6496                 0.7600
 IR Inten    --     17.5795                42.2743                12.7661

                     31                     32                     33
                      A                      A                      A
 Frequencies --    864.4023               890.5383               902.8840
 Red. masses --      2.4518                 2.5287                 3.1793
 Frc consts  --      1.0794                 1.1816                 1.5270
 IR Inten    --     14.1867                46.1580                12.8688

                     34                     35                     36
                      A                      A                      A
 Frequencies --    929.3993               952.7401               969.3427
 Red. masses --      2.2585                 2.8120                 1.9131
 Frc consts  --      1.1494                 1.5039                 1.0591
 IR Inten    --     37.7944                21.0501                77.2093

                     37                     38                     39
                      A                      A                      A
 Frequencies --    986.4742              1023.2647              1028.8699
 Red. masses --      1.9016                 2.2972                 2.0100
 Frc consts  --      1.0903                 1.4172                 1.2536
 IR Inten    --      8.4829                97.7640                10.7207

                     40                     41                     42
                      A                      A                      A
 Frequencies --   1058.5913              1071.4417              1107.5365
 Red. masses --      2.3125                 2.1179                 2.6582
 Frc consts  --      1.5268                 1.4325                 1.9212
 IR Inten    --      3.7907               127.4587               191.5168

                     43                     44                     45
                      A                      A                      A
 Frequencies --   1124.8738              1135.8994              1146.3638
 Red. masses --      2.0188                 4.3016                 1.9255
 Frc consts  --      1.5050                 3.2701                 1.4908
 IR Inten    --    115.9491                70.9230                45.6815

                     46                     47                     48
                      A                      A                      A
 Frequencies --   1153.8069              1172.6746              1183.8130
 Red. masses --      1.5566                 3.5257                 1.3017
 Frc consts  --      1.2209                 2.8566                 1.0748
 IR Inten    --     22.7610                45.8405                 1.3663

                     49                     50                     51
                      A                      A                      A
 Frequencies --   1220.3418              1226.3546              1245.8205
 Red. masses --      1.6012                 1.5184                 1.5825
 Frc consts  --      1.4050                 1.3454                 1.4471
 IR Inten    --     51.3741                 8.1362                18.0574

                     52                     53                     54
                      A                      A                      A
 Frequencies --   1283.2248              1316.5460              1346.4917
 Red. masses --      1.2395                 1.4516                 2.2285
 Frc consts  --      1.2025                 1.4824                 2.3805
 IR Inten    --      6.3221                 6.2065               123.2152

                     55                     56                     57
                      A                      A                      A
 Frequencies --   1348.6770              1356.5177              1370.5718
 Red. masses --      1.2230                 1.3733                 1.4425
 Frc consts  --      1.3107                 1.4889                 1.5965
 IR Inten    --      6.0530                29.9720                26.3239

                     58                     59                     60
                      A                      A                      A
 Frequencies --   1376.2967              1392.0151              1400.3613
 Red. masses --      1.4147                 1.3472                 1.3991
 Frc consts  --      1.5788                 1.5380                 1.6165
 IR Inten    --     29.8849                14.0639                17.3543

                     61                     62                     63
                      A                      A                      A
 Frequencies --   1410.6858              1412.4585              1422.7629
 Red. masses --      1.3797                 1.2612                 1.3191
 Frc consts  --      1.6177                 1.4825                 1.5732
 IR Inten    --      2.6257                 5.3381                20.4138

                     64                     65                     66
                      A                      A                      A
 Frequencies --   1433.6191              1474.1839              1479.7498
 Red. masses --      1.2211                 1.0969                 1.0934
 Frc consts  --      1.4786                 1.4044                 1.4106
 IR Inten    --      1.5145                 2.4258                 2.4018

                     67                     68                     69
                      A                      A                      A
 Frequencies --   1490.1969              1493.5025              1499.0503
 Red. masses --      1.0812                 1.0686                 1.0613
 Frc consts  --      1.4147                 1.4043                 1.4051
 IR Inten    --      6.8543                 3.2302                 2.9232

                     70                     71                     72
                      A                      A                      A
 Frequencies --   1505.4989              1511.2802              1513.5489
 Red. masses --      1.0599                 1.0659                 1.0767
 Frc consts  --      1.4154                 1.4344                 1.4532
 IR Inten    --      5.0466                 7.1753                 5.7587

                     73                     74                     75
                      A                      A                      A
 Frequencies --   1641.8901              1733.1977              2978.5559
 Red. masses --      1.1453                 6.1978                 1.0399
 Frc consts  --      1.8192                10.9694                 5.4359
 IR Inten    --     73.4637               281.7585                42.9234

                     76                     77                     78
                      A                      A                      A
 Frequencies --   2994.1376              3017.1424              3026.4480
 Red. masses --      1.0824                 1.0828                 1.0816
 Frc consts  --      5.7171                 5.8075                 5.8370
 IR Inten    --     68.6945                11.2163                15.4501

                     79                     80                     81
                      A                      A                      A
 Frequencies --   3028.1630              3029.5235              3044.9570
 Red. masses --      1.1019                 1.0371                 1.0652
 Frc consts  --      5.9532                 5.6082                 5.8191
 IR Inten    --     45.4205                23.6291                28.6238

                     82                     83                     84
                      A                      A                      A
 Frequencies --   3047.5419              3053.9419              3079.9155
 Red. masses --      1.0646                 1.0631                 1.0981
 Frc consts  --      5.8256                 5.8416                 6.1371
 IR Inten    --     20.7853                28.1555                 7.9418

                     85                     86                     87
                      A                      A                      A
 Frequencies --   3084.8261              3091.1816              3100.0515
 Red. masses --      1.0987                 1.1011                 1.1006
 Frc consts  --      6.1603                 6.1989                 6.2321
 IR Inten    --     23.3981                41.5461                37.4666

                     88                     89                     90
                      A                      A                      A
 Frequencies --   3107.0099              3117.6426              3181.9274
 Red. masses --      1.1008                 1.0964                 1.0610
 Frc consts  --      6.2612                 6.2789                 6.3291
 IR Inten    --     44.2380                23.1941                 2.2056

                     91                     92                     93
                      A                      A                      A
 Frequencies --   3278.0614              3552.2761              3665.6466
 Red. masses --      1.1157                 1.0478                 1.0980
 Frc consts  --      7.0634                 7.7902                 8.6923
 IR Inten    --      6.2334                80.6565                56.5854

 - Thermochemistry -
 -------------------
 Temperature   298.150 Kelvin.  Pressure   1.00000 Atm.
 Atom     1 has atomic number  6 and mass  12.00000

 Molecular mass:   201.13649 amu.
 Principal axes and moments of inertia in atomic units:
                           1         2         3
     Eigenvalues --  2531.546472972.789514934.73777
           X            0.99992  -0.01019  -0.00685
           Y            0.01019   0.99995   0.00091
           Z            0.00684  -0.00098   0.99998
 This molecule is an asymmetric top.
 Rotational symmetry number  1.
 Warning -- assumption of classical behavior for rotation
           may cause significant error
 Rotational temperatures (Kelvin)      0.03421     0.02914     0.01755
 Rotational constants (GHZ):           0.71290     0.60709     0.36572
 Zero-point vibrational energy     758929.9 (Joules/Mol)
                                  181.38860 (Kcal/Mol)
 Warning -- explicit consideration of  22 degrees of freedom as
           vibrations may cause significant error
 Vibrational temperatures:     36.07    77.22    88.86   111.77   131.13
          (Kelvin)            148.61   227.31   248.03   295.85   334.70
                              361.65   426.83   450.66   461.48   493.39
                              519.87   571.86   629.81   658.72   724.30
                              786.03   829.99   934.91   975.91  1008.97
                             1018.24  1049.82  1089.09  1109.11  1172.25
                             1243.68  1281.29  1299.05  1337.20  1370.78
                             1394.67  1419.32  1472.25  1480.31  1523.08
                             1541.57  1593.50  1618.44  1634.31  1649.36
                             1660.07  1687.22  1703.24  1755.80  1764.45
                             1792.46  1846.27  1894.22  1937.30  1940.45
                             1951.73  1971.95  1980.18  2002.80  2014.81
                             2029.66  2032.21  2047.04  2062.66  2121.02
                             2129.03  2144.06  2148.82  2156.80  2166.08
                             2174.40  2177.66  2362.31  2493.68  4285.48
                             4307.90  4341.00  4354.38  4356.85  4358.81
                             4381.01  4384.73  4393.94  4431.31  4438.38
                             4447.52  4460.28  4470.29  4485.59  4578.08
                             4716.40  5110.93  5274.05

 Zero-point correction=                           0.289061 (Hartree/Particle)
 Thermal correction to Energy=                    0.304476
 Thermal correction to Enthalpy=                  0.305420
 Thermal correction to Gibbs Free Energy=         0.245727
 Sum of electronic and zero-point Energies=           -672.657267
 Sum of electronic and thermal Energies=              -672.641852
 Sum of electronic and thermal Enthalpies=            -672.640908
 Sum of electronic and thermal Free Energies=         -672.700601

                     E (Thermal)             CV                S
                      KCal/Mol        Cal/Mol-Kelvin    Cal/Mol-Kelvin
 Total                  191.062             58.003            125.635
 Electronic               0.000              0.000              0.000
 Translational            0.889              2.981             41.801
 Rotational               0.889              2.981             31.985
 Vibrational            189.284             52.042             51.849
 Vibration     1          0.593              1.985              6.186
 Vibration     2          0.596              1.976              4.677
 Vibration     3          0.597              1.973              4.400
 Vibration     4          0.599              1.964              3.949
 Vibration     5          0.602              1.955              3.635
 Vibration     6          0.605              1.947              3.391
 Vibration     7          0.621              1.894              2.574
 Vibration     8          0.626              1.876              2.409
 Vibration     9          0.640              1.832              2.082
 Vibration    10          0.653              1.791              1.859
 Vibration    11          0.663              1.760              1.721
 Vibration    12          0.690              1.680              1.436
 Vibration    13          0.701              1.648              1.345
 Vibration    14          0.706              1.634              1.306
 Vibration    15          0.722              1.590              1.199
 Vibration    16          0.736              1.552              1.116
 Vibration    17          0.764              1.476              0.972
 Vibration    18          0.798              1.388              0.834
 Vibration    19          0.816              1.344              0.772
 Vibration    20          0.859              1.242              0.650
 Vibration    21          0.902              1.148              0.552
 Vibration    22          0.933              1.081              0.491

 Optimization completed.
    -- Stationary point found.
 Normal termination of Gaussian 16 at Wed May 24 00:03:21 2023.
