 Gaussian 16, Revision A.03,
 Gaussian 16:  ES64L-G16RevA.03 25-Dec-2016

 -----------------------------
 # opt freq b3lyp/6-31g(2df,p)
 -----------------------------

 -------------------
 Title Card Required
 -------------------
 Symbolic Z-matrix:
 Charge =  0 Multiplicity = 1

 SCF Done:  E(RB3LYP) =  -758.612890206     A.U. after   14 cycles
 SCF Done:  E(RB3LYP) =  -758.628344082     A.U. after   13 cycles
 SCF Done:  E(RB3LYP) =  -758.643780521     A.U. after   12 cycles
 SCF Done:  E(RB3LYP) =  -758.651141081     A.U. after   12 cycles
 SCF Done:  E(RB3LYP) =  -758.654637124     A.U. after   11 cycles
 SCF Done:  E(RB3LYP) =  -758.655278755     A.U. after   11 cycles
 SCF Done:  E(RB3LYP) =  -758.655552246     A.U. after   11 cycles
 SCF Done:  E(RB3LYP) =  -758.655654664     A.U. after   11 cycles
 SCF Done:  E(RB3LYP) =  -758.655818631     A.U. after   12 cycles
 SCF Done:  E(RB3LYP) =  -758.655981453     A.U. after   12 cycles
 SCF Done:  E(RB3LYP) =  -758.663150273     A.U. after   11 cycles
 SCF Done:  E(RB3LYP) =  -758.663401316     A.U. after   11 cycles
 SCF Done:  E(RB3LYP) =  -758.663446014     A.U. after   10 cycles
 SCF Done:  E(RB3LYP) =  -758.663460499     A.U. after    9 cycles
 SCF Done:  E(RB3LYP) =  -758.663463791     A.U. after    8 cycles
 SCF Done:  E(RB3LYP) =  -758.663465429     A.U. after    9 cycles
 SCF Done:  E(RB3LYP) =  -758.663465618     A.U. after    7 cycles
 SCF Done:  E(RB3LYP) =  -758.663465601     A.U. after    6 cycles
 SCF Done:  E(RB3LYP) =  -758.663465580     A.U. after    6 cycles
 Optimization completed.
    -- Stationary point found.
 Normal termination of Gaussian 16 at Sun May 28 23:45:52 2023.

 ----------------------------------------------------------------------
 #N Geom=AllCheck Guess=TCheck SCRF=Check GenChk RB3LYP/6-31G(2df,p) Fr
 eq
 ----------------------------------------------------------------------

 Structure from the checkpoint file:  "CdCqCCNNrNdC1CCqOCrCqNrNN1.chk"
 -------------------
 Title Card Required
 -------------------
 Charge =  0 Multiplicity = 1

                         Standard orientation:
 ---------------------------------------------------------------------
 Center     Atomic      Atomic             Coordinates (Angstroms)
 Number     Number       Type             X           Y           Z
 ---------------------------------------------------------------------
      1          6           0        1.796153    0.036118   -2.054332
      2          6           0        1.697172   -0.542270   -0.852020
      3          6           0        2.746415   -0.454905    0.235034
      4          6           0        4.015756    0.321832   -0.106328
      5          7           0        4.913020    0.349289    1.046097
      6          7           0        6.181379    0.952950    0.789953
      7          7           0        0.639623   -1.401396   -0.510874
      8          6           0       -0.529439   -0.992979   -0.208538
      9          6           0       -1.011284    0.441774   -0.103733
     10          6           0       -2.508622    0.633714   -0.380254
     11          8           0       -2.809688    1.940773    0.047368
     12          6           0       -4.136841    2.356838   -0.195767
     13          6           0       -3.364951   -0.487247    0.267010
     14          7           0       -3.485569   -0.327175    1.695086
     15          7           0       -2.827648   -1.801890   -0.149256
     16          7           0       -1.461234   -1.919566    0.244549
     17          1           0        2.658407    0.625692   -2.336499
     18          1           0        1.022899   -0.099439   -2.801692
     19          1           0        3.006899   -1.483389    0.521874
     20          1           0        2.293163   -0.012874    1.132457
     21          1           0        3.766247    1.359688   -0.360033
     22          1           0        4.496653   -0.117889   -1.001164
     23          1           0        5.104695   -0.599972    1.350925
     24          1           0        6.057488    1.958105    0.875807
     25          1           0        6.470560    0.781558   -0.177630
     26          1           0       -0.423935    1.087416   -0.756241
     27          1           0       -0.819361    0.774696    0.924825
     28          1           0       -2.682793    0.550559   -1.469725
     29          1           0       -4.180335    3.424716    0.031348
     30          1           0       -4.853003    1.830342    0.447526
     31          1           0       -4.421734    2.210646   -1.249857
     32          1           0       -4.372764   -0.456830   -0.163593
     33          1           0       -2.568384   -0.349252    2.129719
     34          1           0       -3.997150   -1.120119    2.071526
     35          1           0       -2.886201   -1.855580   -1.170472
     36          1           0       -1.136992   -2.876993    0.206629
 ---------------------------------------------------------------------

 SCF Done:  E(RB3LYP) =  -758.663465580     A.U. after    1 cycles

 The electronic state is 1-A.
 Alpha  occ. eigenvalues --  -19.14358 -14.36481 -14.35875 -14.33103 -14.32804
 Alpha  occ. eigenvalues --  -14.31541 -14.30945 -10.26009 -10.24386 -10.24258
 Alpha  occ. eigenvalues --  -10.22356 -10.21254 -10.20187 -10.19441 -10.18361
 Alpha  occ. eigenvalues --  -10.15732  -1.03926  -1.00436  -0.95088  -0.92738
 Alpha  occ. eigenvalues --   -0.88687  -0.81530  -0.79177  -0.78427  -0.74199
 Alpha  occ. eigenvalues --   -0.69075  -0.68814  -0.66419  -0.63258  -0.60312
 Alpha  occ. eigenvalues --   -0.57050  -0.55561  -0.52522  -0.50614  -0.49651
 Alpha  occ. eigenvalues --   -0.49407  -0.48787  -0.48447  -0.46219  -0.45936
 Alpha  occ. eigenvalues --   -0.45270  -0.44313  -0.43077  -0.42427  -0.41753
 Alpha  occ. eigenvalues --   -0.41242  -0.40548  -0.38435  -0.37485  -0.35967
 Alpha  occ. eigenvalues --   -0.35439  -0.35077  -0.33096  -0.32523  -0.29394
 Alpha  occ. eigenvalues --   -0.27332  -0.25562  -0.24952  -0.24283  -0.23419
 Alpha  occ. eigenvalues --   -0.22849  -0.21175
 Alpha virt. eigenvalues --    0.00466   0.03857   0.06768   0.08484   0.08644
 Alpha virt. eigenvalues --    0.09920   0.10670   0.11626   0.12099   0.12524
 Alpha virt. eigenvalues --    0.13625   0.13950   0.15016   0.15150   0.15989

 Mulliken charges:
               1
     1  C   -0.414055
     2  C    0.329538
     3  C   -0.274215
     4  C   -0.129315
     5  N   -0.277227
     6  N   -0.467007
     7  N   -0.346048
     8  C    0.348448
     9  C   -0.319508
    10  C    0.118749
    11  O   -0.238108
    12  C   -0.241145
    13  C    0.005344
    14  N   -0.488280
    15  N   -0.297891
    16  N   -0.310938
    17  H    0.104278
    18  H    0.088836
    19  H    0.114264
    20  H    0.119362
    21  H    0.103682
    22  H    0.080706
    23  H    0.227020
    24  H    0.239592
    25  H    0.212661
    26  H    0.137486
    27  H    0.139763
    28  H    0.060852
    29  H    0.127704
    30  H    0.127514
    31  H    0.098075
    32  H    0.083832
    33  H    0.235185
    34  H    0.234838
    35  H    0.219902
    36  H    0.246103
 Sum of Mulliken charges =  -0.00000

 Dipole moment (field-independent basis, Debye):
    X=             -2.2797    Y=             -0.3588    Z=             -1.8317  Tot=              2.9463
 Quadrupole moment (field-independent basis, Debye-Ang):
   XX=            -96.5595   YY=            -95.4166   ZZ=            -98.1228
   XY=              2.7947   XZ=             -3.0074   YZ=             -4.1236

  Exact polarizability: 192.928   3.823 127.996  -7.698  -7.066 127.245
 Approx polarizability: 231.582   5.678 193.248 -11.576 -13.800 205.523

                      1                      2                      3
                      A                      A                      A
 Frequencies --     17.7602                41.1155                51.2707
 Red. masses --      5.1422                 3.6507                 2.2858
 Frc consts  --      0.0010                 0.0036                 0.0035
 IR Inten    --      0.0628                 1.2992                 0.6099

                      4                      5                      6
                      A                      A                      A
 Frequencies --     76.7506                90.3391               107.3348
 Red. masses --      3.4818                 4.3222                 2.5333
 Frc consts  --      0.0121                 0.0208                 0.0172
 IR Inten    --      1.3662                 4.9755                 3.6842

                      7                      8                      9
                      A                      A                      A
 Frequencies --    120.7457               132.3532               145.7981
 Red. masses --      2.8127                 2.4355                 2.4303
 Frc consts  --      0.0242                 0.0251                 0.0304
 IR Inten    --      4.3446                 0.4727                 1.6072

                     10                     11                     12
                      A                      A                      A
 Frequencies --    163.0205               190.0851               205.0256
 Red. masses --      3.6022                 3.3010                 1.5698
 Frc consts  --      0.0564                 0.0703                 0.0389
 IR Inten    --      1.5627                 2.2628                 5.7131

                     13                     14                     15
                      A                      A                      A
 Frequencies --    233.9325               249.8887               287.7835
 Red. masses --      1.3436                 1.9023                 2.9398
 Frc consts  --      0.0433                 0.0700                 0.1434
 IR Inten    --     16.1523                 9.1905                 4.0971

                     16                     17                     18
                      A                      A                      A
 Frequencies --    319.1510               337.0838               355.6009
 Red. masses --      4.2909                 3.8835                 1.3336
 Frc consts  --      0.2575                 0.2600                 0.0994
 IR Inten    --      1.0487                11.6428                29.2768

                     19                     20                     21
                      A                      A                      A
 Frequencies --    362.2673               401.1110               435.6020
 Red. masses --      3.2089                 3.7201                 3.7984
 Frc consts  --      0.2481                 0.3526                 0.4246
 IR Inten    --      0.9183                 3.9137                19.4454

                     22                     23                     24
                      A                      A                      A
 Frequencies --    457.2541               486.9291               524.9670
 Red. masses --      2.7482                 2.7382                 2.3928
 Frc consts  --      0.3385                 0.3825                 0.3885
 IR Inten    --      6.6313                 9.7457                 7.1374

                     25                     26                     27
                      A                      A                      A
 Frequencies --    549.2643               587.3057               594.6921
 Red. masses --      3.3090                 2.6625                 2.9520
 Frc consts  --      0.5882                 0.5411                 0.6151
 IR Inten    --      7.7119                32.6323                 9.3024

                     28                     29                     30
                      A                      A                      A
 Frequencies --    616.4590               683.7871               711.9113
 Red. masses --      2.2699                 1.8205                 2.5467
 Frc consts  --      0.5082                 0.5015                 0.7605
 IR Inten    --     19.3501               115.1153                18.0815

                     31                     32                     33
                      A                      A                      A
 Frequencies --    768.6130               799.3021               812.6560
 Red. masses --      1.5830                 1.5219                 1.4285
 Frc consts  --      0.5510                 0.5729                 0.5558
 IR Inten    --     14.0801                56.8812                23.4609

                     34                     35                     36
                      A                      A                      A
 Frequencies --    837.1077               855.5925               863.8739
 Red. masses --      2.3126                 2.1353                 1.5591
 Frc consts  --      0.9548                 0.9210                 0.6855
 IR Inten    --     31.6372                53.6425                26.8439

                     37                     38                     39
                      A                      A                      A
 Frequencies --    888.1017               908.4625               936.1543
 Red. masses --      3.7485                 3.1250                 2.3749
 Frc consts  --      1.7419                 1.5195                 1.2263
 IR Inten    --     18.2460                47.4994               123.3870

                     40                     41                     42
                      A                      A                      A
 Frequencies --    962.7800               973.6619               989.2955
 Red. masses --      1.4989                 1.9211                 1.6689
 Frc consts  --      0.8186                 1.0730                 0.9623
 IR Inten    --     96.7944                18.9350                43.8644

                     43                     44                     45
                      A                      A                      A
 Frequencies --   1007.6179              1028.9225              1054.2547
 Red. masses --      2.2055                 2.7564                 2.3639
 Frc consts  --      1.3193                 1.7193                 1.5480
 IR Inten    --      6.9165                33.0054                 7.7948

                     46                     47                     48
                      A                      A                      A
 Frequencies --   1077.1780              1088.1411              1122.8351
 Red. masses --      2.1741                 2.0760                 2.8186
 Frc consts  --      1.4863                 1.4482                 2.0937
 IR Inten    --      1.5628                11.3741                10.7741

                     49                     50                     51
                      A                      A                      A
 Frequencies --   1149.7057              1155.8716              1159.1088
 Red. masses --      1.6264                 3.8690                 1.9392
 Frc consts  --      1.2667                 3.0456                 1.5350
 IR Inten    --     64.2034                36.2330                68.5890

                     52                     53                     54
                      A                      A                      A
 Frequencies --   1162.5921              1181.5892              1200.9504
 Red. masses --      1.9427                 1.4107                 1.8321
 Frc consts  --      1.5471                 1.1604                 1.5568
 IR Inten    --     25.2736                21.1172                38.3907

                     55                     56                     57
                      A                      A                      A
 Frequencies --   1222.4540              1229.2589              1240.5917
 Red. masses --      1.3470                 1.7148                 2.2675
 Frc consts  --      1.1860                 1.5267                 2.0562
 IR Inten    --     12.7944                15.8124                49.9871

                     58                     59                     60
                      A                      A                      A
 Frequencies --   1259.3984              1295.7943              1304.3182
 Red. masses --      1.5869                 1.1480                 1.4594
 Frc consts  --      1.4829                 1.1357                 1.4629
 IR Inten    --     14.6395                 3.1575                24.5445

                     61                     62                     63
                      A                      A                      A
 Frequencies --   1325.3519              1338.8966              1340.4746
 Red. masses --      1.7480                 1.2738                 1.3899
 Frc consts  --      1.8091                 1.3453                 1.4714
 IR Inten    --     40.1684                 9.6553                20.0345

                     64                     65                     66
                      A                      A                      A
 Frequencies --   1348.6681              1384.5344              1390.7618
 Red. masses --      2.2163                 1.4952                 1.3043
 Frc consts  --      2.3752                 1.6888                 1.4863
 IR Inten    --     36.5828                22.5763                16.0654

                     67                     68                     69
                      A                      A                      A
 Frequencies --   1408.7569              1409.3682              1434.6564
 Red. masses --      1.4240                 1.5244                 1.2219
 Frc consts  --      1.6650                 1.7840                 1.4818
 IR Inten    --      7.7474                20.1300                 7.6630

                     70                     71                     72
                      A                      A                      A
 Frequencies --   1456.5613              1473.8307              1477.0736
 Red. masses --      1.3967                 1.0826                 1.1231
 Frc consts  --      1.7459                 1.3855                 1.4436
 IR Inten    --      7.3145                 4.7287                 2.2995

                     73                     74                     75
                      A                      A                      A
 Frequencies --   1481.3000              1487.0600              1494.3680
 Red. masses --      1.1033                 1.0771                 1.2680
 Frc consts  --      1.4264                 1.4033                 1.6684
 IR Inten    --      1.0228                 3.6648                24.8939

                     76                     77                     78
                      A                      A                      A
 Frequencies --   1509.0934              1513.6459              1523.1222
 Red. masses --      1.1419                 1.0497                 1.0789
 Frc consts  --      1.5322                 1.4170                 1.4747
 IR Inten    --      3.4324                 8.6416                 3.9937

                     79                     80                     81
                      A                      A                      A
 Frequencies --   1670.9977              1683.9231              1685.8308
 Red. masses --      1.0927                 1.0802                 4.9493
 Frc consts  --      1.7976                 1.8047                 8.2874
 IR Inten    --     30.5422                 8.8292                51.9992

                     82                     83                     84
                      A                      A                      A
 Frequencies --   1737.7384              2918.4187              2920.0899
 Red. masses --      8.7803                 1.0719                 1.0816
 Frc consts  --     15.6217                 5.3789                 5.4340
 IR Inten    --    471.3498                54.4394                47.0657

                     85                     86                     87
                      A                      A                      A
 Frequencies --   2978.0047              3012.7545              3032.8272
 Red. masses --      1.0442                 1.0609                 1.0859
 Frc consts  --      5.4563                 5.6735                 5.8847
 IR Inten    --     60.3873                16.8740                 4.5673

                     88                     89                     90
                      A                      A                      A
 Frequencies --   3034.4784              3038.8941              3050.1596
 Red. masses --      1.0717                 1.0864                 1.0968
 Frc consts  --      5.8143                 5.9111                 6.0118
 IR Inten    --      8.7327                38.1729                41.3716

                     91                     92                     93
                      A                      A                      A
 Frequencies --   3052.5063              3114.8455              3133.8719
 Red. masses --      1.0920                 1.0985                 1.0912
 Frc consts  --      5.9949                 6.2794                 6.3144
 IR Inten    --     39.6244                27.5480                 3.2581

                     94                     95                     96
                      A                      A                      A
 Frequencies --   3163.7552              3249.9846              3369.0742
 Red. masses --      1.0607                 1.1141                 1.0738
 Frc consts  --      6.2551                 6.9332                 7.1814
 IR Inten    --      2.6252                14.7689                21.0306

                     97                     98                     99
                      A                      A                      A
 Frequencies --   3373.7389              3501.8111              3502.0038
 Red. masses --      1.0565                 1.0491                 1.0760
 Frc consts  --      7.0851                 7.5794                 7.7748
 IR Inten    --     21.4674                 1.1271                 1.8075

                    100                    101                    102
                      A                      A                      A
 Frequencies --   3523.9159              3577.0310              3582.7813
 Red. masses --      1.0820                 1.0915                 1.0759
 Frc consts  --      7.9165                 8.2282                 8.1371
 IR Inten    --      0.0636                 2.1734                19.0036

 - Thermochemistry -
 -------------------
 Temperature   298.150 Kelvin.  Pressure   1.00000 Atm.
 Atom     1 has atomic number  6 and mass  12.00000

 Molecular mass:   228.16986 amu.
 Principal axes and moments of inertia in atomic units:
                           1         2         3
     Eigenvalues --  1816.997879133.336569755.53367
           X            1.00000  -0.00200  -0.00124
           Y            0.00196   0.99946  -0.03295
           Z            0.00130   0.03295   0.99946
 This molecule is an asymmetric top.
 Rotational symmetry number  1.
 Warning -- assumption of classical behavior for rotation
           may cause significant error
 Rotational temperatures (Kelvin)      0.04767     0.00948     0.00888
 Rotational constants (GHZ):           0.99325     0.19760     0.18500
 Zero-point vibrational energy     824105.8 (Joules/Mol)
                                  196.96602 (Kcal/Mol)
 Warning -- explicit consideration of  28 degrees of freedom as
           vibrations may cause significant error
 Vibrational temperatures:     25.55    59.16    73.77   110.43   129.98
          (Kelvin)            154.43   173.73   190.43   209.77   234.55
                              273.49   294.99   336.58   359.53   414.06
                              459.19   484.99   511.63   521.22   577.11
                              626.73   657.89   700.58   755.31   790.27
                              845.00   855.63   886.95   983.82  1024.28
                             1105.86  1150.02  1169.23  1204.41  1231.01
                             1242.92  1277.78  1307.07  1346.92  1385.23
                             1400.88  1423.38  1449.74  1480.39  1516.84
                             1549.82  1565.59  1615.51  1654.17  1663.04
                             1667.70  1672.71  1700.04  1727.90  1758.84
                             1768.63  1784.93  1811.99  1864.36  1876.62
                             1906.89  1926.37  1928.64  1940.43  1992.04
                             2001.00  2026.89  2027.77  2064.15  2095.67
                             2120.51  2125.18  2131.26  2139.55  2150.06
                             2171.25  2177.80  2191.43  2404.19  2422.79
                             2425.53  2500.22  4198.95  4201.36  4284.68
                             4334.68  4363.56  4365.94  4372.29  4388.50
                             4391.88  4481.57  4508.94  4551.94  4676.00
                             4847.35  4854.06  5038.33  5038.60  5070.13
                             5146.55  5154.82

 Zero-point correction=                           0.313885 (Hartree/Particle)
 Thermal correction to Energy=                    0.331633
 Thermal correction to Enthalpy=                  0.332578
 Thermal correction to Gibbs Free Energy=         0.266869
 Sum of electronic and zero-point Energies=           -758.349580
 Sum of electronic and thermal Energies=              -758.331832
 Sum of electronic and thermal Enthalpies=            -758.330888
 Sum of electronic and thermal Free Energies=         -758.396597

                     E (Thermal)             CV                S
                      KCal/Mol        Cal/Mol-Kelvin    Cal/Mol-Kelvin
 Total                  208.103             65.819            138.296
 Electronic               0.000              0.000              0.000
 Translational            0.889              2.981             42.177
 Rotational               0.889              2.981             33.448
 Vibrational            206.326             59.858             62.671
 Vibration     1          0.593              1.986              6.870
 Vibration     2          0.594              1.981              5.205
 Vibration     3          0.596              1.977              4.768
 Vibration     4          0.599              1.965              3.972
 Vibration     5          0.602              1.956              3.653
 Vibration     6          0.606              1.943              3.317
 Vibration     7          0.609              1.932              3.088
 Vibration     8          0.612              1.921              2.912
 Vibration     9          0.617              1.907              2.726
 Vibration    10          0.623              1.888              2.514
 Vibration    11          0.633              1.854              2.227
 Vibration    12          0.640              1.833              2.088
 Vibration    13          0.654              1.789              1.849
 Vibration    14          0.663              1.763              1.731
 Vibration    15          0.685              1.696              1.487
 Vibration    16          0.705              1.637              1.314
 Vibration    17          0.718              1.601              1.226
 Vibration    18          0.731              1.564              1.141
 Vibration    19          0.736              1.550              1.112
 Vibration    20          0.767              1.468              0.959
 Vibration    21          0.796              1.393              0.841
 Vibration    22          0.815              1.345              0.774
 Vibration    23          0.843              1.279              0.692
 Vibration    24          0.880              1.195              0.599
 Vibration    25          0.905              1.141              0.546
 Vibration    26          0.944              1.059              0.472
 Vibration    27          0.952              1.043              0.459
 Vibration    28          0.976              0.997              0.422

                           ! Non-Optimized Parameters !
 Normal termination of Gaussian 16 at Mon May 29 02:39:41 2023.
