 Gaussian 16, Revision A.03,
 Gaussian 16:  ES64L-G16RevA.03 25-Dec-2016

 -----------------------------
 # opt freq b3lyp/6-31g(2df,p)
 -----------------------------

 -------------------
 Title Card Required
 -------------------
 Symbolic Z-matrix:
 Charge =  0 Multiplicity = 1

 SCF Done:  E(RB3LYP) =  -625.553962237     A.U. after   12 cycles
 SCF Done:  E(RB3LYP) =  -625.567181265     A.U. after   11 cycles
 SCF Done:  E(RB3LYP) =  -625.579634066     A.U. after   11 cycles
 SCF Done:  E(RB3LYP) =  -625.589638683     A.U. after   13 cycles
 SCF Done:  E(RB3LYP) =  -625.593767089     A.U. after   13 cycles
 SCF Done:  E(RB3LYP) =  -625.596861181     A.U. after   11 cycles
 SCF Done:  E(RB3LYP) =  -625.599000887     A.U. after   10 cycles
 SCF Done:  E(RB3LYP) =  -625.601837797     A.U. after   10 cycles
 SCF Done:  E(RB3LYP) =  -625.604074425     A.U. after   11 cycles
 SCF Done:  E(RB3LYP) =  -625.605387451     A.U. after   10 cycles
 SCF Done:  E(RB3LYP) =  -625.608023203     A.U. after    9 cycles
 SCF Done:  E(RB3LYP) =  -625.608087757     A.U. after    9 cycles
 SCF Done:  E(RB3LYP) =  -625.608110045     A.U. after    9 cycles
 SCF Done:  E(RB3LYP) =  -625.608125147     A.U. after    9 cycles
 SCF Done:  E(RB3LYP) =  -625.608133429     A.U. after    9 cycles
 SCF Done:  E(RB3LYP) =  -625.608136170     A.U. after    7 cycles
 SCF Done:  E(RB3LYP) =  -625.608137077     A.U. after    7 cycles
 SCF Done:  E(RB3LYP) =  -625.608137264     A.U. after    6 cycles
 SCF Done:  E(RB3LYP) =  -625.608137301     A.U. after    5 cycles
 Optimization completed.
    -- Stationary point found.
 Normal termination of Gaussian 16 at Mon May 22 10:22:43 2023.

 ----------------------------------------------------------------------
 #N Geom=AllCheck Guess=TCheck SCRF=Check GenChk RB3LYP/6-31G(2df,p) Fr
 eq
 ----------------------------------------------------------------------

 Structure from the checkpoint file:  "CdCqCrCCqCCCCrCqCCrCCO.chk"
 -------------------
 Title Card Required
 -------------------
 Charge =  0 Multiplicity = 1

                         Standard orientation:
 ---------------------------------------------------------------------
 Center     Atomic      Atomic             Coordinates (Angstroms)
 Number     Number       Type             X           Y           Z
 ---------------------------------------------------------------------
      1          6           0       -2.933783    2.241200   -0.778355
      2          6           0       -1.977399    2.087922    0.138609
      3          6           0       -2.277195    2.171938    1.614748
      4          6           0       -0.529300    1.873635   -0.244864
      5          6           0        0.038393    0.466388    0.078892
      6          6           0       -0.749618   -0.626016   -0.695682
      7          6           0       -1.811578   -1.365560    0.128002
      8          6           0       -2.567162   -2.428360   -0.676848
      9          6           0       -3.617953   -3.175839    0.148696
     10          6           0        1.570418    0.342747   -0.184050
     11          6           0        2.415504    1.546928    0.310431
     12          6           0        2.707306    2.621237   -0.744504
     13          6           0        2.103323   -0.961467    0.454289
     14          6           0        3.389458   -1.486947   -0.187361
     15          8           0        3.857507   -2.683119    0.418108
     16          1           0       -3.969397    2.412693   -0.501175
     17          1           0       -2.715892    2.208461   -1.841278
     18          1           0       -3.339360    2.351112    1.799497
     19          1           0       -1.707135    2.985590    2.081576
     20          1           0       -1.993244    1.253049    2.140951
     21          1           0        0.067080    2.630756    0.277382
     22          1           0       -0.411116    2.059541   -1.318869
     23          1           0       -0.099132    0.294702    1.156408
     24          1           0       -0.055455   -1.367941   -1.107246
     25          1           0       -1.235435   -0.166081   -1.565454
     26          1           0       -2.531020   -0.643550    0.532508
     27          1           0       -1.331456   -1.841043    0.995365
     28          1           0       -1.848633   -3.147160   -1.093250
     29          1           0       -3.050773   -1.949979   -1.538846
     30          1           0       -3.159236   -3.692799    0.999152
     31          1           0       -4.141350   -3.925906   -0.452681
     32          1           0       -4.369867   -2.486650    0.549240
     33          1           0        1.705573    0.265063   -1.274009
     34          1           0        3.378646    1.174619    0.677764
     35          1           0        1.931714    1.997846    1.186702
     36          1           0        3.255711    2.191726   -1.590356
     37          1           0        3.322553    3.424502   -0.325752
     38          1           0        1.796221    3.075004   -1.142868
     39          1           0        1.361614   -1.764103    0.400519
     40          1           0        2.280769   -0.780510    1.525432
     41          1           0        4.172808   -0.712302   -0.188803
     42          1           0        3.198063   -1.744975   -1.235245
     43          1           0        4.065226   -2.483564    1.336457
 ---------------------------------------------------------------------

 SCF Done:  E(RB3LYP) =  -625.608137301     A.U. after    2 cycles

 The electronic state is 1-A.
 Alpha  occ. eigenvalues --  -19.12956 -10.22182 -10.18947 -10.18611 -10.18525
 Alpha  occ. eigenvalues --  -10.17992 -10.17892 -10.17856 -10.17584 -10.17302
 Alpha  occ. eigenvalues --  -10.17286 -10.17064 -10.17042 -10.16759 -10.16563
 Alpha  occ. eigenvalues --   -1.01025  -0.83253  -0.79964  -0.78691  -0.74819
 Alpha  occ. eigenvalues --   -0.74019  -0.70159  -0.68300  -0.66767  -0.63411
 Alpha  occ. eigenvalues --   -0.60921  -0.58938  -0.57021  -0.55551  -0.52056
 Alpha  occ. eigenvalues --   -0.50093  -0.47112  -0.46026  -0.45467  -0.44922
 Alpha  occ. eigenvalues --   -0.44093  -0.43183  -0.42329  -0.41828  -0.40774
 Alpha  occ. eigenvalues --   -0.40518  -0.39562  -0.38560  -0.37631  -0.37324
 Alpha  occ. eigenvalues --   -0.36618  -0.36002  -0.34923  -0.34520  -0.33988
 Alpha  occ. eigenvalues --   -0.33545  -0.33017  -0.32439  -0.32247  -0.31529
 Alpha  occ. eigenvalues --   -0.31080  -0.30390  -0.29140  -0.26027  -0.24115
 Alpha virt. eigenvalues --    0.02520   0.07637   0.08366   0.09248   0.09312
 Alpha virt. eigenvalues --    0.10331   0.10976   0.12453   0.13049   0.13115
 Alpha virt. eigenvalues --    0.13471   0.14132   0.14487   0.15475   0.15827

 Mulliken charges:
               1
     1  C   -0.411941
     2  C    0.394869
     3  C   -0.473678
     4  C   -0.323067
     5  C    0.006802
     6  C   -0.196094
     7  C   -0.165847
     8  C   -0.164532
     9  C   -0.380325
    10  C    0.020847
    11  C   -0.197731
    12  C   -0.386563
    13  C   -0.225656
    14  C   -0.063951
    15  O   -0.419224
    16  H    0.099352
    17  H    0.098051
    18  H    0.120490
    19  H    0.120590
    20  H    0.127868
    21  H    0.100874
    22  H    0.097262
    23  H    0.066002
    24  H    0.091413
    25  H    0.091532
    26  H    0.102219
    27  H    0.087176
    28  H    0.093255
    29  H    0.095267
    30  H    0.111808
    31  H    0.109479
    32  H    0.112563
    33  H    0.066067
    34  H    0.088409
    35  H    0.094567
    36  H    0.114843
    37  H    0.110163
    38  H    0.121779
    39  H    0.109432
    40  H    0.078981
    41  H    0.087618
    42  H    0.110193
    43  H    0.278834
 Sum of Mulliken charges =  -0.00000

 Dipole moment (field-independent basis, Debye):
    X=             -0.0014    Y=              1.3440    Z=              1.0558  Tot=              1.7091
 Quadrupole moment (field-independent basis, Debye-Ang):
   XX=            -99.8876   YY=           -105.5160   ZZ=            -94.1434
   XY=              5.1728   XZ=              3.3999   YZ=             -0.5618

  Exact polarizability: 178.930  -1.247 156.105   5.301  -2.101 138.858
 Approx polarizability: 228.282  -6.341 206.106  15.032  -1.978 226.664

                      1                      2                      3
                      A                      A                      A
 Frequencies --     26.7250                37.7265                58.7650
 Red. masses --      3.4743                 3.9852                 2.3014
 Frc consts  --      0.0015                 0.0033                 0.0047
 IR Inten    --      0.1535                 0.1079                 0.2572

                      4                      5                      6
                      A                      A                      A
 Frequencies --     68.6895                72.7758                80.8511
 Red. masses --      2.7053                 2.1799                 2.6209
 Frc consts  --      0.0075                 0.0068                 0.0101
 IR Inten    --      0.3187                 0.3186                 0.4144

                      7                      8                      9
                      A                      A                      A
 Frequencies --     96.1306               111.3841               116.5615
 Red. masses --      2.2219                 2.7346                 2.1811
 Frc consts  --      0.0121                 0.0200                 0.0175
 IR Inten    --      2.3765                 0.4115                 0.8897

                     10                     11                     12
                      A                      A                      A
 Frequencies --    125.6963               159.9453               186.3968
 Red. masses --      2.3610                 2.9565                 1.1012
 Frc consts  --      0.0220                 0.0446                 0.0225
 IR Inten    --      0.1903                 0.3058                 0.2996

                     13                     14                     15
                      A                      A                      A
 Frequencies --    194.5498               200.7913               224.7620
 Red. masses --      3.2468                 1.1819                 3.6456
 Frc consts  --      0.0724                 0.0281                 0.1085
 IR Inten    --      0.4868                 0.3319                 0.0563

                     16                     17                     18
                      A                      A                      A
 Frequencies --    244.7191               266.7707               291.8921
 Red. masses --      1.1271                 2.0585                 1.9357
 Frc consts  --      0.0398                 0.0863                 0.0972
 IR Inten    --      0.2963                17.0277                22.0868

                     19                     20                     21
                      A                      A                      A
 Frequencies --    305.9219               329.0717               354.5890
 Red. masses --      1.6283                 2.5773                 2.8649
 Frc consts  --      0.0898                 0.1644                 0.2122
 IR Inten    --     67.4821                 7.7763                 1.5705

                     22                     23                     24
                      A                      A                      A
 Frequencies --    378.8114               393.9129               416.0767
 Red. masses --      2.7918                 2.6287                 2.0813
 Frc consts  --      0.2360                 0.2403                 0.2123
 IR Inten    --      2.3201                 0.7915                 0.3159

                     25                     26                     27
                      A                      A                      A
 Frequencies --    452.0964               485.1587               507.5941
 Red. masses --      2.1745                 2.5806                 2.8373
 Frc consts  --      0.2619                 0.3579                 0.4307
 IR Inten    --      3.4060                 1.4533                 1.4291

                     28                     29                     30
                      A                      A                      A
 Frequencies --    559.6588               568.9985               722.3012
 Red. masses --      2.8232                 2.2176                 1.1026
 Frc consts  --      0.5210                 0.4230                 0.3389
 IR Inten    --      1.5448                 2.8617                 2.6909

                     31                     32                     33
                      A                      A                      A
 Frequencies --    731.1841               762.3940               778.9967
 Red. masses --      1.1008                 1.2686                 1.1944
 Frc consts  --      0.3467                 0.4344                 0.4271
 IR Inten    --      2.2419                 2.6515                 2.8942

                     34                     35                     36
                      A                      A                      A
 Frequencies --    786.4191               834.5902               872.3068
 Red. masses --      1.1974                 2.8420                 1.9008
 Frc consts  --      0.4363                 1.1663                 0.8522
 IR Inten    --      2.9120                 2.1987                 2.2984

                     37                     38                     39
                      A                      A                      A
 Frequencies --    879.6294               906.5891               924.0970
 Red. masses --      2.3320                 1.6663                 1.3771
 Frc consts  --      1.0631                 0.8069                 0.6929
 IR Inten    --      0.3726                 1.2202                 2.8719

                     40                     41                     42
                      A                      A                      A
 Frequencies --    930.0062               962.9911               982.0794
 Red. masses --      1.3549                 2.0064                 1.7346
 Frc consts  --      0.6905                 1.0963                 0.9857
 IR Inten    --     34.4690                 0.8764                 0.5849

                     43                     44                     45
                      A                      A                      A
 Frequencies --    998.4750              1008.3436              1019.8540
 Red. masses --      1.8111                 2.0004                 2.3878
 Frc consts  --      1.0638                 1.1983                 1.4633
 IR Inten    --     16.6592                 6.1212                 2.4483

                     46                     47                     48
                      A                      A                      A
 Frequencies --   1023.9309              1042.0488              1048.3049
 Red. masses --      2.6984                 1.6275                 1.8976
 Frc consts  --      1.6668                 1.0412                 1.2287
 IR Inten    --      4.4360                 0.3115                 7.6050

                     49                     50                     51
                      A                      A                      A
 Frequencies --   1059.1486              1069.0931              1072.9915
 Red. masses --      2.1501                 2.3264                 1.9083
 Frc consts  --      1.4211                 1.5666                 1.2945
 IR Inten    --      7.0535                 0.5862                 9.4117

                     52                     53                     54
                      A                      A                      A
 Frequencies --   1078.5901              1096.4392              1117.4620
 Red. masses --      3.5836                 1.9099                 1.9442
 Frc consts  --      2.4563                 1.3528                 1.4304
 IR Inten    --     99.3310                 1.3762                 0.9139

                     55                     56                     57
                      A                      A                      A
 Frequencies --   1134.1022              1144.7046              1174.7279
 Red. masses --      1.9231                 1.6657                 1.9921
 Frc consts  --      1.4573                 1.2860                 1.6197
 IR Inten    --      4.2350                 0.7794                 0.9119

                     58                     59                     60
                      A                      A                      A
 Frequencies --   1184.1439              1216.0707              1243.7539
 Red. masses --      1.4590                 1.4619                 1.3171
 Frc consts  --      1.2054                 1.2737                 1.2005
 IR Inten    --      4.7526                 0.5978                 1.7425

                     61                     62                     63
                      A                      A                      A
 Frequencies --   1259.4814              1284.3537              1290.4446
 Red. masses --      1.3280                 1.4749                 1.2809
 Frc consts  --      1.2411                 1.4334                 1.2567
 IR Inten    --      0.3071                 5.4894                 1.6332

                     64                     65                     66
                      A                      A                      A
 Frequencies --   1302.2130              1311.4604              1319.5597
 Red. masses --      1.7083                 1.1959                 1.2734
 Frc consts  --      1.7068                 1.2119                 1.3064
 IR Inten    --      5.7854                 6.9902                 1.3669

                     67                     68                     69
                      A                      A                      A
 Frequencies --   1323.3170              1333.1352              1336.4500
 Red. masses --      1.1608                 1.2022                 1.1348
 Frc consts  --      1.1977                 1.2589                 1.1941
 IR Inten    --      1.2776                 2.1624                 0.4720

                     70                     71                     72
                      A                      A                      A
 Frequencies --   1343.2696              1362.2996              1375.8451
 Red. masses --      1.2590                 1.3035                 1.3378
 Frc consts  --      1.3385                 1.4253                 1.4920
 IR Inten    --      1.8284                 3.9480                 2.0476

                     73                     74                     75
                      A                      A                      A
 Frequencies --   1382.7366              1387.3736              1398.5003
 Red. masses --      1.4303                 1.3900                 1.5298
 Frc consts  --      1.6113                 1.5764                 1.7628
 IR Inten    --      3.1160                 1.5604                 2.7268

                     76                     77                     78
                      A                      A                      A
 Frequencies --   1401.3065              1410.9831              1412.6664
 Red. masses --      1.3046                 1.2529                 1.2405
 Frc consts  --      1.5094                 1.4696                 1.4586
 IR Inten    --      7.8850                 7.7898                 1.1991

                     79                     80                     81
                      A                      A                      A
 Frequencies --   1413.8015              1421.9562              1451.4038
 Red. masses --      1.2284                 1.2872                 1.1684
 Frc consts  --      1.4466                 1.5334                 1.4502
 IR Inten    --      3.0760                54.3557                 0.0784

                     82                     83                     84
                      A                      A                      A
 Frequencies --   1476.0354              1480.5657              1483.8573
 Red. masses --      1.0632                 1.0763                 1.0666
 Frc consts  --      1.3647                 1.3901                 1.3836
 IR Inten    --      1.3819                 4.5514                 0.0441

                     85                     86                     87
                      A                      A                      A
 Frequencies --   1487.5833              1492.5908              1493.6442
 Red. masses --      1.0693                 1.0720                 1.0580
 Frc consts  --      1.3942                 1.4071                 1.3907
 IR Inten    --      6.2367                 2.1773                 4.4352

                     88                     89                     90
                      A                      A                      A
 Frequencies --   1496.7524              1499.9146              1502.7509
 Red. masses --      1.0611                 1.0403                 1.0610
 Frc consts  --      1.4006                 1.3789                 1.4117
 IR Inten    --      6.9596                 5.2103                 0.5173

                     91                     92                     93
                      A                      A                      A
 Frequencies --   1504.6135              1509.6725              1513.1295
 Red. masses --      1.0635                 1.0743                 1.0847
 Frc consts  --      1.4185                 1.4426                 1.4633
 IR Inten    --      1.8385                 3.0761                 1.3237

                     94                     95                     96
                      A                      A                      A
 Frequencies --   1517.4008              1716.9468              2974.7897
 Red. masses --      1.0916                 5.2279                 1.0718
 Frc consts  --      1.4808                 9.0801                 5.5881
 IR Inten    --      2.9037                14.5391                35.1241

                     97                     98                     99
                      A                      A                      A
 Frequencies --   2978.9416              2992.4742              2999.4627
 Red. masses --      1.0774                 1.0761                 1.0741
 Frc consts  --      5.6332                 5.6774                 5.6937
 IR Inten    --     19.2849                 0.7193                18.2390

                    100                    101                    102
                      A                      A                      A
 Frequencies --   3004.4849              3012.0519              3019.0150
 Red. masses --      1.0665                 1.0605                 1.0452
 Frc consts  --      5.6722                 5.6689                 5.6127
 IR Inten    --     11.4654                18.0735                14.2835

                    103                    104                    105
                      A                      A                      A
 Frequencies --   3022.2254              3023.8256              3027.0327
 Red. masses --      1.0592                 1.0580                 1.0554
 Frc consts  --      5.7003                 5.6997                 5.6978
 IR Inten    --      6.5308                63.6956                10.7252

                    106                    107                    108
                      A                      A                      A
 Frequencies --   3027.5090              3034.4519              3038.2908
 Red. masses --      1.0423                 1.0394                 1.0927
 Frc consts  --      5.6286                 5.6388                 5.9430
 IR Inten    --     60.2703                33.6232                15.3607

                    109                    110                    111
                      A                      A                      A
 Frequencies --   3048.3284              3051.5044              3059.4829
 Red. masses --      1.0989                 1.0964                 1.0885
 Frc consts  --      6.0163                 6.0153                 6.0030
 IR Inten    --      0.2616                33.9732                21.9783

                    112                    113                    114
                      A                      A                      A
 Frequencies --   3069.2066              3069.3597              3071.6818
 Red. masses --      1.1005                 1.0986                 1.1010
 Frc consts  --      6.1079                 6.0981                 6.1207
 IR Inten    --     53.0938                22.8108                36.3474

                    115                    116                    117
                      A                      A                      A
 Frequencies --   3084.3762              3094.0043              3095.1863
 Red. masses --      1.0940                 1.1020                 1.1010
 Frc consts  --      6.1317                 6.2156                 6.2146
 IR Inten    --     43.6426                58.0810                39.2850

                    118                    119                    120
                      A                      A                      A
 Frequencies --   3098.9960              3114.0388              3118.5835
 Red. masses --      1.1009                 1.0996                 1.0989
 Frc consts  --      6.2294                 6.2823                 6.2971
 IR Inten    --     39.9614                22.7871                37.0239

                    121                    122                    123
                      A                      A                      A
 Frequencies --   3139.1930              3218.2664              3814.9074
 Red. masses --      1.0609                 1.1145                 1.0661
 Frc consts  --      6.1596                 6.8008                 9.1413
 IR Inten    --      7.9608                16.4287                15.4524

 - Thermochemistry -
 -------------------
 Temperature   298.150 Kelvin.  Pressure   1.00000 Atm.
 Atom     1 has atomic number  6 and mass  12.00000

 Molecular mass:   212.21402 amu.
 Principal axes and moments of inertia in atomic units:
                           1         2         3
     Eigenvalues --  3365.165955107.398987702.62919
           X            0.99778   0.06644  -0.00425
           Y           -0.06643   0.99779   0.00084
           Z            0.00430  -0.00055   0.99999
 This molecule is an asymmetric top.
 Rotational symmetry number  1.
 Warning -- assumption of classical behavior for rotation
           may cause significant error
 Rotational temperatures (Kelvin)      0.02574     0.01696     0.01124
 Rotational constants (GHZ):           0.53630     0.35336     0.23430
 Zero-point vibrational energy    1041483.7 (Joules/Mol)
                                  248.92058 (Kcal/Mol)
 Warning -- explicit consideration of  29 degrees of freedom as
           vibrations may cause significant error
 Vibrational temperatures:     38.45    54.28    84.55    98.83   104.71
          (Kelvin)            116.33   138.31   160.26   167.71   180.85
                              230.13   268.18   279.91   288.89   323.38
                              352.10   383.82   419.97   440.15   473.46
                              510.17   545.03   566.75   598.64   650.47
                              698.04   730.31   805.22   818.66  1039.23
                             1052.01  1096.91  1120.80  1131.48  1200.79
                             1255.05  1265.59  1304.38  1329.57  1338.07
                             1385.53  1412.99  1436.58  1450.78  1467.34
                             1473.21  1499.28  1508.28  1523.88  1538.19
                             1543.80  1551.85  1577.53  1607.78  1631.72
                             1646.97  1690.17  1703.72  1749.65  1789.48
                             1812.11  1847.90  1856.66  1873.59  1886.90
                             1898.55  1903.96  1918.08  1922.85  1932.67
                             1960.05  1979.53  1989.45  1996.12  2012.13
                             2016.17  2030.09  2032.51  2034.14  2045.88
                             2088.25  2123.69  2130.20  2134.94  2140.30
                             2147.51  2149.02  2153.49  2158.04  2162.12
                             2164.80  2172.08  2177.06  2183.20  2470.30
                             4280.06  4286.03  4305.50  4315.56  4322.78
                             4333.67  4343.69  4348.31  4350.61  4355.22
                             4355.91  4365.90  4371.42  4385.86  4390.43
                             4401.91  4415.90  4416.12  4419.47  4437.73
                             4451.58  4453.28  4458.76  4480.41  4486.95
                             4516.60  4630.37  5488.80

 Zero-point correction=                           0.396680 (Hartree/Particle)
 Thermal correction to Energy=                    0.416305
 Thermal correction to Enthalpy=                  0.417249
 Thermal correction to Gibbs Free Energy=         0.347821
 Sum of electronic and zero-point Energies=           -625.211457
 Sum of electronic and thermal Energies=              -625.191832
 Sum of electronic and thermal Enthalpies=            -625.190888
 Sum of electronic and thermal Free Energies=         -625.260316

                     E (Thermal)             CV                S
                      KCal/Mol        Cal/Mol-Kelvin    Cal/Mol-Kelvin
 Total                  261.235             71.706            146.124
 Electronic               0.000              0.000              0.000
 Translational            0.889              2.981             41.961
 Rotational               0.889              2.981             33.248
 Vibrational            259.458             65.744             70.915
 Vibration     1          0.593              1.984              6.059
 Vibration     2          0.594              1.982              5.375
 Vibration     3          0.596              1.974              4.498
 Vibration     4          0.598              1.969              4.191
 Vibration     5          0.599              1.967              4.077
 Vibration     6          0.600              1.962              3.870
 Vibration     7          0.603              1.952              3.531
 Vibration     8          0.607              1.940              3.245
 Vibration     9          0.608              1.936              3.157
 Vibration    10          0.611              1.927              3.011
 Vibration    11          0.622              1.891              2.550
 Vibration    12          0.632              1.858              2.263
 Vibration    13          0.635              1.847              2.184
 Vibration    14          0.638              1.839              2.126
 Vibration    15          0.649              1.803              1.920
 Vibration    16          0.660              1.772              1.768
 Vibration    17          0.672              1.734              1.617
 Vibration    18          0.687              1.689              1.463
 Vibration    19          0.696              1.662              1.384
 Vibration    20          0.712              1.617              1.265
 Vibration    21          0.730              1.566              1.146
 Vibration    22          0.749              1.515              1.044
 Vibration    23          0.761              1.483              0.985
 Vibration    24          0.779              1.435              0.905
 Vibration    25          0.811              1.356              0.789
 Vibration    26          0.841              1.283              0.696
 Vibration    27          0.863              1.233              0.639
 Vibration    28          0.915              1.119              0.525
 Vibration    29          0.925              1.098              0.506

                           ! Non-Optimized Parameters !
 Normal termination of Gaussian 16 at Mon May 22 14:18:42 2023.
