 Gaussian 16, Revision A.03,
 Gaussian 16:  ES64L-G16RevA.03 25-Dec-2016

 -----------------------------
 # opt freq b3lyp/6-31g(2df,p)
 -----------------------------

 -------------------
 Title Card Required
 -------------------
 Symbolic Z-matrix:
 Charge =  0 Multiplicity = 1

 SCF Done:  E(RB3LYP) =  -511.026890241     A.U. after   13 cycles
 SCF Done:  E(RB3LYP) =  -511.046031987     A.U. after   11 cycles
 SCF Done:  E(RB3LYP) =  -511.060543470     A.U. after   11 cycles
 SCF Done:  E(RB3LYP) =  -511.065159774     A.U. after   11 cycles
 SCF Done:  E(RB3LYP) =  -511.068203445     A.U. after   11 cycles
 SCF Done:  E(RB3LYP) =  -511.068952590     A.U. after   10 cycles
 SCF Done:  E(RB3LYP) =  -511.070628890     A.U. after   10 cycles
 SCF Done:  E(RB3LYP) =  -511.071266923     A.U. after   10 cycles
 SCF Done:  E(RB3LYP) =  -511.071478253     A.U. after   10 cycles
 SCF Done:  E(RB3LYP) =  -511.071591377     A.U. after    9 cycles
 SCF Done:  E(RB3LYP) =  -511.075222134     A.U. after   10 cycles
 SCF Done:  E(RB3LYP) =  -511.075286592     A.U. after    9 cycles
 SCF Done:  E(RB3LYP) =  -511.075318590     A.U. after    8 cycles
 SCF Done:  E(RB3LYP) =  -511.075324734     A.U. after    8 cycles
 SCF Done:  E(RB3LYP) =  -511.075329867     A.U. after    8 cycles
 SCF Done:  E(RB3LYP) =  -511.075330167     A.U. after    6 cycles
 SCF Done:  E(RB3LYP) =  -511.075330293     A.U. after    6 cycles
 SCF Done:  E(RB3LYP) =  -511.075330337     A.U. after    6 cycles
 SCF Done:  E(RB3LYP) =  -511.075330342     A.U. after    5 cycles
 Optimization completed.
    -- Stationary point found.
 Normal termination of Gaussian 16 at Tue May 23 13:18:29 2023.

 ----------------------------------------------------------------------
 #N Geom=AllCheck Guess=TCheck SCRF=Check GenChk RB3LYP/6-31G(2df,p) Fr
 eq
 ----------------------------------------------------------------------

 Structure from the checkpoint file:  "CdCqCqCrCrCqCrCCqCCrCC.chk"
 -------------------
 Title Card Required
 -------------------
 Charge =  0 Multiplicity = 1

                         Standard orientation:
 ---------------------------------------------------------------------
 Center     Atomic      Atomic             Coordinates (Angstroms)
 Number     Number       Type             X           Y           Z
 ---------------------------------------------------------------------
      1          6           0       -2.235047    0.253814   -1.910823
      2          6           0       -1.831745    0.165782   -0.643348
      3          6           0       -2.692443   -0.504144    0.430028
      4          6           0       -3.940916    0.337074    0.758112
      5          6           0       -3.094009   -1.940758    0.052888
      6          6           0       -0.489720    0.743757   -0.216562
      7          6           0       -0.683218    1.904041    0.779793
      8          6           0        0.450362   -0.367636    0.337706
      9          6           0        1.945825   -0.289930   -0.047552
     10          6           0        2.686834    0.958471    0.497265
     11          6           0        2.734939    2.162979   -0.451148
     12          6           0        2.648893   -1.587847    0.411003
     13          6           0        4.002302   -1.849374   -0.257998
     14          1           0       -3.184558   -0.150025   -2.248514
     15          1           0       -1.627858    0.739909   -2.668261
     16          1           0       -2.093351   -0.568402    1.346246
     17          1           0       -4.594066    0.417423   -0.117013
     18          1           0       -3.673429    1.352192    1.065130
     19          1           0       -4.516923   -0.122586    1.569017
     20          1           0       -3.729468   -1.955342   -0.838378
     21          1           0       -3.655539   -2.410063    0.868212
     22          1           0       -2.216421   -2.559772   -0.155895
     23          1           0       -0.027427    1.151637   -1.122877
     24          1           0       -1.164809    1.558975    1.700975
     25          1           0       -1.310586    2.689411    0.346542
     26          1           0        0.271850    2.353610    1.062720
     27          1           0        0.083755   -1.334380   -0.025889
     28          1           0        0.370347   -0.408753    1.433008
     29          1           0        1.999307   -0.263520   -1.146836
     30          1           0        3.721258    0.683062    0.731709
     31          1           0        2.242301    1.251483    1.456841
     32          1           0        3.226009    1.894200   -1.392996
     33          1           0        3.301729    2.988307   -0.007269
     34          1           0        1.740366    2.543667   -0.698510
     35          1           0        1.990637   -2.441210    0.206186
     36          1           0        2.774168   -1.559488    1.502477
     37          1           0        3.891021   -1.938527   -1.344522
     38          1           0        4.446000   -2.780924    0.107570
     39          1           0        4.723347   -1.048263   -0.065853
 ---------------------------------------------------------------------

 SCF Done:  E(RB3LYP) =  -511.075330342     A.U. after    1 cycles

 The electronic state is 1-A.
 Alpha  occ. eigenvalues --  -10.18573 -10.18378 -10.18061 -10.17925 -10.17470
 Alpha  occ. eigenvalues --  -10.17451 -10.17315 -10.17021 -10.17012 -10.17009
 Alpha  occ. eigenvalues --  -10.16931 -10.16926 -10.15992  -0.82948  -0.80600
 Alpha  occ. eigenvalues --   -0.76670  -0.74318  -0.71927  -0.70110  -0.67676
 Alpha  occ. eigenvalues --   -0.64435  -0.60885  -0.60395  -0.58008  -0.55416
 Alpha  occ. eigenvalues --   -0.50449  -0.47344  -0.45640  -0.45076  -0.44064
 Alpha  occ. eigenvalues --   -0.42553  -0.42243  -0.41792  -0.40465  -0.40004
 Alpha  occ. eigenvalues --   -0.39458  -0.39052  -0.37861  -0.37192  -0.36711
 Alpha  occ. eigenvalues --   -0.36650  -0.35304  -0.34358  -0.33715  -0.33178
 Alpha  occ. eigenvalues --   -0.32694  -0.31880  -0.31509  -0.30824  -0.29928
 Alpha  occ. eigenvalues --   -0.28910  -0.23663
 Alpha virt. eigenvalues --    0.02769   0.07753   0.09345   0.09788   0.10415
 Alpha virt. eigenvalues --    0.11902   0.12230   0.12946   0.13370   0.14107
 Alpha virt. eigenvalues --    0.14988   0.15244   0.15895   0.16271   0.16940

 Mulliken charges:
               1
     1  C   -0.432462
     2  C    0.378003
     3  C   -0.038261
     4  C   -0.385709
     5  C   -0.388288
     6  C   -0.097706
     7  C   -0.403028
     8  C   -0.209741
     9  C    0.039958
    10  C   -0.174548
    11  C   -0.387120
    12  C   -0.181970
    13  C   -0.390942
    14  H    0.098180
    15  H    0.096750
    16  H    0.074253
    17  H    0.115569
    18  H    0.115449
    19  H    0.105841
    20  H    0.115394
    21  H    0.106496
    22  H    0.115104
    23  H    0.072049
    24  H    0.114913
    25  H    0.114704
    26  H    0.119905
    27  H    0.097071
    28  H    0.089222
    29  H    0.065394
    30  H    0.092662
    31  H    0.093248
    32  H    0.112670
    33  H    0.108528
    34  H    0.125134
    35  H    0.089475
    36  H    0.091607
    37  H    0.113430
    38  H    0.111694
    39  H    0.117074
 Sum of Mulliken charges =  -0.00000

 Dipole moment (field-independent basis, Debye):
    X=              0.3229    Y=             -0.0829    Z=              0.4340  Tot=              0.5473
 Quadrupole moment (field-independent basis, Debye-Ang):
   XX=            -86.5482   YY=            -87.2413   ZZ=            -86.0161
   XY=              0.8471   XZ=             -0.5261   YZ=             -0.1949

  Exact polarizability: 161.552   2.155 134.611   1.899  -1.713 130.910
 Approx polarizability: 197.534   4.196 185.561   7.452  -3.272 213.488

                      1                      2                      3
                      A                      A                      A
 Frequencies --     35.6265                44.6584                48.4149
 Red. masses --      2.8317                 2.8835                 2.7493
 Frc consts  --      0.0021                 0.0034                 0.0038
 IR Inten    --      0.0113                 0.0193                 0.0296

                      4                      5                      6
                      A                      A                      A
 Frequencies --     74.7438                95.5881               109.7373
 Red. masses --      2.9314                 2.4550                 1.8346
 Frc consts  --      0.0096                 0.0132                 0.0130
 IR Inten    --      0.0125                 0.0086                 0.0143

                      7                      8                      9
                      A                      A                      A
 Frequencies --    135.5148               163.4824               205.9280
 Red. masses --      2.2689                 3.0260                 1.6215
 Frc consts  --      0.0245                 0.0477                 0.0405
 IR Inten    --      0.0127                 0.0616                 0.0888

                     10                     11                     12
                      A                      A                      A
 Frequencies --    213.7061               222.9337               232.0036
 Red. masses --      1.3744                 1.2811                 1.2666
 Frc consts  --      0.0370                 0.0375                 0.0402
 IR Inten    --      0.0521                 0.0414                 0.0187

                     13                     14                     15
                      A                      A                      A
 Frequencies --    246.5834               254.2017               264.7183
 Red. masses --      1.0661                 1.3049                 1.7671
 Frc consts  --      0.0382                 0.0497                 0.0730
 IR Inten    --      0.1145                 0.0293                 0.0403

                     16                     17                     18
                      A                      A                      A
 Frequencies --    293.2698               295.0715               307.1326
 Red. masses --      2.5077                 2.0666                 2.4044
 Frc consts  --      0.1271                 0.1060                 0.1336
 IR Inten    --      0.0725                 0.2804                 0.5939

                     19                     20                     21
                      A                      A                      A
 Frequencies --    323.1791               365.4887               385.6385
 Red. masses --      2.2387                 2.3809                 2.2990
 Frc consts  --      0.1378                 0.1874                 0.2014
 IR Inten    --      0.0278                 0.3130                 0.1321

                     22                     23                     24
                      A                      A                      A
 Frequencies --    440.2977               465.3573               522.9426
 Red. masses --      2.3319                 2.3340                 2.4015
 Frc consts  --      0.2664                 0.2978                 0.3869
 IR Inten    --      0.7830                 0.0535                 1.3759

                     25                     26                     27
                      A                      A                      A
 Frequencies --    585.0596               684.1303               731.8694
 Red. masses --      2.5492                 3.7524                 2.6075
 Frc consts  --      0.5141                 1.0348                 0.8229
 IR Inten    --      0.3569                 5.5652                 0.5286

                     28                     29                     30
                      A                      A                      A
 Frequencies --    738.2502               758.0645               776.8546
 Red. masses --      1.0827                 1.3356                 1.2288
 Frc consts  --      0.3477                 0.4522                 0.4369
 IR Inten    --      0.1915                 4.0476                 4.3965

                     31                     32                     33
                      A                      A                      A
 Frequencies --    821.2411               856.6128               892.8591
 Red. masses --      1.7577                 2.1597                 1.8093
 Frc consts  --      0.6985                 0.9337                 0.8498
 IR Inten    --      0.7624                 0.9738                 1.8041

                     34                     35                     36
                      A                      A                      A
 Frequencies --    914.9903               928.7071               930.4195
 Red. masses --      1.6923                 1.4109                 1.3058
 Frc consts  --      0.8347                 0.7170                 0.6660
 IR Inten    --      0.2355                21.9806                 0.6126

                     37                     38                     39
                      A                      A                      A
 Frequencies --    931.3579               950.3536               964.0384
 Red. masses --      1.6106                 1.8186                 1.5002
 Frc consts  --      0.8232                 0.9677                 0.8214
 IR Inten    --      9.4767                 4.3440                 0.1056

                     40                     41                     42
                      A                      A                      A
 Frequencies --    998.5192              1022.2523              1034.3713
 Red. masses --      2.2041                 1.4823                 1.6736
 Frc consts  --      1.2948                 0.9126                 1.0550
 IR Inten    --      1.6405                 4.0626                 1.6626

                     43                     44                     45
                      A                      A                      A
 Frequencies --   1043.5650              1051.6218              1060.1633
 Red. masses --      1.9274                 1.6803                 2.1482
 Frc consts  --      1.2367                 1.0948                 1.4226
 IR Inten    --      0.4501                 0.3353                 1.0708

                     46                     47                     48
                      A                      A                      A
 Frequencies --   1100.3531              1121.2551              1128.1340
 Red. masses --      1.9035                 1.6141                 2.2411
 Frc consts  --      1.3579                 1.1956                 1.6805
 IR Inten    --      5.5921                 6.8314                 5.9064

                     49                     50                     51
                      A                      A                      A
 Frequencies --   1138.8715              1168.1602              1177.3358
 Red. masses --      2.2739                 2.0228                 2.1363
 Frc consts  --      1.7377                 1.6263                 1.7447
 IR Inten    --      1.1903                 1.2307                 1.3218

                     52                     53                     54
                      A                      A                      A
 Frequencies --   1186.6632              1243.1452              1255.1244
 Red. masses --      1.9558                 1.4257                 2.0936
 Frc consts  --      1.6227                 1.2981                 1.9432
 IR Inten    --      1.7452                 6.7904                 0.9234

                     55                     56                     57
                      A                      A                      A
 Frequencies --   1279.4031              1301.7405              1311.6974
 Red. masses --      1.2986                 1.1612                 1.1368
 Frc consts  --      1.2524                 1.1593                 1.1524
 IR Inten    --      1.7562                 0.6287                 1.1966

                     58                     59                     60
                      A                      A                      A
 Frequencies --   1328.9705              1341.0691              1347.1971
 Red. masses --      1.2202                 1.3094                 1.3041
 Frc consts  --      1.2697                 1.3875                 1.3945
 IR Inten    --      1.2343                 3.3250                 2.1600

                     61                     62                     63
                      A                      A                      A
 Frequencies --   1358.5960              1373.9810              1382.0134
 Red. masses --      1.3290                 1.3494                 1.4928
 Frc consts  --      1.4453                 1.5009                 1.6799
 IR Inten    --      2.3561                 2.3193                 0.9049

                     64                     65                     66
                      A                      A                      A
 Frequencies --   1385.2831              1395.5364              1399.5362
 Red. masses --      1.4551                 1.2613                 1.2768
 Frc consts  --      1.6452                 1.4473                 1.4735
 IR Inten    --      0.3646                 0.9122                 5.0805

                     67                     68                     69
                      A                      A                      A
 Frequencies --   1409.0311              1413.8001              1414.8857
 Red. masses --      1.2522                 1.2407                 1.2336
 Frc consts  --      1.4648                 1.4611                 1.4550
 IR Inten    --      3.9133                 3.1256                 1.1025

                     70                     71                     72
                      A                      A                      A
 Frequencies --   1417.8103              1460.4878              1475.9522
 Red. masses --      1.2332                 1.1671                 1.0772
 Frc consts  --      1.4605                 1.4668                 1.3826
 IR Inten    --      2.8203                 5.0752                 0.2917

                     73                     74                     75
                      A                      A                      A
 Frequencies --   1483.8803              1487.2985              1489.1043
 Red. masses --      1.0448                 1.0593                 1.0517
 Frc consts  --      1.3554                 1.3806                 1.3741
 IR Inten    --      0.0337                 0.6730                 1.7438

                     76                     77                     78
                      A                      A                      A
 Frequencies --   1491.4076              1494.9538              1499.2692
 Red. masses --      1.0653                 1.0493                 1.0449
 Frc consts  --      1.3961                 1.3816                 1.3838
 IR Inten    --      0.8665                 1.3699                 4.7837

                     79                     80                     81
                      A                      A                      A
 Frequencies --   1501.5471              1503.0687              1505.7866
 Red. masses --      1.0467                 1.0465                 1.0503
 Frc consts  --      1.3905                 1.3930                 1.4031
 IR Inten    --      4.5959                 1.4127                 6.0720

                     82                     83                     84
                      A                      A                      A
 Frequencies --   1507.1611              1508.3150              1514.8725
 Red. masses --      1.0647                 1.0599                 1.0662
 Frc consts  --      1.4249                 1.4206                 1.4416
 IR Inten    --      4.0533                 3.5279                 5.3052

                     85                     86                     87
                      A                      A                      A
 Frequencies --   1708.8549              2981.9668              3004.4620
 Red. masses --      5.1464                 1.0807                 1.0620
 Frc consts  --      8.8546                 5.6619                 5.6483
 IR Inten    --     14.4921                 5.2046                 1.1805

                     88                     89                     90
                      A                      A                      A
 Frequencies --   3012.1678              3026.3700              3027.8072
 Red. masses --      1.0627                 1.0623                 1.0516
 Frc consts  --      5.6811                 5.7323                 5.6799
 IR Inten    --     31.9044                21.4179                17.0168

                     91                     92                     93
                      A                      A                      A
 Frequencies --   3028.6307              3030.8347              3031.3600
 Red. masses --      1.0633                 1.0478                 1.0569
 Frc consts  --      5.7466                 5.6707                 5.7221
 IR Inten    --     30.0508                10.3176                33.0848

                     94                     95                     96
                      A                      A                      A
 Frequencies --   3032.5134              3034.3816              3037.5853
 Red. masses --      1.0377                 1.0453                 1.0420
 Frc consts  --      5.6223                 5.6708                 5.6647
 IR Inten    --     22.1346                40.4947                34.2768

                     97                     98                     99
                      A                      A                      A
 Frequencies --   3043.2344              3054.4742              3058.0453
 Red. masses --      1.0995                 1.0984                 1.0986
 Frc consts  --      5.9993                 6.0379                 6.0531
 IR Inten    --      2.3080                38.1921                41.3236

                    100                    101                    102
                      A                      A                      A
 Frequencies --   3094.2393              3094.2857              3096.9363
 Red. masses --      1.1011                 1.1011                 1.1011
 Frc consts  --      6.2115                 6.2117                 6.2222
 IR Inten    --      9.2404                23.2119                46.5371

                    103                    104                    105
                      A                      A                      A
 Frequencies --   3100.1433              3101.0633              3101.3085
 Red. masses --      1.1008                 1.1006                 1.1007
 Frc consts  --      6.2334                 6.2358                 6.2374
 IR Inten    --     29.6965                21.4964                76.6790

                    106                    107                    108
                      A                      A                      A
 Frequencies --   3106.8440              3110.6317              3114.9316
 Red. masses --      1.1014                 1.1008                 1.0992
 Frc consts  --      6.2639                 6.2758                 6.2839
 IR Inten    --     20.3378                48.0889                67.7498

                    109                    110                    111
                      A                      A                      A
 Frequencies --   3119.7396              3138.8856              3213.6430
 Red. masses --      1.0988                 1.0608                 1.1138
 Frc consts  --      6.3011                 6.1579                 6.7772
 IR Inten    --      5.4393                10.1274                19.5723

 - Thermochemistry -
 -------------------
 Temperature   298.150 Kelvin.  Pressure   1.00000 Atm.
 Atom     1 has atomic number  6 and mass  12.00000

 Molecular mass:   182.20345 amu.
 Principal axes and moments of inertia in atomic units:
                           1         2         3
     Eigenvalues --  1553.221084770.247245518.33040
           X            0.99998   0.00233  -0.00496
           Y           -0.00231   0.99999   0.00328
           Z            0.00497  -0.00326   0.99998
 This molecule is an asymmetric top.
 Rotational symmetry number  1.
 Warning -- assumption of classical behavior for rotation
           may cause significant error
 Rotational temperatures (Kelvin)      0.05576     0.01816     0.01570
 Rotational constants (GHZ):           1.16193     0.37833     0.32704
 Zero-point vibrational energy     952404.3 (Joules/Mol)
                                  227.63008 (Kcal/Mol)
 Warning -- explicit consideration of  25 degrees of freedom as
           vibrations may cause significant error
 Vibrational temperatures:     51.26    64.25    69.66   107.54   137.53
          (Kelvin)            157.89   194.98   235.21   296.28   307.48
                              320.75   333.80   354.78   365.74   380.87
                              421.95   424.54   441.90   464.98   525.86
                              554.85   633.49   669.55   752.40   841.77
                              984.31  1053.00  1062.18  1090.69  1117.72
                             1181.58  1232.47  1284.63  1316.47  1336.20
                             1338.67  1340.02  1367.35  1387.04  1436.65
                             1470.79  1488.23  1501.46  1513.05  1525.34
                             1583.16  1613.24  1623.13  1638.58  1680.72
                             1693.92  1707.34  1788.61  1805.84  1840.78
                             1872.91  1887.24  1912.09  1929.50  1938.32
                             1954.72  1976.85  1988.41  1993.11  2007.87
                             2013.62  2027.28  2034.14  2035.70  2039.91
                             2101.32  2123.57  2134.97  2139.89  2142.49
                             2145.80  2150.91  2157.11  2160.39  2162.58
                             2166.49  2168.47  2170.13  2179.56  2458.66
                             4290.39  4322.75  4333.84  4354.27  4356.34
                             4357.52  4360.70  4361.45  4363.11  4365.80
                             4370.41  4378.54  4394.71  4399.85  4451.92
                             4451.99  4455.80  4460.41  4461.74  4462.09
                             4470.06  4475.51  4481.69  4488.61  4516.16
                             4623.72

 Zero-point correction=                           0.362752 (Hartree/Particle)
 Thermal correction to Energy=                    0.380006
 Thermal correction to Enthalpy=                  0.380951
 Thermal correction to Gibbs Free Energy=         0.317986
 Sum of electronic and zero-point Energies=           -510.712579
 Sum of electronic and thermal Energies=              -510.695324
 Sum of electronic and thermal Enthalpies=            -510.694380
 Sum of electronic and thermal Free Energies=         -510.757344

                     E (Thermal)             CV                S
                      KCal/Mol        Cal/Mol-Kelvin    Cal/Mol-Kelvin
 Total                  238.458             64.082            132.520
 Electronic               0.000              0.000              0.000
 Translational            0.889              2.981             41.506
 Rotational               0.889              2.981             32.081
 Vibrational            236.680             58.120             58.933
 Vibration     1          0.594              1.982              5.489
 Vibration     2          0.595              1.980              5.041
 Vibration     3          0.595              1.978              4.881
 Vibration     4          0.599              1.966              4.024
 Vibration     5          0.603              1.952              3.542
 Vibration     6          0.606              1.941              3.274
 Vibration     7          0.613              1.918              2.866
 Vibration     8          0.623              1.887              2.509
 Vibration     9          0.640              1.831              2.079
 Vibration    10          0.644              1.820              2.012
 Vibration    11          0.649              1.806              1.935
 Vibration    12          0.653              1.792              1.863
 Vibration    13          0.661              1.768              1.755
 Vibration    14          0.665              1.756              1.701
 Vibration    15          0.671              1.738              1.630
 Vibration    16          0.688              1.686              1.455
 Vibration    17          0.689              1.683              1.445
 Vibration    18          0.697              1.660              1.378
 Vibration    19          0.708              1.629              1.294
 Vibration    20          0.739              1.543              1.099
 Vibration    21          0.754              1.501              1.017
 Vibration    22          0.800              1.382              0.826
 Vibration    23          0.823              1.327              0.751
 Vibration    24          0.878              1.199              0.603
 Vibration    25          0.942              1.064              0.476

 Optimization completed.
    -- Stationary point found.
 Normal termination of Gaussian 16 at Tue May 23 15:57:44 2023.
