 Gaussian 16, Revision A.03,
 Gaussian 16:  ES64L-G16RevA.03 25-Dec-2016

 -----------------------------
 # opt freq b3lyp/6-31g(2df,p)
 -----------------------------

 -------------------
 Title Card Required
 -------------------
 Symbolic Z-matrix:
 Charge =  0 Multiplicity = 1

 SCF Done:  E(RB3LYP) =  -779.420447578     A.U. after   13 cycles
 SCF Done:  E(RB3LYP) =  -779.440609312     A.U. after   11 cycles
 SCF Done:  E(RB3LYP) =  -779.449507504     A.U. after   11 cycles
 SCF Done:  E(RB3LYP) =  -779.450447214     A.U. after   11 cycles
 SCF Done:  E(RB3LYP) =  -779.453367928     A.U. after   11 cycles
 SCF Done:  E(RB3LYP) =  -779.455686298     A.U. after   10 cycles
 SCF Done:  E(RB3LYP) =  -779.458284445     A.U. after   11 cycles
 SCF Done:  E(RB3LYP) =  -779.460914840     A.U. after   13 cycles
 SCF Done:  E(RB3LYP) =  -779.462000973     A.U. after   11 cycles
 SCF Done:  E(RB3LYP) =  -779.462628337     A.U. after   10 cycles
 SCF Done:  E(RB3LYP) =  -779.475778133     A.U. after    8 cycles
 SCF Done:  E(RB3LYP) =  -779.475778221     A.U. after    7 cycles
 SCF Done:  E(RB3LYP) =  -779.475778926     A.U. after    7 cycles
 SCF Done:  E(RB3LYP) =  -779.475779094     A.U. after    6 cycles
 SCF Done:  E(RB3LYP) =  -779.475779249     A.U. after    7 cycles
 SCF Done:  E(RB3LYP) =  -779.475779257     A.U. after    7 cycles
 SCF Done:  E(RB3LYP) =  -779.475779224     A.U. after    7 cycles
 SCF Done:  E(RB3LYP) =  -779.475779178     A.U. after    7 cycles
 SCF Done:  E(RB3LYP) =  -779.475779143     A.U. after    7 cycles
 Optimization completed.
    -- Stationary point found.
 Normal termination of Gaussian 16 at Sat May 27 21:12:17 2023.

 ----------------------------------------------------------------------
 #N Geom=AllCheck Guess=TCheck SCRF=Check GenChk RB3LYP/6-31G(2df,p) Fr
 eq
 ----------------------------------------------------------------------

 Structure from the checkpoint file:  "CdCqCCCrCCCCqCCqOrOrCCqCrCC.chk"
 -------------------
 Title Card Required
 -------------------
 Charge =  0 Multiplicity = 1

                         Standard orientation:
 ---------------------------------------------------------------------
 Center     Atomic      Atomic             Coordinates (Angstroms)
 Number     Number       Type             X           Y           Z
 ---------------------------------------------------------------------
      1          6           0        4.104661   -1.169620   -1.718395
      2          6           0        3.583387   -0.200976   -0.964685
      3          6           0        4.185971    0.253874    0.347554
      4          6           0        5.446726   -0.471254    0.824495
      5          6           0        5.968903    0.075735    2.156251
      6          6           0        2.323876    0.524653   -1.390169
      7          6           0        1.066994    0.120312   -0.593688
      8          6           0       -0.183799    0.886002   -1.040040
      9          6           0       -1.476979    0.467989   -0.305980
     10          6           0       -2.577875    1.542074   -0.469021
     11          6           0       -2.519367    2.702300    0.523143
     12          8           0       -1.354808    3.441920    0.310907
     13          8           0       -3.607787    3.599445    0.352121
     14          6           0       -1.968596   -0.925879   -0.778836
     15          6           0       -2.484552   -1.878180    0.320095
     16          6           0       -3.687113   -1.313972    1.090693
     17          6           0       -2.795720   -3.259609   -0.289654
     18          6           0       -3.087894   -4.368834    0.726407
     19          1           0        4.996253   -1.716811   -1.435382
     20          1           0        3.648659   -1.452512   -2.662292
     21          1           0        3.418914    0.185499    1.132841
     22          1           0        4.400085    1.331121    0.266481
     23          1           0        6.229618   -0.383942    0.061355
     24          1           0        5.235446   -1.542762    0.926318
     25          1           0        6.219936    1.139536    2.077755
     26          1           0        6.869983   -0.455078    2.478919
     27          1           0        5.220032   -0.027867    2.949606
     28          1           0        2.140326    0.336137   -2.454235
     29          1           0        2.470183    1.609196   -1.285751
     30          1           0        1.228688    0.303117    0.476502
     31          1           0        0.922326   -0.962111   -0.700191
     32          1           0       -0.334857    0.748768   -2.120951
     33          1           0       -0.017718    1.955280   -0.883704
     34          1           0       -1.234814    0.395028    0.765435
     35          1           0       -3.564577    1.083194   -0.345311
     36          1           0       -2.554606    1.964950   -1.480527
     37          1           0       -2.541290    2.303567    1.557302
     38          1           0       -1.412766    4.226695    0.867527
     39          1           0       -4.398884    3.188180    0.715715
     40          1           0       -1.146718   -1.439041   -1.291046
     41          1           0       -2.750800   -0.794150   -1.540310
     42          1           0       -1.663000   -2.014287    1.040602
     43          1           0       -4.541331   -1.151416    0.421438
     44          1           0       -3.449434   -0.359862    1.570423
     45          1           0       -4.012285   -1.996432    1.881191
     46          1           0       -1.941283   -3.565408   -0.906779
     47          1           0       -3.645427   -3.161589   -0.979992
     48          1           0       -2.261887   -4.480006    1.438244
     49          1           0       -3.222022   -5.331717    0.223331
     50          1           0       -3.997725   -4.173880    1.302236
 ---------------------------------------------------------------------

 SCF Done:  E(RB3LYP) =  -779.475779143     A.U. after    1 cycles

 The electronic state is 1-A.
 Alpha  occ. eigenvalues --  -19.14188 -19.13942 -10.27686 -10.18241 -10.18067
 Alpha  occ. eigenvalues --  -10.18051 -10.17679 -10.17512 -10.17493 -10.17323
 Alpha  occ. eigenvalues --  -10.17272 -10.17185 -10.17110 -10.17053 -10.17026
 Alpha  occ. eigenvalues --  -10.16994 -10.16352 -10.15757  -1.05967  -0.99042
 Alpha  occ. eigenvalues --   -0.82253  -0.81199  -0.78916  -0.76651  -0.73713
 Alpha  occ. eigenvalues --   -0.72599  -0.69880  -0.67104  -0.66694  -0.63612
 Alpha  occ. eigenvalues --   -0.60938  -0.59491  -0.57988  -0.55729  -0.55418
 Alpha  occ. eigenvalues --   -0.52608  -0.52204  -0.50937  -0.46974  -0.46256
 Alpha  occ. eigenvalues --   -0.45691  -0.44997  -0.44535  -0.43838  -0.42483
 Alpha  occ. eigenvalues --   -0.41503  -0.40895  -0.40376  -0.39760  -0.38832
 Alpha  occ. eigenvalues --   -0.38307  -0.37621  -0.37031  -0.36783  -0.36357
 Alpha  occ. eigenvalues --   -0.36102  -0.35467  -0.34556  -0.34170  -0.33849
 Alpha  occ. eigenvalues --   -0.33131  -0.32823  -0.32372  -0.32014  -0.31662
 Alpha  occ. eigenvalues --   -0.31270  -0.30720  -0.30550  -0.29314  -0.28935
 Alpha  occ. eigenvalues --   -0.26091  -0.23540
 Alpha virt. eigenvalues --    0.03337   0.06311   0.08530   0.09230   0.09559
 Alpha virt. eigenvalues --    0.10148   0.10652   0.11814   0.11981   0.12320
 Alpha virt. eigenvalues --    0.13176   0.13634   0.14154   0.14794   0.14821

 Mulliken charges:
               1
     1  C   -0.410960
     2  C    0.348357
     3  C   -0.249279
     4  C   -0.174904
     5  C   -0.383492
     6  C   -0.285502
     7  C   -0.186098
     8  C   -0.207263
     9  C    0.011824
    10  C   -0.229519
    11  C    0.190383
    12  O   -0.388315
    13  O   -0.427037
    14  C   -0.214972
    15  C    0.047764
    16  C   -0.390716
    17  C   -0.166494
    18  C   -0.392399
    19  H    0.100298
    20  H    0.092412
    21  H    0.104855
    22  H    0.102473
    23  H    0.102045
    24  H    0.101307
    25  H    0.113145
    26  H    0.110250
    27  H    0.112314
    28  H    0.096091
    29  H    0.095991
    30  H    0.093965
    31  H    0.097685
    32  H    0.084187
    33  H    0.124703
    34  H    0.062654
    35  H    0.083986
    36  H    0.109607
    37  H    0.049475
    38  H    0.287775
    39  H    0.283744
    40  H    0.091661
    41  H    0.086353
    42  H    0.068273
    43  H    0.108598
    44  H    0.109315
    45  H    0.112391
    46  H    0.092177
    47  H    0.090434
    48  H    0.112618
    49  H    0.111667
    50  H    0.116173
 Sum of Mulliken charges =  -0.00000

 Dipole moment (field-independent basis, Debye):
    X=             -1.3311    Y=             -0.3217    Z=              1.7657  Tot=              2.2345
 Quadrupole moment (field-independent basis, Debye-Ang):
   XX=           -110.9457   YY=           -119.0049   ZZ=           -114.9469
   XY=              1.3855   XZ=             -2.0370   YZ=              5.8247

  Exact polarizability: 203.473  -6.025 188.172  -1.886   8.210 163.701
 Approx polarizability: 255.669 -11.070 258.518  -4.398  15.280 250.145

                      1                      2                      3
                      A                      A                      A
 Frequencies --     11.2204                24.2932                29.3389
 Red. masses --      3.4745                 3.3931                 3.4626
 Frc consts  --      0.0003                 0.0012                 0.0018
 IR Inten    --      0.0573                 0.5471                 0.3983

                      4                      5                      6
                      A                      A                      A
 Frequencies --     33.1794                48.6071                55.3841
 Red. masses --      3.7602                 2.4317                 2.7250
 Frc consts  --      0.0024                 0.0034                 0.0049
 IR Inten    --      0.8775                 0.2605                 0.5924

                      7                      8                      9
                      A                      A                      A
 Frequencies --     63.5204                74.3332                87.7648
 Red. masses --      3.6550                 2.6310                 2.2612
 Frc consts  --      0.0087                 0.0086                 0.0103
 IR Inten    --      1.5264                 0.3256                 0.0143

                     10                     11                     12
                      A                      A                      A
 Frequencies --    102.8790               120.2064               135.9617
 Red. masses --      2.2128                 2.1503                 2.4497
 Frc consts  --      0.0138                 0.0183                 0.0267
 IR Inten    --      0.2600                 0.0628                 0.0841

                     13                     14                     15
                      A                      A                      A
 Frequencies --    165.2893               188.9795               200.2878
 Red. masses --      3.1163                 2.3182                 2.1177
 Frc consts  --      0.0502                 0.0488                 0.0501
 IR Inten    --      0.4401                10.3468                20.4184

                     16                     17                     18
                      A                      A                      A
 Frequencies --    202.3002               216.3920               226.7662
 Red. masses --      1.7901                 1.6707                 1.6140
 Frc consts  --      0.0432                 0.0461                 0.0489
 IR Inten    --     29.3576                15.8357                 4.7252

                     19                     20                     21
                      A                      A                      A
 Frequencies --    244.8437               251.4312               255.4977
 Red. masses --      1.1049                 1.7547                 2.3473
 Frc consts  --      0.0390                 0.0654                 0.0903
 IR Inten    --      0.0186                 0.7919                 0.5440

                     22                     23                     24
                      A                      A                      A
 Frequencies --    296.3611               312.2040               322.5568
 Red. masses --      1.6933                 1.7339                 1.4523
 Frc consts  --      0.0876                 0.0996                 0.0890
 IR Inten    --      2.4602                30.8504                65.0402

                     25                     26                     27
                      A                      A                      A
 Frequencies --    330.5772               349.2392               388.3835
 Red. masses --      2.8987                 2.9177                 2.7370
 Frc consts  --      0.1866                 0.2097                 0.2432
 IR Inten    --     18.8123                 0.2366                 0.3983

                     28                     29                     30
                      A                      A                      A
 Frequencies --    406.0188               413.5680               434.8930
 Red. masses --      1.8738                 2.3705                 2.5731
 Frc consts  --      0.1820                 0.2389                 0.2867
 IR Inten    --      4.6501                 1.9767                 6.5748

                     31                     32                     33
                      A                      A                      A
 Frequencies --    483.3021               497.9898               523.1250
 Red. masses --      2.5219                 2.1153                 2.6255
 Frc consts  --      0.3471                 0.3091                 0.4233
 IR Inten    --      2.4144                 2.8274                 7.2792

                     34                     35                     36
                      A                      A                      A
 Frequencies --    530.2241               568.9120               597.9950
 Red. masses --      2.3909                 2.4784                 4.1452
 Frc consts  --      0.3960                 0.4726                 0.8734
 IR Inten    --      4.8799                 4.4300                 7.3157

                     37                     38                     39
                      A                      A                      A
 Frequencies --    723.6831               741.6721               758.8939
 Red. masses --      1.2191                 1.1274                 1.0962
 Frc consts  --      0.3762                 0.3654                 0.3720
 IR Inten    --      0.4968                 1.7566                 2.0937

                     40                     41                     42
                      A                      A                      A
 Frequencies --    772.4597               812.8571               830.1471
 Red. masses --      1.3124                 1.8224                 1.8587
 Frc consts  --      0.4614                 0.7095                 0.7547
 IR Inten    --      1.4188                 0.1677                 0.3306

                     43                     44                     45
                      A                      A                      A
 Frequencies --    847.2186               866.3699               879.6553
 Red. masses --      2.3579                 1.8102                 1.8280
 Frc consts  --      0.9972                 0.8005                 0.8334
 IR Inten    --      2.4489                 2.5045                 2.3617

                     46                     47                     48
                      A                      A                      A
 Frequencies --    889.4266               912.3088               922.3936
 Red. masses --      1.2134                 1.8773                 1.9383
 Frc consts  --      0.5655                 0.9206                 0.9716
 IR Inten    --      3.5320                 2.8120                 5.0019

                     49                     50                     51
                      A                      A                      A
 Frequencies --    929.7726               951.8257               972.6023
 Red. masses --      1.4566                 2.5391                 1.2407
 Frc consts  --      0.7419                 1.3553                 0.6915
 IR Inten    --     24.7632                 2.2439                 2.0219

                     52                     53                     54
                      A                      A                      A
 Frequencies --    983.2954               991.0627              1011.4424
 Red. masses --      1.9309                 1.9572                 2.0668
 Frc consts  --      1.1000                 1.1327                 1.2458
 IR Inten    --      1.7867                12.7435                12.1899

                     55                     56                     57
                      A                      A                      A
 Frequencies --   1017.2170              1035.6640              1044.5372
 Red. masses --      2.2870                 3.0330                 2.5267
 Frc consts  --      1.3943                 1.9167                 1.6243
 IR Inten    --      3.1088                45.4356                49.7405

                     58                     59                     60
                      A                      A                      A
 Frequencies --   1049.7482              1054.0593              1059.9031
 Red. masses --      2.5060                 2.4814                 2.5032
 Frc consts  --      1.6270                 1.6244                 1.6568
 IR Inten    --      0.9231                 0.2832                 1.1075

                     61                     62                     63
                      A                      A                      A
 Frequencies --   1080.3723              1082.8098              1103.0922
 Red. masses --      1.6967                 3.0818                 1.8352
 Frc consts  --      1.1668                 2.1289                 1.3157
 IR Inten    --      0.6276                79.1767                64.8478

                     64                     65                     66
                      A                      A                      A
 Frequencies --   1119.9168              1128.7558              1143.3650
 Red. masses --      1.9219                 1.6022                 1.7813
 Frc consts  --      1.4202                 1.2027                 1.3720
 IR Inten    --      3.4503                 3.3494                 0.1286

                     67                     68                     69
                      A                      A                      A
 Frequencies --   1157.5889              1174.1098              1183.7138
 Red. masses --      2.0546                 1.5493                 1.8341
 Frc consts  --      1.6221                 1.2583                 1.5141
 IR Inten    --     14.8629                11.7818                 9.7046

                     70                     71                     72
                      A                      A                      A
 Frequencies --   1205.4532              1240.5044              1250.5914
 Red. masses --      1.4926                 1.4806                 1.5402
 Frc consts  --      1.2779                 1.3424                 1.4193
 IR Inten    --      9.1891                10.8080                 4.8760

                     73                     74                     75
                      A                      A                      A
 Frequencies --   1264.6515              1271.1165              1280.9660
 Red. masses --      1.3321                 1.3055                 1.2141
 Frc consts  --      1.2553                 1.2428                 1.1737
 IR Inten    --      7.8177                18.1502                65.4603

                     76                     77                     78
                      A                      A                      A
 Frequencies --   1292.7594              1295.7767              1304.4524
 Red. masses --      1.1978                 1.2717                 1.2696
 Frc consts  --      1.1794                 1.2580                 1.2728
 IR Inten    --      0.7097                11.6560                26.7594

                     79                     80                     81
                      A                      A                      A
 Frequencies --   1314.2738              1322.2071              1324.6361
 Red. masses --      1.1735                 1.1784                 1.0896
 Frc consts  --      1.1943                 1.2137                 1.1264
 IR Inten    --      3.9050                 7.7823                 2.0628

                     82                     83                     84
                      A                      A                      A
 Frequencies --   1330.3835              1332.4623              1346.3436
 Red. masses --      1.2511                 1.3099                 1.2855
 Frc consts  --      1.3046                 1.3703                 1.3729
 IR Inten    --      2.5763                 2.0416                 0.6479

                     85                     86                     87
                      A                      A                      A
 Frequencies --   1359.4483              1374.2579              1381.4308
 Red. masses --      1.3255                 1.4085                 1.4281
 Frc consts  --      1.4433                 1.5672                 1.6057
 IR Inten    --      0.0648                 1.8632                 3.7748

                     88                     89                     90
                      A                      A                      A
 Frequencies --   1381.6849              1387.3202              1398.7553
 Red. masses --      1.4636                 1.3264                 1.4643
 Frc consts  --      1.6462                 1.5041                 1.6880
 IR Inten    --      0.2687                 2.4445                 3.0143

                     91                     92                     93
                      A                      A                      A
 Frequencies --   1403.0331              1412.1614              1412.9127
 Red. masses --      1.7294                 1.2983                 1.2405
 Frc consts  --      2.0058                 1.5255                 1.4591
 IR Inten    --      3.2013                 1.5522                 1.1678

                     94                     95                     96
                      A                      A                      A
 Frequencies --   1413.6867              1425.5848              1453.5850
 Red. masses --      1.2443                 1.3547                 1.1615
 Frc consts  --      1.4651                 1.6221                 1.4460
 IR Inten    --      2.7193                20.7537                 1.2479

                     97                     98                     99
                      A                      A                      A
 Frequencies --   1465.7799              1470.2287              1474.0105
 Red. masses --      1.5784                 1.0786                 1.0897
 Frc consts  --      1.9980                 1.3736                 1.3949
 IR Inten    --     50.7510                 1.1489                 5.7784

                    100                    101                    102
                      A                      A                      A
 Frequencies --   1480.0489              1484.7379              1490.2476
 Red. masses --      1.0774                 1.0885                 1.0915
 Frc consts  --      1.3905                 1.4138                 1.4282
 IR Inten    --      1.9476                 3.1809                 4.3193

                    103                    104                    105
                      A                      A                      A
 Frequencies --   1491.7107              1494.5829              1497.6351
 Red. masses --      1.0702                 1.0532                 1.0473
 Frc consts  --      1.4030                 1.3861                 1.3839
 IR Inten    --      0.5608                 0.9317                 4.9048

                    106                    107                    108
                      A                      A                      A
 Frequencies --   1500.0215              1500.1020              1507.2980
 Red. masses --      1.0446                 1.0559                 1.0811
 Frc consts  --      1.3848                 1.3999                 1.4472
 IR Inten    --      2.7687                 4.6633                 6.3507

                    109                    110                    111
                      A                      A                      A
 Frequencies --   1508.9531              1510.4330              1514.5831
 Red. masses --      1.0871                 1.0853                 1.0447
 Frc consts  --      1.4584                 1.4589                 1.4119
 IR Inten    --      3.6359                 1.6883                 3.9171

                    112                    113                    114
                      A                      A                      A
 Frequencies --   1715.9685              2891.6491              2978.0147
 Red. masses --      5.2483                 1.0816                 1.0809
 Frc consts  --      9.1052                 5.3285                 5.6480
 IR Inten    --     19.4529                82.5326                 4.3955

                    115                    116                    117
                      A                      A                      A
 Frequencies --   2981.4277              2988.2710              3001.3605
 Red. masses --      1.0796                 1.0631                 1.0667
 Frc consts  --      5.6540                 5.5934                 5.6613
 IR Inten    --     10.4849                15.1133                 2.5403

                    118                    119                    120
                      A                      A                      A
 Frequencies --   3004.8254              3006.0307              3011.1911
 Red. masses --      1.0647                 1.0634                 1.0776
 Frc consts  --      5.6638                 5.6616                 5.7571
 IR Inten    --      7.8431                12.9967                20.6153

                    121                    122                    123
                      A                      A                      A
 Frequencies --   3012.2387              3021.9615              3025.5170
 Red. masses --      1.0746                 1.0649                 1.0416
 Frc consts  --      5.7451                 5.7298                 5.6175
 IR Inten    --     49.1399                55.7827                27.3523

                    124                    125                    126
                      A                      A                      A
 Frequencies --   3025.6280              3028.2282              3031.5271
 Red. masses --      1.0536                 1.0406                 1.0382
 Frc consts  --      5.6825                 5.6221                 5.6216
 IR Inten    --      5.2379                44.4656                27.0428

                    127                    128                    129
                      A                      A                      A
 Frequencies --   3039.0215              3041.5592              3044.8084
 Red. masses --      1.0610                 1.0975                 1.0959
 Frc consts  --      5.7733                 5.9822                 5.9862
 IR Inten    --     30.1255                 2.1754                 9.2598

                    130                    131                    132
                      A                      A                      A
 Frequencies --   3055.4983              3059.7566              3067.0800
 Red. masses --      1.0961                 1.1023                 1.1002
 Frc consts  --      6.0295                 6.0801                 6.0979
 IR Inten    --     51.6480                12.8237                49.3255

                    133                    134                    135
                      A                      A                      A
 Frequencies --   3080.8328              3092.9296              3094.8452
 Red. masses --      1.1027                 1.0964                 1.1024
 Frc consts  --      6.1668                 6.1799                 6.2212
 IR Inten    --     35.2277                28.4266                56.5112

                    136                    137                    138
                      A                      A                      A
 Frequencies --   3095.9486              3099.8574              3100.5163
 Red. masses --      1.1006                 1.0930                 1.1006
 Frc consts  --      6.2156                 6.1879                 6.2336
 IR Inten    --     38.3157                21.4936                34.5904

                    139                    140                    141
                      A                      A                      A
 Frequencies --   3101.6111              3108.9746              3147.8081
 Red. masses --      1.1010                 1.0995                 1.0619
 Frc consts  --      6.2403                 6.2615                 6.1995
 IR Inten    --     53.6511                33.4281                 8.3825

                    142                    143                    144
                      A                      A                      A
 Frequencies --   3227.5433              3805.1917              3820.4758
 Red. masses --      1.1125                 1.0654                 1.0657
 Frc consts  --      6.8281                 9.0891                 9.1643
 IR Inten    --     17.7344                30.2489                21.2482

 - Thermochemistry -
 -------------------
 Temperature   298.150 Kelvin.  Pressure   1.00000 Atm.
 Atom     1 has atomic number  6 and mass  12.00000

 Molecular mass:   256.24023 amu.
 Principal axes and moments of inertia in atomic units:
                           1         2         3
     Eigenvalues --  4991.69887********************
           X            0.99971   0.02346   0.00473
           Y           -0.02344   0.99972  -0.00320
           Z           -0.00480   0.00309   0.99998
 This molecule is an asymmetric top.
 Rotational symmetry number  1.
 Warning -- assumption of classical behavior for rotation
           may cause significant error
 Rotational temperatures (Kelvin)      0.01735     0.00802     0.00622
 Rotational constants (GHZ):           0.36155     0.16706     0.12957
 Zero-point vibrational energy    1201078.7 (Joules/Mol)
                                  287.06470 (Kcal/Mol)
 Warning -- explicit consideration of  36 degrees of freedom as
           vibrations may cause significant error
 Vibrational temperatures:     16.14    34.95    42.21    47.74    69.93
          (Kelvin)             79.69    91.39   106.95   126.27   148.02
                              172.95   195.62   237.81   271.90   288.17
                              291.06   311.34   326.27   352.28   361.75
                              367.60   426.40   449.19   464.09   475.63
                              502.48   558.80   584.17   595.03   625.71
                              695.36   716.50   752.66   762.87   818.54
                              860.38  1041.22  1067.10  1091.88  1111.40
                             1169.52  1194.40  1218.96  1246.51  1265.63
                             1279.69  1312.61  1327.12  1337.74  1369.46
                             1399.36  1414.74  1425.92  1455.24  1463.55
                             1490.09  1502.86  1510.35  1516.56  1524.96
                             1554.41  1557.92  1587.10  1611.31  1624.03
                             1645.05  1665.51  1689.28  1703.10  1734.38
                             1784.81  1799.32  1819.55  1828.85  1843.02
                             1859.99  1864.33  1876.82  1890.95  1902.36
                             1905.86  1914.13  1917.12  1937.09  1955.94
                             1977.25  1987.57  1987.94  1996.04  2012.50
                             2018.65  2031.79  2032.87  2033.98  2051.10
                             2091.38  2108.93  2115.33  2120.77  2129.46
                             2136.21  2144.13  2146.24  2150.37  2154.76
                             2158.20  2158.31  2168.67  2171.05  2173.18
                             2179.15  2468.90  4160.44  4284.70  4289.61
                             4299.46  4318.29  4323.27  4325.01  4332.43
                             4333.94  4347.93  4353.04  4353.20  4356.94
                             4361.69  4372.47  4376.13  4380.80  4396.18
                             4402.31  4412.84  4432.63  4450.04  4452.79
                             4454.38  4460.00  4460.95  4462.53  4473.12
                             4528.99  4643.71  5474.82  5496.81

 Zero-point correction=                           0.457467 (Hartree/Particle)
 Thermal correction to Energy=                    0.481009
 Thermal correction to Enthalpy=                  0.481953
 Thermal correction to Gibbs Free Energy=         0.400965
 Sum of electronic and zero-point Energies=           -779.018312
 Sum of electronic and thermal Energies=              -778.994770
 Sum of electronic and thermal Enthalpies=            -778.993826
 Sum of electronic and thermal Free Energies=         -779.074814

                     E (Thermal)             CV                S
                      KCal/Mol        Cal/Mol-Kelvin    Cal/Mol-Kelvin
 Total                  301.838             85.682            170.453
 Electronic               0.000              0.000              0.000
 Translational            0.889              2.981             42.523
 Rotational               0.889              2.981             34.973
 Vibrational            300.060             79.720             92.957
 Vibration     1          0.593              1.987              7.782
 Vibration     2          0.593              1.985              6.248
 Vibration     3          0.593              1.984              5.874
 Vibration     4          0.594              1.983              5.630
 Vibration     5          0.595              1.978              4.873
 Vibration     6          0.596              1.975              4.615
 Vibration     7          0.597              1.972              4.345
 Vibration     8          0.599              1.966              4.035
 Vibration     9          0.601              1.958              3.709
 Vibration    10          0.605              1.947              3.399
 Vibration    11          0.609              1.932              3.097
 Vibration    12          0.614              1.917              2.860
 Vibration    13          0.624              1.885              2.488
 Vibration    14          0.633              1.855              2.238
 Vibration    15          0.638              1.839              2.130
 Vibration    16          0.639              1.837              2.112
 Vibration    17          0.645              1.816              1.989
 Vibration    18          0.650              1.800              1.904
 Vibration    19          0.660              1.771              1.767
 Vibration    20          0.663              1.760              1.721
 Vibration    21          0.666              1.754              1.692
 Vibration    22          0.690              1.681              1.437
 Vibration    23          0.701              1.650              1.351
 Vibration    24          0.708              1.630              1.297
 Vibration    25          0.713              1.614              1.257
 Vibration    26          0.727              1.577              1.170
 Vibration    27          0.757              1.495              1.006
 Vibration    28          0.771              1.457              0.941
 Vibration    29          0.777              1.441              0.914
 Vibration    30          0.795              1.394              0.843
 Vibration    31          0.839              1.287              0.701
 Vibration    32          0.853              1.254              0.663
 Vibration    33          0.878              1.199              0.603
 Vibration    34          0.885              1.183              0.587
 Vibration    35          0.925              1.098              0.506
 Vibration    36          0.956              1.036              0.453

 Optimization completed.
    -- Stationary point found.
 Normal termination of Gaussian 16 at Sun May 28 03:18:50 2023.
