 Gaussian 16, Revision A.03,
 Gaussian 16:  ES64L-G16RevA.03 25-Dec-2016

 -----------------------------
 # opt freq b3lyp/6-31g(2df,p)
 -----------------------------

 -------------------
 Title Card Required
 -------------------
 Symbolic Z-matrix:
 Charge =  0 Multiplicity = 1

 SCF Done:  E(RB3LYP) =  -680.924029653     A.U. after   12 cycles
 SCF Done:  E(RB3LYP) =  -680.933022522     A.U. after   11 cycles
 SCF Done:  E(RB3LYP) =  -680.935584490     A.U. after   11 cycles
 SCF Done:  E(RB3LYP) =  -680.938324882     A.U. after   10 cycles
 SCF Done:  E(RB3LYP) =  -680.940020034     A.U. after   10 cycles
 SCF Done:  E(RB3LYP) =  -680.941201503     A.U. after   11 cycles
 SCF Done:  E(RB3LYP) =  -680.942582263     A.U. after   11 cycles
 SCF Done:  E(RB3LYP) =  -680.943794869     A.U. after   11 cycles
 SCF Done:  E(RB3LYP) =  -680.945901011     A.U. after   10 cycles
 SCF Done:  E(RB3LYP) =  -680.949418327     A.U. after   11 cycles
 SCF Done:  E(RB3LYP) =  -680.953218690     A.U. after    9 cycles
 SCF Done:  E(RB3LYP) =  -680.953223871     A.U. after    9 cycles
 SCF Done:  E(RB3LYP) =  -680.953225104     A.U. after    8 cycles
 SCF Done:  E(RB3LYP) =  -680.953225842     A.U. after    7 cycles
 SCF Done:  E(RB3LYP) =  -680.953226808     A.U. after    7 cycles
 SCF Done:  E(RB3LYP) =  -680.953228901     A.U. after    8 cycles
 SCF Done:  E(RB3LYP) =  -680.953230954     A.U. after    8 cycles
 SCF Done:  E(RB3LYP) =  -680.953231664     A.U. after    7 cycles
 SCF Done:  E(RB3LYP) =  -680.953231694     A.U. after    6 cycles
 Optimization completed.
    -- Stationary point found.
 Normal termination of Gaussian 16 at Thu May 25 01:30:29 2023.

 ----------------------------------------------------------------------
 #N Geom=AllCheck Guess=TCheck SCRF=Check GenChk RB3LYP/6-31G(2df,p) Fr
 eq
 ----------------------------------------------------------------------

 Structure from the checkpoint file:  "CdCqCCrCCCNCqCrCqCrCqCrCO.chk"
 -------------------
 Title Card Required
 -------------------
 Charge =  0 Multiplicity = 1

                         Standard orientation:
 ---------------------------------------------------------------------
 Center     Atomic      Atomic             Coordinates (Angstroms)
 Number     Number       Type             X           Y           Z
 ---------------------------------------------------------------------
      1          6           0        5.207181    0.540203   -1.747734
      2          6           0        4.696299    0.024022   -0.629810
      3          6           0        5.326337    0.199903    0.735530
      4          6           0        6.610767    1.027100    0.794799
      5          6           0        3.423438   -0.796254   -0.661986
      6          6           0        2.198441   -0.070030   -0.074932
      7          6           0        0.922852   -0.909966   -0.151567
      8          7           0       -0.197901   -0.202562    0.463894
      9          6           0       -1.514962   -0.812354    0.232304
     10          6           0       -1.579284   -2.177414    0.932045
     11          6           0       -2.692715    0.112657    0.720837
     12          6           0       -2.228315    1.499546    1.203848
     13          6           0       -3.806917    0.205710   -0.359506
     14          6           0       -4.409678   -1.160252   -0.723169
     15          6           0       -4.944411    1.164075    0.045657
     16          8           0       -5.983334    1.241718   -0.923385
     17          1           0        6.109954    1.139724   -1.754944
     18          1           0        4.732767    0.377180   -2.710582
     19          1           0        5.518420   -0.801162    1.149883
     20          1           0        4.582985    0.641314    1.413751
     21          1           0        7.400141    0.585839    0.178192
     22          1           0        6.981972    1.083333    1.822413
     23          1           0        6.444374    2.050436    0.443742
     24          1           0        3.576135   -1.731780   -0.104780
     25          1           0        3.204164   -1.081332   -1.697246
     26          1           0        2.052176    0.872750   -0.619932
     27          1           0        2.372082    0.198920    0.972801
     28          1           0        1.086956   -1.853587    0.381502
     29          1           0        0.722370   -1.181424   -1.207492
     30          1           0       -0.207040    0.738657    0.084956
     31          1           0       -1.653608   -0.986531   -0.851670
     32          1           0       -1.349397   -2.058385    1.996297
     33          1           0       -0.868945   -2.892274    0.507488
     34          1           0       -2.576854   -2.613119    0.841105
     35          1           0       -3.137619   -0.381770    1.595647
     36          1           0       -1.938601    2.154146    0.371185
     37          1           0       -1.371589    1.404332    1.873035
     38          1           0       -3.022731    2.010741    1.752420
     39          1           0       -3.341498    0.628489   -1.266638
     40          1           0       -4.820167   -1.650509    0.168082
     41          1           0       -3.676068   -1.834523   -1.170997
     42          1           0       -5.230709   -1.027003   -1.430587
     43          1           0       -4.552946    2.166401    0.258348
     44          1           0       -5.426280    0.799763    0.961556
     45          1           0       -5.612669    1.643887   -1.715613
 ---------------------------------------------------------------------

 SCF Done:  E(RB3LYP) =  -680.953231694     A.U. after    1 cycles

 The electronic state is 1-A.
 Alpha  occ. eigenvalues --  -19.13246 -14.30620 -10.22032 -10.20646 -10.19987
 Alpha  occ. eigenvalues --  -10.18635 -10.18622 -10.18511 -10.18362 -10.18147
 Alpha  occ. eigenvalues --  -10.18008 -10.17303 -10.17073 -10.16684 -10.16533
 Alpha  occ. eigenvalues --  -10.16310  -1.01245  -0.90146  -0.81876  -0.80852
 Alpha  occ. eigenvalues --   -0.76639  -0.73825  -0.72170  -0.71419  -0.67001
 Alpha  occ. eigenvalues --   -0.66035  -0.63329  -0.62500  -0.59195  -0.57648
 Alpha  occ. eigenvalues --   -0.55231  -0.51334  -0.49414  -0.48819  -0.47080
 Alpha  occ. eigenvalues --   -0.46658  -0.45689  -0.44614  -0.43892  -0.43436
 Alpha  occ. eigenvalues --   -0.42686  -0.41465  -0.40646  -0.39965  -0.39481
 Alpha  occ. eigenvalues --   -0.38363  -0.38187  -0.37112  -0.36525  -0.36162
 Alpha  occ. eigenvalues --   -0.35575  -0.35407  -0.34894  -0.34562  -0.34065
 Alpha  occ. eigenvalues --   -0.32656  -0.32579  -0.31656  -0.31491  -0.30984
 Alpha  occ. eigenvalues --   -0.30295  -0.26014  -0.24174  -0.21764
 Alpha virt. eigenvalues --    0.02827   0.07435   0.08098   0.09085   0.09988
 Alpha virt. eigenvalues --    0.10328   0.11258   0.11879   0.12463   0.12995
 Alpha virt. eigenvalues --    0.14282   0.14349   0.14524   0.15019   0.15837

 Mulliken charges:
               1
     1  C   -0.412986
     2  C    0.366144
     3  C   -0.251553
     4  C   -0.391231
     5  C   -0.284589
     6  C   -0.199272
     7  C   -0.125641
     8  N   -0.309170
     9  C    0.057973
    10  C   -0.388870
    11  C    0.003021
    12  C   -0.433445
    13  C    0.004234
    14  C   -0.393375
    15  C   -0.079482
    16  O   -0.417070
    17  H    0.102935
    18  H    0.093968
    19  H    0.105624
    20  H    0.110435
    21  H    0.121530
    22  H    0.110571
    23  H    0.121252
    24  H    0.096589
    25  H    0.098452
    26  H    0.094200
    27  H    0.110226
    28  H    0.104616
    29  H    0.070859
    30  H    0.210984
    31  H    0.050125
    32  H    0.118587
    33  H    0.111684
    34  H    0.117313
    35  H    0.072832
    36  H    0.103042
    37  H    0.134879
    38  H    0.116355
    39  H    0.054526
    40  H    0.110825
    41  H    0.113691
    42  H    0.123074
    43  H    0.089297
    44  H    0.107617
    45  H    0.279225
 Sum of Mulliken charges =  -0.00000

 Dipole moment (field-independent basis, Debye):
    X=              1.1858    Y=              0.4362    Z=             -0.4815  Tot=              1.3521
 Quadrupole moment (field-independent basis, Debye-Ang):
   XX=           -119.5984   YY=           -102.1635   ZZ=           -101.3854
   XY=             -1.0384   XZ=              3.1254   YZ=             -2.2759

  Exact polarizability: 202.759   6.355 147.351  -1.070  -2.669 152.428
 Approx polarizability: 231.834   8.423 217.821  -7.834 -10.521 241.972

                      1                      2                      3
                      A                      A                      A
 Frequencies --     13.0043                17.7081                38.6462
 Red. masses --      4.1427                 3.0232                 3.4155
 Frc consts  --      0.0004                 0.0006                 0.0030
 IR Inten    --      0.2287                 0.1743                 0.3370

                      4                      5                      6
                      A                      A                      A
 Frequencies --     40.1548                66.6463                75.8921
 Red. masses --      2.5462                 2.5104                 3.0494
 Frc consts  --      0.0024                 0.0066                 0.0103
 IR Inten    --      0.2330                 0.0150                 1.2256

                      7                      8                      9
                      A                      A                      A
 Frequencies --     91.4490               105.4419               114.8432
 Red. masses --      2.6011                 2.1117                 2.3120
 Frc consts  --      0.0128                 0.0138                 0.0180
 IR Inten    --      0.3066                 1.1682                 3.0739

                     10                     11                     12
                      A                      A                      A
 Frequencies --    142.7261               155.5364               187.0152
 Red. masses --      2.8439                 2.5882                 4.0216
 Frc consts  --      0.0341                 0.0369                 0.0829
 IR Inten    --      0.8633                 1.8624                 0.0519

                     13                     14                     15
                      A                      A                      A
 Frequencies --    214.7409               235.4105               261.0605
 Red. masses --      2.4447                 1.2760                 1.4608
 Frc consts  --      0.0664                 0.0417                 0.0587
 IR Inten    --      0.6416                 0.2387                 2.3187

                     16                     17                     18
                      A                      A                      A
 Frequencies --    266.4830               271.0922               280.9130
 Red. masses --      1.1058                 1.5008                 2.0457
 Frc consts  --      0.0463                 0.0650                 0.0951
 IR Inten    --      0.0686                 4.5901                 7.5490

                     19                     20                     21
                      A                      A                      A
 Frequencies --    285.0134               309.7606               326.0621
 Red. masses --      1.5882                 1.4072                 2.5168
 Frc consts  --      0.0760                 0.0796                 0.1577
 IR Inten    --     24.3081                59.3416                 3.3886

                     22                     23                     24
                      A                      A                      A
 Frequencies --    336.1059               361.4027               387.2368
 Red. masses --      1.8176                 2.8453                 2.2244
 Frc consts  --      0.1210                 0.2190                 0.1965
 IR Inten    --     11.2298                 0.6949                 0.7754

                     25                     26                     27
                      A                      A                      A
 Frequencies --    402.2577               406.4309               442.1552
 Red. masses --      2.5323                 2.4783                 2.6393
 Frc consts  --      0.2414                 0.2412                 0.3040
 IR Inten    --      0.4918                 3.2211                 7.5619

                     28                     29                     30
                      A                      A                      A
 Frequencies --    486.2721               518.9635               538.1208
 Red. masses --      2.5314                 2.6942                 2.4998
 Frc consts  --      0.3527                 0.4275                 0.4265
 IR Inten    --      8.7158                 2.7789                 0.4945

                     31                     32                     33
                      A                      A                      A
 Frequencies --    568.9002               584.0838               722.6415
 Red. masses --      2.2365                 2.7693                 1.2277
 Frc consts  --      0.4265                 0.5566                 0.3777
 IR Inten    --      4.8145                 1.6641                 0.5842

                     34                     35                     36
                      A                      A                      A
 Frequencies --    753.5245               791.1545               797.5879
 Red. masses --      1.1795                 2.1859                 1.5294
 Frc consts  --      0.3946                 0.8061                 0.5732
 IR Inten    --      1.3717                 3.2718                41.0644

                     37                     38                     39
                      A                      A                      A
 Frequencies --    809.5687               809.7645               832.4451
 Red. masses --      1.1556                 1.8066                 2.3522
 Frc consts  --      0.4462                 0.6979                 0.9604
 IR Inten    --      0.6566                10.8381                 2.0002

                     40                     41                     42
                      A                      A                      A
 Frequencies --    884.8952               905.9771               909.3018
 Red. masses --      1.3374                 1.4390                 1.8247
 Frc consts  --      0.6170                 0.6959                 0.8889
 IR Inten    --      5.1443                 5.3232                 4.6375

                     43                     44                     45
                      A                      A                      A
 Frequencies --    929.0942               930.7745               961.5115
 Red. masses --      1.6684                 1.5437                 1.9740
 Frc consts  --      0.8486                 0.7880                 1.0752
 IR Inten    --     10.9624                21.8310                 0.4256

                     46                     47                     48
                      A                      A                      A
 Frequencies --    980.0421              1020.6095              1025.6133
 Red. masses --      1.2312                 2.2529                 1.9141
 Frc consts  --      0.6967                 1.3826                 1.1863
 IR Inten    --      0.2814                 0.7389                 1.7141

                     49                     50                     51
                      A                      A                      A
 Frequencies --   1035.4575              1043.2782              1047.4772
 Red. masses --      1.7064                 2.4529                 2.6796
 Frc consts  --      1.0780                 1.5730                 1.7322
 IR Inten    --     10.8374                29.5953                68.0044

                     52                     53                     54
                      A                      A                      A
 Frequencies --   1054.8463              1065.7154              1074.3559
 Red. masses --      2.0691                 2.3010                 2.3215
 Frc consts  --      1.3564                 1.5398                 1.5788
 IR Inten    --     27.5972                16.8568                16.4441

                     55                     56                     57
                      A                      A                      A
 Frequencies --   1103.8659              1109.4084              1116.3922
 Red. masses --      2.2641                 1.7275                 1.9912
 Frc consts  --      1.6254                 1.2527                 1.4621
 IR Inten    --     11.0259                 1.5650                 5.7197

                     58                     59                     60
                      A                      A                      A
 Frequencies --   1124.3526              1142.6510              1160.4165
 Red. masses --      1.5511                 2.2086                 2.1924
 Frc consts  --      1.1553                 1.6990                 1.7394
 IR Inten    --      0.6167                 6.1113                 2.1393

                     61                     62                     63
                      A                      A                      A
 Frequencies --   1183.3177              1187.9413              1205.8848
 Red. masses --      2.0195                 2.1391                 1.7075
 Frc consts  --      1.6661                 1.7786                 1.4629
 IR Inten    --     16.3772                 9.7087                22.2147

                     64                     65                     66
                      A                      A                      A
 Frequencies --   1222.9951              1254.6221              1275.0520
 Red. masses --      1.5397                 1.7780                 1.3233
 Frc consts  --      1.3568                 1.6489                 1.2676
 IR Inten    --      1.8930                19.3431                 0.0126

                     67                     68                     69
                      A                      A                      A
 Frequencies --   1287.1350              1293.3824              1306.7251
 Red. masses --      1.3358                 1.1697                 1.2124
 Frc consts  --      1.3039                 1.1529                 1.2197
 IR Inten    --     14.7669                 5.2313                 5.2776

                     70                     71                     72
                      A                      A                      A
 Frequencies --   1321.6210              1340.1509              1348.1067
 Red. masses --      1.0799                 1.2661                 1.1941
 Frc consts  --      1.1113                 1.3398                 1.2786
 IR Inten    --      5.1879                 2.2020                 4.7238

                     73                     74                     75
                      A                      A                      A
 Frequencies --   1358.3931              1365.4602              1376.7528
 Red. masses --      1.3005                 1.3901                 1.3379
 Frc consts  --      1.4139                 1.5270                 1.4941
 IR Inten    --      1.3772                 5.4876                 1.0176

                     76                     77                     78
                      A                      A                      A
 Frequencies --   1384.1925              1386.6386              1394.8542
 Red. masses --      1.3813                 1.7286                 1.2903
 Frc consts  --      1.5593                 1.9583                 1.4791
 IR Inten    --     25.4679                 0.1531                 3.8044

                     79                     80                     81
                      A                      A                      A
 Frequencies --   1402.0972              1403.5075              1407.5564
 Red. masses --      1.2526                 1.2387                 1.2560
 Frc consts  --      1.4509                 1.4376                 1.4662
 IR Inten    --      8.8104                19.3699                 4.6520

                     82                     83                     84
                      A                      A                      A
 Frequencies --   1407.9064              1413.8091              1420.3163
 Red. masses --      1.2518                 1.3528                 1.2503
 Frc consts  --      1.4620                 1.5932                 1.4860
 IR Inten    --     26.8961                 8.2224                12.6922

                     85                     86                     87
                      A                      A                      A
 Frequencies --   1453.8091              1472.8446              1485.6288
 Red. masses --      1.1584                 1.0766                 1.0896
 Frc consts  --      1.4425                 1.3760                 1.4168
 IR Inten    --      1.8422                 2.1922                 5.2235

                     88                     89                     90
                      A                      A                      A
 Frequencies --   1488.2192              1495.2434              1498.1412
 Red. masses --      1.0663                 1.0855                 1.0417
 Frc consts  --      1.3914                 1.4299                 1.3775
 IR Inten    --      1.7619                14.7999                 2.7360

                     91                     92                     93
                      A                      A                      A
 Frequencies --   1498.7752              1499.2812              1503.2809
 Red. masses --      1.0859                 1.0998                 1.0620
 Frc consts  --      1.4372                 1.4566                 1.4140
 IR Inten    --      8.0695                12.6605                 2.0368

                     94                     95                     96
                      A                      A                      A
 Frequencies --   1507.8696              1509.8527              1510.5324
 Red. masses --      1.0607                 1.0486                 1.0591
 Frc consts  --      1.4209                 1.4084                 1.4238
 IR Inten    --     11.1715                 6.2352                 2.8290

                     97                     98                     99
                      A                      A                      A
 Frequencies --   1512.9753              1521.4764              1524.8895
 Red. masses --      1.0850                 1.0941                 1.0836
 Frc consts  --      1.4634                 1.4923                 1.4846
 IR Inten    --     14.2376                 1.6998                 5.8037

                    100                    101                    102
                      A                      A                      A
 Frequencies --   1717.8548              2898.3868              2902.3327
 Red. masses --      5.2566                 1.0756                 1.0783
 Frc consts  --      9.1397                 5.3235                 5.3514
 IR Inten    --     17.2304                27.1894                96.1286

                    103                    104                    105
                      A                      A                      A
 Frequencies --   2954.5909              2997.6171              3000.6919
 Red. masses --      1.0805                 1.0645                 1.0820
 Frc consts  --      5.5573                 5.6355                 5.7399
 IR Inten    --     22.2389                 9.3205                12.6349

                    106                    107                    108
                      A                      A                      A
 Frequencies --   3004.2477              3015.4497              3016.0856
 Red. masses --      1.0641                 1.0571                 1.0655
 Frc consts  --      5.6583                 5.6635                 5.7107
 IR Inten    --     27.0408                36.1143                24.8288

                    109                    110                    111
                      A                      A                      A
 Frequencies --   3023.2418              3025.0118              3033.5267
 Red. masses --      1.0498                 1.0937                 1.0428
 Frc consts  --      5.6533                 5.8969                 5.6540
 IR Inten    --     36.6896                22.6248                14.1277

                    112                    113                    114
                      A                      A                      A
 Frequencies --   3037.6548              3039.5850              3048.5638
 Red. masses --      1.0351                 1.0449                 1.0745
 Frc consts  --      5.6275                 5.6877                 5.8836
 IR Inten    --     24.8109                 3.7895                43.6336

                    115                    116                    117
                      A                      A                      A
 Frequencies --   3054.2113              3062.7680              3079.8710
 Red. masses --      1.0937                 1.1050                 1.1000
 Frc consts  --      6.0107                 6.1071                 6.1475
 IR Inten    --      4.9072                49.3700                55.5517

                    118                    119                    120
                      A                      A                      A
 Frequencies --   3101.1008              3105.4498              3106.6163
 Red. masses --      1.0884                 1.0931                 1.1017
 Frc consts  --      6.1669                 6.2109                 6.2647
 IR Inten    --     27.2134                24.9132                29.7519

                    121                    122                    123
                      A                      A                      A
 Frequencies --   3107.4102              3109.7897              3125.8172
 Red. masses --      1.1014                 1.1005                 1.0999
 Frc consts  --      6.2658                 6.2703                 6.3317
 IR Inten    --     29.5726                35.5211                43.4649

                    124                    125                    126
                      A                      A                      A
 Frequencies --   3131.7190              3132.9645              3148.7476
 Red. masses --      1.1005                 1.1002                 1.0620
 Frc consts  --      6.3594                 6.3623                 6.2035
 IR Inten    --      5.2603                18.8148                 7.9265

                    127                    128                    129
                      A                      A                      A
 Frequencies --   3228.4704              3516.7110              3812.2023
 Red. masses --      1.1126                 1.0731                 1.0661
 Frc consts  --      6.8328                 7.8194                 9.1285
 IR Inten    --     15.7046                 0.4185                16.1618

 - Thermochemistry -
 -------------------
 Temperature   298.150 Kelvin.  Pressure   1.00000 Atm.
 Atom     1 has atomic number  6 and mass  12.00000

 Molecular mass:   227.22491 amu.
 Principal axes and moments of inertia in atomic units:
                           1         2         3
     Eigenvalues --  1491.94003********************
           X            0.99998   0.00558   0.00075
           Y           -0.00561   0.99940   0.03431
           Z           -0.00056  -0.03431   0.99941
 This molecule is an asymmetric top.
 Rotational symmetry number  1.
 Warning -- assumption of classical behavior for rotation
           may cause significant error
 Rotational temperatures (Kelvin)      0.05805     0.00639     0.00625
 Rotational constants (GHZ):           1.20966     0.13309     0.13025
 Zero-point vibrational energy    1086473.5 (Joules/Mol)
                                  259.67339 (Kcal/Mol)
 Warning -- explicit consideration of  32 degrees of freedom as
           vibrations may cause significant error
 Vibrational temperatures:     18.71    25.48    55.60    57.77    95.89
          (Kelvin)            109.19   131.57   151.71   165.23   205.35
                              223.78   269.07   308.96   338.70   375.61
                              383.41   390.04   404.17   410.07   445.68
                              469.13   483.58   519.98   557.15   578.76
                              584.76   636.16   699.64   746.67   774.24
                              818.52   840.37  1039.72  1084.15  1138.29
                             1147.55  1164.79  1165.07  1197.70  1273.17
                             1303.50  1308.28  1336.76  1339.18  1383.40
                             1410.06  1468.43  1475.63  1489.79  1501.04
                             1507.09  1517.69  1533.33  1545.76  1588.22
                             1596.19  1606.24  1617.69  1644.02  1669.58
                             1702.53  1709.18  1735.00  1759.62  1805.12
                             1834.52  1851.90  1860.89  1880.09  1901.52
                             1928.18  1939.62  1954.42  1964.59  1980.84
                             1991.54  1995.06  2006.88  2017.31  2019.33
                             2025.16  2025.66  2034.16  2043.52  2091.71
                             2119.09  2137.49  2141.22  2151.32  2155.49
                             2156.40  2157.13  2162.89  2169.49  2172.34
                             2173.32  2176.83  2189.07  2193.98  2471.61
                             4170.13  4175.81  4251.00  4312.90  4317.33
                             4322.44  4338.56  4339.47  4349.77  4352.32
                             4364.57  4370.51  4373.28  4386.20  4394.33
                             4406.64  4431.25  4461.79  4468.05  4469.73
                             4470.87  4474.29  4497.35  4505.85  4507.64
                             4530.35  4645.05  5059.76  5484.91

 Zero-point correction=                           0.413816 (Hartree/Particle)
 Thermal correction to Energy=                    0.434479
 Thermal correction to Enthalpy=                  0.435423
 Thermal correction to Gibbs Free Energy=         0.361965
 Sum of electronic and zero-point Energies=           -680.539416
 Sum of electronic and thermal Energies=              -680.518752
 Sum of electronic and thermal Enthalpies=            -680.517808
 Sum of electronic and thermal Free Energies=         -680.591267

                     E (Thermal)             CV                S
                      KCal/Mol        Cal/Mol-Kelvin    Cal/Mol-Kelvin
 Total                  272.640             76.210            154.607
 Electronic               0.000              0.000              0.000
 Translational            0.889              2.981             42.165
 Rotational               0.889              2.981             33.993
 Vibrational            270.862             70.249             78.449
 Vibration     1          0.593              1.987              7.489
 Vibration     2          0.593              1.986              6.876
 Vibration     3          0.594              1.981              5.327
 Vibration     4          0.594              1.981              5.251
 Vibration     5          0.598              1.970              4.250
 Vibration     6          0.599              1.965              3.994
 Vibration     7          0.602              1.955              3.629
 Vibration     8          0.605              1.945              3.351
 Vibration     9          0.608              1.937              3.185
 Vibration    10          0.616              1.910              2.767
 Vibration    11          0.620              1.896              2.603
 Vibration    12          0.632              1.858              2.257
 Vibration    13          0.645              1.819              2.003
 Vibration    14          0.655              1.787              1.837
 Vibration    15          0.669              1.744              1.655
 Vibration    16          0.672              1.735              1.619
 Vibration    17          0.675              1.726              1.589
 Vibration    18          0.681              1.709              1.528
 Vibration    19          0.683              1.701              1.503
 Vibration    20          0.699              1.655              1.364
 Vibration    21          0.710              1.623              1.280
 Vibration    22          0.717              1.603              1.231
 Vibration    23          0.736              1.552              1.116
 Vibration    24          0.756              1.497              1.011
 Vibration    25          0.768              1.465              0.954
 Vibration    26          0.771              1.456              0.939
 Vibration    27          0.802              1.378              0.820
 Vibration    28          0.842              1.280              0.693
 Vibration    29          0.874              1.208              0.612
 Vibration    30          0.893              1.166              0.569
 Vibration    31          0.925              1.099              0.506
 Vibration    32          0.941              1.066              0.478

 Optimization completed.
    -- Stationary point found.
 Normal termination of Gaussian 16 at Thu May 25 05:50:19 2023.
