 Gaussian 16, Revision A.03,
 Gaussian 16:  ES64L-G16RevA.03 25-Dec-2016

 -----------------------------
 # opt freq b3lyp/6-31g(2df,p)
 -----------------------------

 -------------------
 Title Card Required
 -------------------
 Symbolic Z-matrix:
 Charge =  0 Multiplicity = 1

 SCF Done:  E(RB3LYP) =  -1778.26706351     A.U. after   17 cycles
 SCF Done:  E(RB3LYP) =  -1778.29324266     A.U. after   13 cycles
 SCF Done:  E(RB3LYP) =  -1778.30843383     A.U. after   13 cycles
 SCF Done:  E(RB3LYP) =  -1778.32001912     A.U. after   12 cycles
 SCF Done:  E(RB3LYP) =  -1778.32216716     A.U. after   12 cycles
 SCF Done:  E(RB3LYP) =  -1778.32313017     A.U. after   12 cycles
 SCF Done:  E(RB3LYP) =  -1778.32386631     A.U. after   12 cycles
 SCF Done:  E(RB3LYP) =  -1778.32595171     A.U. after   12 cycles
 SCF Done:  E(RB3LYP) =  -1778.32456622     A.U. after   15 cycles
 SCF Done:  E(RB3LYP) =  -1778.32756623     A.U. after   12 cycles
 SCF Done:  E(RB3LYP) =  -1778.34135905     A.U. after   11 cycles
 SCF Done:  E(RB3LYP) =  -1778.34137744     A.U. after    9 cycles
 SCF Done:  E(RB3LYP) =  -1778.34138402     A.U. after   10 cycles
 SCF Done:  E(RB3LYP) =  -1778.34138955     A.U. after    9 cycles
 SCF Done:  E(RB3LYP) =  -1778.34139094     A.U. after    9 cycles
 SCF Done:  E(RB3LYP) =  -1778.34139127     A.U. after    7 cycles
 SCF Done:  E(RB3LYP) =  -1778.34139156     A.U. after    7 cycles
 SCF Done:  E(RB3LYP) =  -1778.34139158     A.U. after    6 cycles
 SCF Done:  E(RB3LYP) =  -1778.34139159     A.U. after    6 cycles
 Optimization completed.
    -- Stationary point found.
 Normal termination of Gaussian 16 at Wed May 24 04:13:39 2023.

 ----------------------------------------------------------------------
 #N Geom=AllCheck Guess=TCheck SCRF=Check GenChk RB3LYP/6-31G(2df,p) Fr
 eq
 ----------------------------------------------------------------------

 Structure from the checkpoint file:  "CdCqOrCCSC1[SH]dCCCqCCrdCC1SC.chk"
 -------------------
 Title Card Required
 -------------------
 Charge =  0 Multiplicity = 1

                         Standard orientation:
 ---------------------------------------------------------------------
 Center     Atomic      Atomic             Coordinates (Angstroms)
 Number     Number       Type             X           Y           Z
 ---------------------------------------------------------------------
      1          6           0       -4.945242   -0.597847   -1.456794
      2          6           0       -4.136402   -0.528934   -0.398848
      3          8           0       -4.202467    0.445495    0.557833
      4          6           0       -3.031056   -1.501303   -0.094664
      5          6           0       -1.654908   -0.816950   -0.109894
      6         16           0       -0.377230   -2.090684    0.245674
      7          6           0        1.103968   -1.186190    0.760704
      8         16           0        0.810789   -0.134660    2.390628
      9          6           0        0.485742    1.481516    2.203112
     10          6           0        1.214497    2.296095    1.157621
     11          6           0        0.807972    1.974365   -0.280229
     12          6           0        0.009827    3.030935   -1.008463
     13          6           0        0.847962    4.262011   -1.396420
     14          6           0        1.089617    0.806178   -0.869973
     15          6           0        1.881312   -0.327165   -0.253774
     16         16           0        2.614207   -1.293572   -1.643461
     17          6           0        3.861775   -2.287656   -0.769736
     18          1           0       -5.732140    0.130077   -1.627948
     19          1           0       -4.840730   -1.394475   -2.180351
     20          1           0       -4.909001    1.060143    0.329973
     21          1           0       -3.059908   -2.314423   -0.825028
     22          1           0       -3.200901   -1.939709    0.895880
     23          1           0       -1.612688   -0.034226    0.645965
     24          1           0       -1.467365   -0.369344   -1.086859
     25          1           0        1.750560   -1.981901    1.147873
     26          1           0        2.165716   -0.167346    2.604025
     27          1           0       -0.549353    1.706800    2.433968
     28          1           0        2.299787    2.148247    1.274486
     29          1           0        1.036605    3.358590    1.355290
     30          1           0       -0.823148    3.354094   -0.368340
     31          1           0       -0.436713    2.600387   -1.911403
     32          1           0        1.300751    4.736844   -0.520074
     33          1           0        0.226825    5.012261   -1.895617
     34          1           0        1.656549    3.979759   -2.077664
     35          1           0        0.718370    0.626497   -1.877164
     36          1           0        2.736348    0.092885    0.293021
     37          1           0        4.427119   -2.814786   -1.541098
     38          1           0        3.408754   -3.029764   -0.107942
     39          1           0        4.549656   -1.652256   -0.204960
 ---------------------------------------------------------------------

 SCF Done:  E(RB3LYP) =  -1778.34139159     A.U. after    1 cycles

 The electronic state is 1-A.
 Alpha  occ. eigenvalues --  -88.94242 -88.86802 -88.86626 -19.16924 -10.24260
 Alpha  occ. eigenvalues --  -10.23559 -10.22864 -10.21139 -10.20798 -10.19355
 Alpha  occ. eigenvalues --  -10.18794 -10.18766 -10.18435 -10.17784 -10.17580
 Alpha  occ. eigenvalues --  -10.16640 -10.16333  -7.99813  -7.93061  -7.92910
 Alpha  occ. eigenvalues --   -5.96086  -5.96066  -5.95639  -5.89559  -5.89401
 Alpha  occ. eigenvalues --   -5.89194  -5.89058  -5.88591  -5.88419  -1.05727
 Alpha  occ. eigenvalues --   -0.85902  -0.81268  -0.80895  -0.80112  -0.76397
 Alpha  occ. eigenvalues --   -0.74405  -0.73515  -0.70292  -0.67667  -0.65392
 Alpha  occ. eigenvalues --   -0.62219  -0.60659  -0.58720  -0.58392  -0.54788
 Alpha  occ. eigenvalues --   -0.51795  -0.49399  -0.47957  -0.47077  -0.46610
 Alpha  occ. eigenvalues --   -0.45391  -0.44579  -0.43885  -0.43675  -0.42563
 Alpha  occ. eigenvalues --   -0.42223  -0.41513  -0.40606  -0.40357  -0.39476
 Alpha  occ. eigenvalues --   -0.38852  -0.37356  -0.36724  -0.36544  -0.36220
 Alpha  occ. eigenvalues --   -0.35466  -0.34920  -0.33951  -0.33596  -0.33012
 Alpha  occ. eigenvalues --   -0.31892  -0.30888  -0.29258  -0.24135  -0.23120
 Alpha  occ. eigenvalues --   -0.22725  -0.21964  -0.17031
 Alpha virt. eigenvalues --   -0.00102   0.01753   0.02097   0.03260   0.03883
 Alpha virt. eigenvalues --    0.05870   0.06682   0.07246   0.08387   0.08846
 Alpha virt. eigenvalues --    0.09771   0.10171   0.10389   0.11983   0.12956

 Mulliken charges:
               1
     1  C   -0.464037
     2  C    0.410879
     3  O   -0.425159
     4  C   -0.270090
     5  C   -0.189450
     6  S   -0.150964
     7  C   -0.098853
     8  S    0.020473
     9  C   -0.193566
    10  C   -0.340734
    11  C    0.315109
    12  C   -0.268749
    13  C   -0.372234
    14  C   -0.163820
    15  C   -0.063130
    16  S   -0.132148
    17  C   -0.390918
    18  H    0.089578
    19  H    0.112444
    20  H    0.296326
    21  H    0.124959
    22  H    0.132044
    23  H    0.150821
    24  H    0.129868
    25  H    0.123321
    26  H    0.115595
    27  H    0.105852
    28  H    0.100071
    29  H    0.104819
    30  H    0.101830
    31  H    0.099468
    32  H    0.119912
    33  H    0.113362
    34  H    0.123466
    35  H    0.098772
    36  H    0.102679
    37  H    0.152731
    38  H    0.142640
    39  H    0.136833
 Sum of Mulliken charges =  -0.00000

 Dipole moment (field-independent basis, Debye):
    X=              0.2035    Y=              1.0781    Z=              0.3044  Tot=              1.1386
 Quadrupole moment (field-independent basis, Debye-Ang):
   XX=           -110.2642   YY=           -124.5400   ZZ=           -133.6448
   XY=            -10.1905   XZ=              7.0309   YZ=             -3.0350

  Exact polarizability: 214.004 -20.556 219.434  11.203  13.157 182.821
 Approx polarizability: 303.034 -35.734 354.815  17.484  38.731 307.364

                      1                      2                      3
                      A                      A                      A
 Frequencies --     17.7833                20.4817                35.0848
 Red. masses --      4.9117                 4.5502                 4.0071
 Frc consts  --      0.0009                 0.0011                 0.0029
 IR Inten    --      0.6221                 0.0602                 0.5991

                      4                      5                      6
                      A                      A                      A
 Frequencies --     40.3030                59.5830                77.3301
 Red. masses --      3.3960                 4.5254                 3.4487
 Frc consts  --      0.0033                 0.0095                 0.0122
 IR Inten    --      0.7308                 1.1726                 0.0848

                      7                      8                      9
                      A                      A                      A
 Frequencies --     82.2823                92.3066               109.5137
 Red. masses --      2.8311                 3.2359                 3.4122
 Frc consts  --      0.0113                 0.0162                 0.0241
 IR Inten    --      0.6601                 0.0078                 1.3876

                     10                     11                     12
                      A                      A                      A
 Frequencies --    115.8908               136.8968               171.4353
 Red. masses --      2.7118                 4.5544                 1.3664
 Frc consts  --      0.0215                 0.0503                 0.0237
 IR Inten    --      1.3465                 0.2626                 0.6165

                     13                     14                     15
                      A                      A                      A
 Frequencies --    176.0011               193.2078               202.5908
 Red. masses --      2.3827                 3.3492                 3.6394
 Frc consts  --      0.0435                 0.0737                 0.0880
 IR Inten    --      0.1065                 0.3429                 1.0382

                     16                     17                     18
                      A                      A                      A
 Frequencies --    223.4518               231.8919               262.5347
 Red. masses --      1.6538                 5.2318                 2.9013
 Frc consts  --      0.0487                 0.1658                 0.1178
 IR Inten    --      0.1275                 0.3427                 0.4409

                     19                     20                     21
                      A                      A                      A
 Frequencies --    271.4868               291.2500               314.1032
 Red. masses --      4.1285                 4.9450                 3.5778
 Frc consts  --      0.1793                 0.2471                 0.2080
 IR Inten    --      0.0644                 8.0312                 2.2680

                     22                     23                     24
                      A                      A                      A
 Frequencies --    355.1568               394.7342               412.2312
 Red. masses --      3.8560                 2.4691                 2.3310
 Frc consts  --      0.2866                 0.2267                 0.2334
 IR Inten    --      1.2784                20.1956                 1.2866

                     25                     26                     27
                      A                      A                      A
 Frequencies --    443.4219               445.4812               452.7888
 Red. masses --      1.1407                 1.6150                 3.1831
 Frc consts  --      0.1322                 0.1888                 0.3845
 IR Inten    --    106.8252                28.3539                21.2602

                     28                     29                     30
                      A                      A                      A
 Frequencies --    484.1309               496.1439               585.8659
 Red. masses --      2.6713                 2.4487                 3.6586
 Frc consts  --      0.3689                 0.3551                 0.7399
 IR Inten    --      3.4100                13.5219                17.7333

                     31                     32                     33
                      A                      A                      A
 Frequencies --    599.4253               623.7336               652.5242
 Red. masses --      3.7258                 4.5863                 2.5855
 Frc consts  --      0.7887                 1.0513                 0.6486
 IR Inten    --      0.5834                14.2312                 6.6248

                     34                     35                     36
                      A                      A                      A
 Frequencies --    687.8592               713.9928               731.1495
 Red. masses --      3.0502                 5.5855                 1.2090
 Frc consts  --      0.8503                 1.6776                 0.3808
 IR Inten    --      0.1416                 0.6431                 1.8443

                     37                     38                     39
                      A                      A                      A
 Frequencies --    751.3523               764.7116               776.6998
 Red. masses --      2.6158                 3.8741                 1.2244
 Frc consts  --      0.8700                 1.3348                 0.4352
 IR Inten    --      9.8029                 3.1361                 0.1191

                     40                     41                     42
                      A                      A                      A
 Frequencies --    776.8854               799.5977               818.2725
 Red. masses --      1.7338                 1.2827                 2.8511
 Frc consts  --      0.6165                 0.4832                 1.1248
 IR Inten    --     12.1857                 9.8671                21.5133

                     43                     44                     45
                      A                      A                      A
 Frequencies --    821.0107               856.1804               879.6480
 Red. masses --      1.4235                 3.5666                 1.5817
 Frc consts  --      0.5653                 1.5404                 0.7211
 IR Inten    --     51.9363                 6.7801                17.7337

                     46                     47                     48
                      A                      A                      A
 Frequencies --    894.6954               922.9003               962.5842
 Red. masses --      3.3948                 2.7103                 1.6500
 Frc consts  --      1.6011                 1.3601                 0.9007
 IR Inten    --     11.3211                 1.4594                 7.3848

                     49                     50                     51
                      A                      A                      A
 Frequencies --    965.0729               976.8954               979.6915
 Red. masses --      1.4341                 1.4883                 1.7325
 Frc consts  --      0.7870                 0.8368                 0.9797
 IR Inten    --      9.1600                 7.6033                12.7312

                     52                     53                     54
                      A                      A                      A
 Frequencies --    982.1828               994.6045              1032.1944
 Red. masses --      1.7103                 1.6619                 3.5174
 Frc consts  --      0.9721                 0.9686                 2.2080
 IR Inten    --      4.2778                16.1873                 5.4431

                     55                     56                     57
                      A                      A                      A
 Frequencies --   1063.6502              1072.7979              1094.2768
 Red. masses --      1.8183                 2.0133                 1.6661
 Frc consts  --      1.2120                 1.3652                 1.1755
 IR Inten    --      3.4867                24.1319                 5.8903

                     58                     59                     60
                      A                      A                      A
 Frequencies --   1097.6071              1116.7162              1133.5510
 Red. masses --      2.0679                 1.5359                 1.2300
 Frc consts  --      1.4678                 1.1285                 0.9312
 IR Inten    --      5.3657                 6.3592                29.4086

                     61                     62                     63
                      A                      A                      A
 Frequencies --   1153.3357              1181.1219              1212.1093
 Red. masses --      1.3808                 1.9636                 1.4692
 Frc consts  --      1.0822                 1.6140                 1.2718
 IR Inten    --     15.5914                 0.5334                77.0859

                     64                     65                     66
                      A                      A                      A
 Frequencies --   1221.6046              1232.3520              1242.8650
 Red. masses --      1.2352                 1.1767                 1.2085
 Frc consts  --      1.0861                 1.0529                 1.0999
 IR Inten    --     14.8639                12.6413                10.6361

                     67                     68                     69
                      A                      A                      A
 Frequencies --   1247.1913              1280.9421              1295.4099
 Red. masses --      1.3342                 1.1805                 1.1583
 Frc consts  --      1.2227                 1.1413                 1.1452
 IR Inten    --     11.0940                 0.4198                 1.0722

                     70                     71                     72
                      A                      A                      A
 Frequencies --   1308.3409              1325.4559              1329.9517
 Red. masses --      1.2584                 1.2750                 1.3622
 Frc consts  --      1.2691                 1.3198                 1.4196
 IR Inten    --      7.5887                 4.2374                 9.8628

                     73                     74                     75
                      A                      A                      A
 Frequencies --   1346.9659              1347.3994              1351.6695
 Red. masses --      1.3494                 1.5370                 1.1737
 Frc consts  --      1.4424                 1.6440                 1.2634
 IR Inten    --      1.1701                 6.9410                 5.0850

                     76                     77                     78
                      A                      A                      A
 Frequencies --   1384.3609              1387.5252              1407.3819
 Red. masses --      1.3907                 2.2952                 1.2202
 Frc consts  --      1.5703                 2.6034                 1.4240
 IR Inten    --      2.7172                10.3053                 1.3484

                     79                     80                     81
                      A                      A                      A
 Frequencies --   1453.3363              1464.2286              1466.9177
 Red. masses --      1.1531                 1.0820                 1.0534
 Frc consts  --      1.4350                 1.3667                 1.3355
 IR Inten    --      6.1791                 5.6167                 8.5611

                     82                     83                     84
                      A                      A                      A
 Frequencies --   1474.8972              1482.2028              1482.7924
 Red. masses --      1.0947                 1.0534                 1.0717
 Frc consts  --      1.4031                 1.3635                 1.3883
 IR Inten    --      3.5683                13.0988                 3.0750

                     85                     86                     87
                      A                      A                      A
 Frequencies --   1487.4309              1497.5235              1507.1997
 Red. masses --      1.1105                 1.0403                 1.0696
 Frc consts  --      1.4475                 1.3746                 1.4316
 IR Inten    --      4.8833                 5.5986                 2.5579

                     88                     89                     90
                      A                      A                      A
 Frequencies --   1710.7668              1725.7478              2375.1250
 Red. masses --      7.5198                 5.8381                 1.0379
 Frc consts  --     12.9669                10.2441                 3.4495
 IR Inten    --      6.1355               131.4612               107.9378

                     91                     92                     93
                      A                      A                      A
 Frequencies --   2975.6641              2999.9352              3008.1969
 Red. masses --      1.0694                 1.0822                 1.0645
 Frc consts  --      5.5789                 5.7383                 5.6755
 IR Inten    --     33.3927                12.4627                20.3587

                     94                     95                     96
                      A                      A                      A
 Frequencies --   3035.5894              3037.3108              3040.7713
 Red. masses --      1.0346                 1.0313                 1.0622
 Frc consts  --      5.6169                 5.6055                 5.7866
 IR Inten    --     31.9494                20.9042                 8.4786

                     97                     98                     99
                      A                      A                      A
 Frequencies --   3047.1204              3060.3704              3062.1017
 Red. masses --      1.0834                 1.0941                 1.0924
 Frc consts  --      5.9266                 6.0376                 6.0351
 IR Inten    --     14.1138                10.4223                35.0977

                    100                    101                    102
                      A                      A                      A
 Frequencies --   3087.2271              3097.6812              3104.9040
 Red. masses --      1.0594                 1.0988                 1.1011
 Frc consts  --      5.9493                 6.2122                 6.2544
 IR Inten    --     12.9859                 8.2251                34.2578

                    103                    104                    105
                      A                      A                      A
 Frequencies --   3110.4558              3117.4568              3135.6221
 Red. masses --      1.1026                 1.1067                 1.0881
 Frc consts  --      6.2853                 6.3368                 6.3035
 IR Inten    --     28.4966                12.3876                 9.4865

                    106                    107                    108
                      A                      A                      A
 Frequencies --   3136.5428              3153.7616              3155.8985
 Red. masses --      1.1014                 1.0652                 1.1056
 Frc consts  --      6.3842                 6.2424                 6.4875
 IR Inten    --      2.8072                 5.7769                 3.7276

                    109                    110                    111
                      A                      A                      A
 Frequencies --   3188.8385              3251.7147              3807.0304
 Red. masses --      1.0857                 1.1112                 1.0654
 Frc consts  --      6.5048                 6.9227                 9.0979
 IR Inten    --      3.5079                 6.4271                27.0995

 - Thermochemistry -
 -------------------
 Temperature   298.150 Kelvin.  Pressure   1.00000 Atm.
 Atom     1 has atomic number  6 and mass  12.00000

 Molecular mass:   290.08328 amu.
 Principal axes and moments of inertia in atomic units:
                           1         2         3
     Eigenvalues --  5052.410657592.625109186.31996
           X            0.99989  -0.00136   0.01457
           Y            0.00169   0.99973  -0.02298
           Z           -0.01453   0.02300   0.99963
 This molecule is an asymmetric top.
 Rotational symmetry number  1.
 Warning -- assumption of classical behavior for rotation
           may cause significant error
 Rotational temperatures (Kelvin)      0.01714     0.01141     0.00943
 Rotational constants (GHZ):           0.35720     0.23770     0.19646
 Zero-point vibrational energy     847770.6 (Joules/Mol)
                                  202.62203 (Kcal/Mol)
 Warning -- explicit consideration of  31 degrees of freedom as
           vibrations may cause significant error
 Vibrational temperatures:     25.59    29.47    50.48    57.99    85.73
          (Kelvin)            111.26   118.39   132.81   157.57   166.74
                              196.96   246.66   253.23   277.98   291.48
                              321.50   333.64   377.73   390.61   419.04
                              451.92   510.99   567.93   593.11   637.99
                              640.95   651.46   696.56   713.84   842.93
                              862.44   897.41   938.84   989.68  1027.28
                             1051.96  1081.03  1100.25  1117.50  1117.76
                             1150.44  1177.31  1181.25  1231.85  1265.62
                             1287.27  1327.85  1384.94  1388.52  1405.53
                             1409.56  1413.14  1431.01  1485.10  1530.36
                             1543.52  1574.42  1579.21  1606.71  1630.93
                             1659.39  1699.37  1743.95  1757.62  1773.08
                             1788.21  1794.43  1842.99  1863.81  1882.41
                             1907.04  1913.50  1937.98  1938.61  1944.75
                             1991.79  1996.34  2024.91  2091.03  2106.70
                             2110.57  2122.05  2132.56  2133.41  2140.08
                             2154.60  2168.52  2461.41  2482.97  3417.28
                             4281.32  4316.24  4328.12  4367.54  4370.01
                             4374.99  4384.13  4403.19  4405.68  4441.83
                             4456.87  4467.26  4475.25  4485.32  4511.46
                             4512.79  4537.56  4540.63  4588.03  4678.49
                             5477.47

 Zero-point correction=                           0.322899 (Hartree/Particle)
 Thermal correction to Energy=                    0.344252
 Thermal correction to Enthalpy=                  0.345196
 Thermal correction to Gibbs Free Energy=         0.269794
 Sum of electronic and zero-point Energies=          -1778.018493
 Sum of electronic and thermal Energies=             -1777.997139
 Sum of electronic and thermal Enthalpies=           -1777.996195
 Sum of electronic and thermal Free Energies=        -1778.071597

                     E (Thermal)             CV                S
                      KCal/Mol        Cal/Mol-Kelvin    Cal/Mol-Kelvin
 Total                  216.021             77.796            158.696
 Electronic               0.000              0.000              0.000
 Translational            0.889              2.981             42.893
 Rotational               0.889              2.981             34.221
 Vibrational            214.244             71.834             81.583
 Vibration     1          0.593              1.986              6.867
 Vibration     2          0.593              1.986              6.587
 Vibration     3          0.594              1.982              5.519
 Vibration     4          0.594              1.981              5.244
 Vibration     5          0.597              1.974              4.471
 Vibration     6          0.599              1.964              3.958
 Vibration     7          0.600              1.961              3.836
 Vibration     8          0.602              1.955              3.611
 Vibration     9          0.606              1.942              3.278
 Vibration    10          0.608              1.936              3.168
 Vibration    11          0.614              1.916              2.847
 Vibration    12          0.626              1.878              2.420
 Vibration    13          0.628              1.872              2.370
 Vibration    14          0.635              1.849              2.197
 Vibration    15          0.639              1.836              2.109
 Vibration    16          0.649              1.805              1.931
 Vibration    17          0.653              1.792              1.864
 Vibration    18          0.670              1.741              1.645
 Vibration    19          0.675              1.726              1.587
 Vibration    20          0.687              1.690              1.467
 Vibration    21          0.702              1.647              1.341
 Vibration    22          0.731              1.565              1.143
 Vibration    23          0.762              1.481              0.982
 Vibration    24          0.776              1.444              0.919
 Vibration    25          0.803              1.375              0.816
 Vibration    26          0.805              1.371              0.810
 Vibration    27          0.811              1.355              0.787
 Vibration    28          0.840              1.285              0.699
 Vibration    29          0.852              1.259              0.668
 Vibration    30          0.943              1.062              0.475
 Vibration    31          0.957              1.033              0.451

 Optimization completed.
    -- Stationary point found.
 Normal termination of Gaussian 16 at Wed May 24 08:29:14 2023.
