 Gaussian 16, Revision A.03,
 Gaussian 16:  ES64L-G16RevA.03 25-Dec-2016

 -----------------------------
 # opt freq b3lyp/6-31g(2df,p)
 -----------------------------

 -------------------
 Title Card Required
 -------------------
 Symbolic Z-matrix:
 Charge =  0 Multiplicity = 1

 SCF Done:  E(RB3LYP) =  -957.761180167     A.U. after   13 cycles
 SCF Done:  E(RB3LYP) =  -957.777281405     A.U. after   14 cycles
 SCF Done:  E(RB3LYP) =  -957.781083077     A.U. after   11 cycles
 SCF Done:  E(RB3LYP) =  -957.783046432     A.U. after   12 cycles
 SCF Done:  E(RB3LYP) =  -957.784738147     A.U. after   12 cycles
 SCF Done:  E(RB3LYP) =  -957.786027189     A.U. after   11 cycles
 SCF Done:  E(RB3LYP) =  -957.786623823     A.U. after   11 cycles
 SCF Done:  E(RB3LYP) =  -957.786826684     A.U. after   10 cycles
 SCF Done:  E(RB3LYP) =  -957.786895236     A.U. after   10 cycles
 SCF Done:  E(RB3LYP) =  -957.786928481     A.U. after   10 cycles
 SCF Done:  E(RB3LYP) =  -957.802919106     A.U. after   11 cycles
 SCF Done:  E(RB3LYP) =  -957.803193429     A.U. after   11 cycles
 SCF Done:  E(RB3LYP) =  -957.803246700     A.U. after    9 cycles
 SCF Done:  E(RB3LYP) =  -957.803271854     A.U. after   10 cycles
 SCF Done:  E(RB3LYP) =  -957.803278746     A.U. after    9 cycles
 SCF Done:  E(RB3LYP) =  -957.803280609     A.U. after    9 cycles
 SCF Done:  E(RB3LYP) =  -957.803281214     A.U. after    8 cycles
 SCF Done:  E(RB3LYP) =  -957.803281414     A.U. after    7 cycles
 SCF Done:  E(RB3LYP) =  -957.803281470     A.U. after    6 cycles
 Optimization completed.
    -- Stationary point found.
 Normal termination of Gaussian 16 at Sun May 28 00:30:42 2023.

 ----------------------------------------------------------------------
 #N Geom=AllCheck Guess=TCheck SCRF=Check GenChk RB3LYP/6-31G(2df,p) Fr
 eq
 ----------------------------------------------------------------------

 Structure from the checkpoint file:  "CdCqCCCrSCqCrOCNCO.chk"
 -------------------
 Title Card Required
 -------------------
 Charge =  0 Multiplicity = 1

                         Standard orientation:
 ---------------------------------------------------------------------
 Center     Atomic      Atomic             Coordinates (Angstroms)
 Number     Number       Type             X           Y           Z
 ---------------------------------------------------------------------
      1          6           0       -3.018440   -1.845570   -0.253906
      2          6           0       -2.203513   -0.798973   -0.400897
      3          6           0       -2.595303    0.645710   -0.183429
      4          6           0       -4.002576    0.890817    0.371783
      5          6           0       -4.290401    2.379698    0.586199
      6         16           0       -0.546156   -1.089948   -1.027343
      7          6           0        0.510226   -0.729389    0.485504
      8          6           0        0.647675   -1.958352    1.367163
      9          8           0        1.783745   -0.336173    0.061013
     10          6           0        1.886061    1.040583   -0.396273
     11          7           0        3.209289    1.359012   -0.794305
     12          6           0        4.236328    1.203651    0.215673
     13          8           0        4.612139   -0.131533    0.486226
     14          1           0       -4.054801   -1.722594    0.043440
     15          1           0       -2.677466   -2.855956   -0.444496
     16          1           0       -2.478741    1.173689   -1.139837
     17          1           0       -1.861673    1.118552    0.484778
     18          1           0       -4.121398    0.352006    1.319842
     19          1           0       -4.745475    0.471328   -0.317196
     20          1           0       -3.585185    2.822469    1.298356
     21          1           0       -5.299993    2.535327    0.978128
     22          1           0       -4.207391    2.939235   -0.351974
     23          1           0        0.010000    0.084197    1.028873
     24          1           0        1.160082   -2.756007    0.823286
     25          1           0       -0.338301   -2.318599    1.669427
     26          1           0        1.225961   -1.712579    2.264816
     27          1           0        1.585745    1.690859    0.438727
     28          1           0        1.192785    1.182841   -1.231653
     29          1           0        3.469556    0.880297   -1.649608
     30          1           0        3.873929    1.718114    1.120115
     31          1           0        5.147613    1.706435   -0.121566
     32          1           0        3.790807   -0.610927    0.655346
 ---------------------------------------------------------------------

 SCF Done:  E(RB3LYP) =  -957.803281470     A.U. after    1 cycles

 The electronic state is 1-A.
 Alpha  occ. eigenvalues --  -88.86537 -19.16003 -19.11913 -14.32635 -10.27010
 Alpha  occ. eigenvalues --  -10.26087 -10.24777 -10.22111 -10.19544 -10.18952
 Alpha  occ. eigenvalues --  -10.18613 -10.18490 -10.18082  -7.92854  -5.89317
 Alpha  occ. eigenvalues --   -5.89005  -5.88397  -1.05466  -1.01003  -0.90262
 Alpha  occ. eigenvalues --   -0.83040  -0.78430  -0.76116  -0.69591  -0.69021
 Alpha  occ. eigenvalues --   -0.68801  -0.63150  -0.60990  -0.59432  -0.53986
 Alpha  occ. eigenvalues --   -0.52734  -0.51812  -0.47983  -0.47544  -0.47123
 Alpha  occ. eigenvalues --   -0.45469  -0.44840  -0.42689  -0.42385  -0.40885
 Alpha  occ. eigenvalues --   -0.40546  -0.40055  -0.39243  -0.38615  -0.38003
 Alpha  occ. eigenvalues --   -0.35620  -0.35090  -0.34548  -0.33947  -0.32550
 Alpha  occ. eigenvalues --   -0.31381  -0.28838  -0.27666  -0.25267  -0.24562
 Alpha  occ. eigenvalues --   -0.22551
 Alpha virt. eigenvalues --   -0.00617   0.04027   0.07066   0.07895   0.09683
 Alpha virt. eigenvalues --    0.10026   0.10734   0.12103   0.12159   0.13174
 Alpha virt. eigenvalues --    0.13457   0.14396   0.15590   0.15744   0.16138

 Mulliken charges:
               1
     1  C   -0.375084
     2  C    0.265291
     3  C   -0.250064
     4  C   -0.181048
     5  C   -0.383095
     6  S   -0.213018
     7  C    0.124985
     8  C   -0.395870
     9  O   -0.268737
    10  C   -0.057079
    11  N   -0.276255
    12  C   -0.040848
    13  O   -0.418514
    14  H    0.116496
    15  H    0.129453
    16  H    0.124020
    17  H    0.105999
    18  H    0.103511
    19  H    0.106675
    20  H    0.115183
    21  H    0.115512
    22  H    0.118229
    23  H    0.095677
    24  H    0.140743
    25  H    0.131913
    26  H    0.119570
    27  H    0.101682
    28  H    0.129984
    29  H    0.230660
    30  H    0.088081
    31  H    0.111931
    32  H    0.284014
 Sum of Mulliken charges =  -0.00000

 Dipole moment (field-independent basis, Debye):
    X=             -2.8477    Y=              1.1193    Z=              1.1673  Tot=              3.2749
 Quadrupole moment (field-independent basis, Debye-Ang):
   XX=            -95.0580   YY=            -88.2256   ZZ=            -87.6284
   XY=              2.0278   XZ=             -3.1265   YZ=             -1.3107

  Exact polarizability: 173.793   8.518 131.014   0.031  -0.223 107.435
 Approx polarizability: 223.884  18.449 191.926  -0.740  -0.360 171.666

                      1                      2                      3
                      A                      A                      A
 Frequencies --     14.0616                25.8817                35.7488
 Red. masses --      4.1742                 4.7140                 3.1229
 Frc consts  --      0.0005                 0.0019                 0.0024
 IR Inten    --      0.1067                 0.8698                 0.0806

                      4                      5                      6
                      A                      A                      A
 Frequencies --     59.0398                75.2253               113.5602
 Red. masses --      2.4222                 3.3844                 2.1098
 Frc consts  --      0.0050                 0.0113                 0.0160
 IR Inten    --      0.1695                 0.5870                 0.1281

                      7                      8                      9
                      A                      A                      A
 Frequencies --    118.3667               136.0515               143.1664
 Red. masses --      4.5470                 2.9933                 3.0359
 Frc consts  --      0.0375                 0.0326                 0.0367
 IR Inten    --      1.9686                 0.3544                 2.3199

                     10                     11                     12
                      A                      A                      A
 Frequencies --    174.0476               206.2157               245.2736
 Red. masses --      3.4539                 3.3867                 1.1067
 Frc consts  --      0.0616                 0.0849                 0.0392
 IR Inten    --      0.9207                 0.2574                 0.0126

                     13                     14                     15
                      A                      A                      A
 Frequencies --    260.3957               282.0390               313.0410
 Red. masses --      1.2078                 2.8045                 4.0208
 Frc consts  --      0.0483                 0.1314                 0.2321
 IR Inten    --      0.3174                 3.1898                 0.9624

                     16                     17                     18
                      A                      A                      A
 Frequencies --    338.4794               373.3745               386.4410
 Red. masses --      3.5538                 2.7702                 2.2935
 Frc consts  --      0.2399                 0.2275                 0.2018
 IR Inten    --      1.3536                 2.0040                 4.4548

                     19                     20                     21
                      A                      A                      A
 Frequencies --    430.1841               439.2448               469.9720
 Red. masses --      3.5210                 3.0248                 2.8844
 Frc consts  --      0.3839                 0.3438                 0.3754
 IR Inten    --      1.2952                 0.5507                 7.8637

                     22                     23                     24
                      A                      A                      A
 Frequencies --    484.3942               513.7740               584.0808
 Red. masses --      2.9753                 1.3130                 1.9828
 Frc consts  --      0.4113                 0.2042                 0.3985
 IR Inten    --     17.0384               110.9895                17.9633

                     25                     26                     27
                      A                      A                      A
 Frequencies --    642.7491               706.0196               725.4175
 Red. masses --      2.8539                 2.1791                 1.9268
 Frc consts  --      0.6947                 0.6400                 0.5974
 IR Inten    --     46.8637                13.4538               101.6762

                     28                     29                     30
                      A                      A                      A
 Frequencies --    736.6957               756.7443               888.0895
 Red. masses --      1.7283                 1.0996                 1.2990
 Frc consts  --      0.5526                 0.3710                 0.6036
 IR Inten    --     23.5010                 1.0112                 1.6952

                     31                     32                     33
                      A                      A                      A
 Frequencies --    890.0774               895.7417               952.5982
 Red. masses --      1.8702                 2.7191                 2.7969
 Frc consts  --      0.8730                 1.2854                 1.4954
 IR Inten    --      5.5223                36.4366               150.5419

                     34                     35                     36
                      A                      A                      A
 Frequencies --    953.5237               954.2562               978.1154
 Red. masses --      1.6691                 1.9918                 1.9783
 Frc consts  --      0.8941                 1.0686                 1.1151
 IR Inten    --     52.0296                11.9640                25.3215

                     37                     38                     39
                      A                      A                      A
 Frequencies --   1001.3857              1035.7323              1051.4396
 Red. masses --      1.4358                 1.6117                 2.8332
 Frc consts  --      0.8483                 1.0186                 1.8454
 IR Inten    --      6.8275                29.6914                24.1135

                     40                     41                     42
                      A                      A                      A
 Frequencies --   1051.9984              1101.7383              1115.7816
 Red. masses --      4.8562                 1.8968                 3.4130
 Frc consts  --      3.1665                 1.3565                 2.5035
 IR Inten    --    144.2168                 0.7140               196.4267

                     43                     44                     45
                      A                      A                      A
 Frequencies --   1127.3818              1142.2724              1166.5854
 Red. masses --      1.5248                 2.3619                 2.0971
 Frc consts  --      1.1418                 1.8157                 1.6816
 IR Inten    --      1.4252               112.1235                13.1874

                     46                     47                     48
                      A                      A                      A
 Frequencies --   1178.8300              1201.5263              1259.4251
 Red. masses --      1.5663                 3.1004                 1.1433
 Frc consts  --      1.2824                 2.6371                 1.0685
 IR Inten    --      5.2640                93.1018                20.1111

                     49                     50                     51
                      A                      A                      A
 Frequencies --   1263.4441              1281.2861              1317.5016
 Red. masses --      1.2766                 1.2540                 1.4014
 Frc consts  --      1.2006                 1.2130                 1.4332
 IR Inten    --      6.1223                18.3962                 2.5029

                     52                     53                     54
                      A                      A                      A
 Frequencies --   1325.9938              1336.7637              1352.6448
 Red. masses --      1.0953                 1.3151                 1.1850
 Frc consts  --      1.1347                 1.3846                 1.2774
 IR Inten    --      0.6946                14.8422                23.4203

                     55                     56                     57
                      A                      A                      A
 Frequencies --   1385.6783              1393.7171              1405.0010
 Red. masses --      1.1959                 1.5875                 1.2560
 Frc consts  --      1.3529                 1.8168                 1.4609
 IR Inten    --      8.6355                 2.9502                12.6560

                     58                     59                     60
                      A                      A                      A
 Frequencies --   1413.8184              1432.7373              1435.6701
 Red. masses --      1.2281                 1.2021                 1.2638
 Frc consts  --      1.4463                 1.4539                 1.5348
 IR Inten    --      1.1889                 4.7418                18.5812

                     61                     62                     63
                      A                      A                      A
 Frequencies --   1456.3716              1467.6787              1482.9486
 Red. masses --      1.1705                 1.0748                 1.0429
 Frc consts  --      1.4627                 1.3641                 1.3512
 IR Inten    --     55.3813                 5.3703                 2.1190

                     64                     65                     66
                      A                      A                      A
 Frequencies --   1487.9337              1493.7457              1499.9070
 Red. masses --      1.0507                 1.0504                 1.1056
 Frc consts  --      1.3705                 1.3808                 1.4654
 IR Inten    --      2.3740                 1.6884                 6.9065

                     67                     68                     69
                      A                      A                      A
 Frequencies --   1500.1666              1509.6869              1517.4306
 Red. masses --      1.0404                 1.0842                 1.2209
 Frc consts  --      1.3795                 1.4559                 1.6564
 IR Inten    --      5.3297                 2.0730                42.6480

                     70                     71                     72
                      A                      A                      A
 Frequencies --   1519.6168              1679.9273              2979.6200
 Red. masses --      1.1501                 5.0343                 1.0694
 Frc consts  --      1.5648                 8.3709                 5.5939
 IR Inten    --      1.3815                13.4030                43.6740

                     73                     74                     75
                      A                      A                      A
 Frequencies --   2997.1314              3002.4284              3009.1039
 Red. masses --      1.0685                 1.0749                 1.0650
 Frc consts  --      5.6552                 5.7091                 5.6814
 IR Inten    --     18.7960                51.9887                17.9081

                     76                     77                     78
                      A                      A                      A
 Frequencies --   3026.6588              3030.1345              3031.6359
 Red. masses --      1.0607                 1.0715                 1.0579
 Frc consts  --      5.7251                 5.7967                 5.7286
 IR Inten    --     14.8263                14.7449                29.5577

                     79                     80                     81
                      A                      A                      A
 Frequencies --   3037.9324              3063.0669              3077.1704
 Red. masses --      1.0375                 1.1027                 1.0992
 Frc consts  --      5.6414                 6.0957                 6.1326
 IR Inten    --     20.1240                12.9255                23.4652

                     82                     83                     84
                      A                      A                      A
 Frequencies --   3082.1560              3098.3154              3104.9769
 Red. masses --      1.0949                 1.1024                 1.1009
 Frc consts  --      6.1282                 6.2352                 6.2535
 IR Inten    --     51.7421                48.0946                32.1152

                     85                     86                     87
                      A                      A                      A
 Frequencies --   3113.2695              3136.4518              3155.3910
 Red. masses --      1.0984                 1.1025                 1.0607
 Frc consts  --      6.2725                 6.3900                 6.2224
 IR Inten    --     15.4668                12.6064                 5.9284

                     88                     89                     90
                      A                      A                      A
 Frequencies --   3242.4790              3545.0736              3770.1303
 Red. masses --      1.1143                 1.0735                 1.0651
 Frc consts  --      6.9024                 7.9492                 8.9200
 IR Inten    --      5.9436                 4.3648               115.3041

 - Thermochemistry -
 -------------------
 Temperature   298.150 Kelvin.  Pressure   1.00000 Atm.
 Atom     1 has atomic number  6 and mass  12.00000

 Molecular mass:   205.11365 amu.
 Principal axes and moments of inertia in atomic units:
                           1         2         3
     Eigenvalues --  1604.225356374.096937228.65164
           X            0.99993  -0.01094  -0.00413
           Y            0.01086   0.99976  -0.01924
           Z            0.00434   0.01919   0.99981
 This molecule is an asymmetric top.
 Rotational symmetry number  1.
 Warning -- assumption of classical behavior for rotation
           may cause significant error
 Rotational temperatures (Kelvin)      0.05399     0.01359     0.01198
 Rotational constants (GHZ):           1.12499     0.28314     0.24966
 Zero-point vibrational energy     730912.2 (Joules/Mol)
                                  174.69221 (Kcal/Mol)
 Warning -- explicit consideration of  24 degrees of freedom as
           vibrations may cause significant error
 Vibrational temperatures:     20.23    37.24    51.43    84.95   108.23
          (Kelvin)            163.39   170.30   195.75   205.98   250.42
                              296.70   352.89   374.65   405.79   450.40
                              487.00   537.20   556.00   618.94   631.98
                              676.18   696.94   739.21   840.36   924.77
                             1015.80  1043.71  1059.94  1088.79  1277.76
                             1280.62  1288.77  1370.58  1371.91  1372.96
                             1407.29  1440.77  1490.19  1512.79  1513.59
                             1585.16  1605.36  1622.05  1643.48  1678.46
                             1696.07  1728.73  1812.03  1817.81  1843.48
                             1895.59  1907.81  1923.30  1946.15  1993.68
                             2005.25  2021.48  2034.17  2061.39  2065.61
                             2095.39  2111.66  2133.63  2140.80  2149.17
                             2158.03  2158.41  2172.10  2183.24  2186.39
                             2417.04  4287.01  4312.20  4319.82  4329.43
                             4354.69  4359.69  4361.85  4370.91  4407.07
                             4427.36  4434.54  4457.78  4467.37  4479.30
                             4512.65  4539.90  4665.20  5100.57  5424.38

 Zero-point correction=                           0.278390 (Hartree/Particle)
 Thermal correction to Energy=                    0.294967
 Thermal correction to Enthalpy=                  0.295911
 Thermal correction to Gibbs Free Energy=         0.231457
 Sum of electronic and zero-point Energies=           -957.524892
 Sum of electronic and thermal Energies=              -957.508315
 Sum of electronic and thermal Enthalpies=            -957.507371
 Sum of electronic and thermal Free Energies=         -957.571825

                     E (Thermal)             CV                S
                      KCal/Mol        Cal/Mol-Kelvin    Cal/Mol-Kelvin
 Total                  185.094             59.198            135.655
 Electronic               0.000              0.000              0.000
 Translational            0.889              2.981             41.859
 Rotational               0.889              2.981             32.669
 Vibrational            183.317             53.236             61.126
 Vibration     1          0.593              1.986              7.334
 Vibration     2          0.593              1.985              6.122
 Vibration     3          0.594              1.982              5.482
 Vibration     4          0.596              1.974              4.489
 Vibration     5          0.599              1.966              4.012
 Vibration     6          0.607              1.938              3.207
 Vibration     7          0.609              1.934              3.127
 Vibration     8          0.614              1.917              2.859
 Vibration     9          0.616              1.910              2.761
 Vibration    10          0.627              1.874              2.391
 Vibration    11          0.641              1.831              2.077
 Vibration    12          0.660              1.771              1.764
 Vibration    13          0.668              1.745              1.659
 Vibration    14          0.681              1.707              1.521
 Vibration    15          0.701              1.649              1.346
 Vibration    16          0.719              1.599              1.219
 Vibration    17          0.745              1.527              1.066
 Vibration    18          0.755              1.499              1.014
 Vibration    19          0.791              1.405              0.858
 Vibration    20          0.799              1.385              0.829
 Vibration    21          0.827              1.317              0.738
 Vibration    22          0.841              1.285              0.698
 Vibration    23          0.869              1.219              0.625
 Vibration    24          0.941              1.066              0.478

                           ! Non-Optimized Parameters !
 Normal termination of Gaussian 16 at Sun May 28 01:53:09 2023.
