 Gaussian 16, Revision A.03,
 Gaussian 16:  ES64L-G16RevA.03 25-Dec-2016

 -----------------------------
 # opt freq b3lyp/6-31g(2df,p)
 -----------------------------

 -------------------
 Title Card Required
 -------------------
 Symbolic Z-matrix:
 Charge =  0 Multiplicity = 1

 SCF Done:  E(RB3LYP) =  -500.385760325     A.U. after   13 cycles
 SCF Done:  E(RB3LYP) =  -500.394062795     A.U. after   13 cycles
 SCF Done:  E(RB3LYP) =  -500.400000558     A.U. after   13 cycles
 SCF Done:  E(RB3LYP) =  -500.403444303     A.U. after   13 cycles
 SCF Done:  E(RB3LYP) =  -500.404155102     A.U. after   11 cycles
 SCF Done:  E(RB3LYP) =  -500.405418702     A.U. after   12 cycles
 SCF Done:  E(RB3LYP) =  -500.406672053     A.U. after   11 cycles
 SCF Done:  E(RB3LYP) =  -500.407373162     A.U. after   11 cycles
 SCF Done:  E(RB3LYP) =  -500.407938545     A.U. after   11 cycles
 SCF Done:  E(RB3LYP) =  -500.408200997     A.U. after   11 cycles
 SCF Done:  E(RB3LYP) =  -500.410602585     A.U. after   12 cycles
 SCF Done:  E(RB3LYP) =  -500.410640941     A.U. after   11 cycles
 SCF Done:  E(RB3LYP) =  -500.410649330     A.U. after    9 cycles
 SCF Done:  E(RB3LYP) =  -500.410653526     A.U. after    9 cycles
 SCF Done:  E(RB3LYP) =  -500.410655796     A.U. after    7 cycles
 SCF Done:  E(RB3LYP) =  -500.410658119     A.U. after    8 cycles
 SCF Done:  E(RB3LYP) =  -500.410659109     A.U. after    7 cycles
 SCF Done:  E(RB3LYP) =  -500.410659710     A.U. after    8 cycles
 SCF Done:  E(RB3LYP) =  -500.410659767     A.U. after    6 cycles
 Optimization completed.
    -- Stationary point found.
 Normal termination of Gaussian 16 at Mon May 22 14:53:03 2023.

 ----------------------------------------------------------------------
 #N Geom=AllCheck Guess=TCheck SCRF=Check GenChk RB3LYP/6-31G(2df,p) Fr
 eq
 ----------------------------------------------------------------------

 Structure from the checkpoint file:  "CdNCCqCOrCqCCrCN.chk"
 -------------------
 Title Card Required
 -------------------
 Charge =  0 Multiplicity = 1

                         Standard orientation:
 ---------------------------------------------------------------------
 Center     Atomic      Atomic             Coordinates (Angstroms)
 Number     Number       Type             X           Y           Z
 ---------------------------------------------------------------------
      1          6           0        3.543734    1.242346    0.610620
      2          7           0        2.698565    0.784486   -0.210744
      3          6           0        1.279080    0.945643    0.091780
      4          6           0        0.424778   -0.276939   -0.319664
      5          6           0        1.068487   -1.580008    0.197139
      6          8           0        2.226567   -1.931856   -0.534814
      7          6           0       -1.048455   -0.018123    0.112597
      8          6           0       -1.705524    1.067225   -0.787649
      9          6           0       -2.528969    2.113937   -0.030798
     10          6           0       -1.905358   -1.298714    0.134025
     11          7           0       -3.304638   -1.000015    0.467954
     12          1           0        4.608456    1.140740    0.398913
     13          1           0        3.267536    1.751579    1.544684
     14          1           0        0.934949    1.826113   -0.463019
     15          1           0        1.128414    1.159023    1.163303
     16          1           0        0.446539   -0.354067   -1.415413
     17          1           0        0.384423   -2.423797    0.084347
     18          1           0        1.282184   -1.484869    1.278482
     19          1           0        2.734227   -1.116950   -0.666553
     20          1           0       -1.026168    0.363428    1.145885
     21          1           0       -2.351508    0.567448   -1.517692
     22          1           0       -0.933986    1.581261   -1.371647
     23          1           0       -3.363031    1.641762    0.493422
     24          1           0       -2.941771    2.860544   -0.717609
     25          1           0       -1.915698    2.646503    0.705898
     26          1           0       -1.460214   -2.033257    0.820699
     27          1           0       -1.893847   -1.752173   -0.865922
     28          1           0       -3.371990   -0.741821    1.448904
     29          1           0       -3.865174   -1.840121    0.363061
 ---------------------------------------------------------------------

 SCF Done:  E(RB3LYP) =  -500.410659767     A.U. after    1 cycles

 The electronic state is 1-A.
 Alpha  occ. eigenvalues --  -19.10646 -14.34463 -14.30982 -10.23506 -10.21422
 Alpha  occ. eigenvalues --  -10.21266 -10.20347 -10.18633 -10.18558 -10.17234
 Alpha  occ. eigenvalues --  -10.16423  -0.99295  -0.93145  -0.88104  -0.80738
 Alpha  occ. eigenvalues --   -0.75084  -0.70776  -0.67170  -0.63158  -0.59821
 Alpha  occ. eigenvalues --   -0.57884  -0.56272  -0.49817  -0.49018  -0.47966
 Alpha  occ. eigenvalues --   -0.46817  -0.45970  -0.44207  -0.42678  -0.41387
 Alpha  occ. eigenvalues --   -0.40457  -0.40078  -0.39142  -0.36181  -0.35018
 Alpha  occ. eigenvalues --   -0.34709  -0.34062  -0.32511  -0.31667  -0.30946
 Alpha  occ. eigenvalues --   -0.29131  -0.26250  -0.24431  -0.23603
 Alpha virt. eigenvalues --   -0.02299   0.07667   0.09390   0.10258   0.10916
 Alpha virt. eigenvalues --    0.11462   0.13108   0.13580   0.14579   0.15127
 Alpha virt. eigenvalues --    0.15408   0.15918   0.16626   0.17759   0.17865

 Mulliken charges:
               1
     1  C   -0.198990
     2  N   -0.110085
     3  C   -0.156646
     4  C   -0.045210
     5  C   -0.076525
     6  O   -0.435902
     7  C    0.042224
     8  C   -0.159288
     9  C   -0.382048
    10  C   -0.197456
    11  N   -0.508292
    12  H    0.129287
    13  H    0.106467
    14  H    0.124309
    15  H    0.089987
    16  H    0.089306
    17  H    0.100693
    18  H    0.069464
    19  H    0.286661
    20  H    0.058016
    21  H    0.105026
    22  H    0.086371
    23  H    0.127305
    24  H    0.106347
    25  H    0.100698
    26  H    0.090270
    27  H    0.106486
    28  H    0.223353
    29  H    0.228173
 Sum of Mulliken charges =  -0.00000

 Dipole moment (field-independent basis, Debye):
    X=             -0.5807    Y=              1.5025    Z=              2.1944  Tot=              2.7222
 Quadrupole moment (field-independent basis, Debye-Ang):
   XX=            -67.9878   YY=            -71.7335   ZZ=            -68.2136
   XY=             12.0829   XZ=              1.8687   YZ=             -0.9651

  Exact polarizability: 131.922   5.185 103.097   3.896   4.346  88.695
 Approx polarizability: 162.443   6.670 142.301   6.599  10.079 146.475

                      1                      2                      3
                      A                      A                      A
 Frequencies --     33.6175                59.1242                70.2328
 Red. masses --      3.1842                 2.7636                 2.6372
 Frc consts  --      0.0021                 0.0057                 0.0077
 IR Inten    --      1.7524                 0.3864                 0.3518

                      4                      5                      6
                      A                      A                      A
 Frequencies --     94.6715               114.5499               157.0876
 Red. masses --      2.6884                 3.1154                 2.2185
 Frc consts  --      0.0142                 0.0241                 0.0323
 IR Inten    --      4.4160                 3.7937                 2.8925

                      7                      8                      9
                      A                      A                      A
 Frequencies --    184.5116               218.2430               224.8560
 Red. masses --      2.6560                 3.8941                 1.3356
 Frc consts  --      0.0533                 0.1093                 0.0398
 IR Inten    --      4.8050                 3.8613                 6.1422

                     10                     11                     12
                      A                      A                      A
 Frequencies --    245.6344               276.1810               313.8801
 Red. masses --      1.6026                 1.4954                 2.5749
 Frc consts  --      0.0570                 0.0672                 0.1495
 IR Inten    --     23.6132                15.2732                 0.6325

                     13                     14                     15
                      A                      A                      A
 Frequencies --    328.1254               339.7644               364.7719
 Red. masses --      3.0878                 3.6451                 3.5451
 Frc consts  --      0.1959                 0.2479                 0.2779
 IR Inten    --      0.7293                 3.6402                 4.1777

                     16                     17                     18
                      A                      A                      A
 Frequencies --    413.0136               462.4805               518.9816
 Red. masses --      2.3752                 2.5082                 2.4190
 Frc consts  --      0.2387                 0.3161                 0.3839
 IR Inten    --      0.3271                 7.5028                 2.8436

                     19                     20                     21
                      A                      A                      A
 Frequencies --    541.8154               618.0088               683.7159
 Red. masses --      1.0687                 2.4792                 1.2530
 Frc consts  --      0.1848                 0.5579                 0.3451
 IR Inten    --     67.9246                11.5829                 2.8816

                     22                     23                     24
                      A                      A                      A
 Frequencies --    759.5736               820.6548               869.5163
 Red. masses --      1.2437                 1.7639                 1.6415
 Frc consts  --      0.4228                 0.6999                 0.7312
 IR Inten    --     10.9043                12.3713                65.2996

                     25                     26                     27
                      A                      A                      A
 Frequencies --    897.4382               904.0326               948.3162
 Red. masses --      2.0815                 1.3844                 2.5065
 Frc consts  --      0.9877                 0.6666                 1.3281
 IR Inten    --     35.1713                 0.2408                 1.8531

                     28                     29                     30
                      A                      A                      A
 Frequencies --    990.6123              1001.3615              1030.6558
 Red. masses --      1.8726                 1.9692                 2.5277
 Frc consts  --      1.0827                 1.1634                 1.5820
 IR Inten    --     11.7724                 0.8081                 1.3673

                     31                     32                     33
                      A                      A                      A
 Frequencies --   1053.4016              1066.2290              1072.7490
 Red. masses --      2.1905                 1.4100                 3.4017
 Frc consts  --      1.4321                 0.9444                 2.3064
 IR Inten    --      0.5030                18.2311                55.8521

                     34                     35                     36
                      A                      A                      A
 Frequencies --   1084.0053              1093.9082              1112.4121
 Red. masses --      2.5012                 2.1008                 2.4008
 Frc consts  --      1.7317                 1.4811                 1.7504
 IR Inten    --      4.7537                20.1003                33.7927

                     37                     38                     39
                      A                      A                      A
 Frequencies --   1147.3597              1153.0078              1192.2997
 Red. masses --      2.1836                 2.0465                 1.4321
 Frc consts  --      1.6937                 1.6029                 1.1995
 IR Inten    --      0.9758                 0.8790                 1.8067

                     40                     41                     42
                      A                      A                      A
 Frequencies --   1219.1197              1246.3192              1257.0411
 Red. masses --      1.3580                 1.3506                 1.3592
 Frc consts  --      1.1892                 1.2360                 1.2654
 IR Inten    --      2.5275                22.4608                 5.4354

                     43                     44                     45
                      A                      A                      A
 Frequencies --   1292.5903              1307.7680              1328.2098
 Red. masses --      1.1226                 1.1981                 1.1845
 Frc consts  --      1.1051                 1.2073                 1.2312
 IR Inten    --     15.6901                 1.6809                 2.1402

                     46                     47                     48
                      A                      A                      A
 Frequencies --   1336.4974              1351.1185              1374.6878
 Red. masses --      1.2554                 1.2002                 1.2999
 Frc consts  --      1.3211                 1.2909                 1.4473
 IR Inten    --      3.8116                 4.6556                 0.1178

                     49                     50                     51
                      A                      A                      A
 Frequencies --   1381.9444              1384.4992              1399.7906
 Red. masses --      1.3483                 1.3245                 1.3204
 Frc consts  --      1.5171                 1.4959                 1.5244
 IR Inten    --      0.8298                 1.5945                13.9706

                     52                     53                     54
                      A                      A                      A
 Frequencies --   1403.4688              1426.8565              1467.4805
 Red. masses --      1.2646                 1.3923                 1.0904
 Frc consts  --      1.4676                 1.6701                 1.3834
 IR Inten    --      1.5043                14.6221                 4.2687

                     55                     56                     57
                      A                      A                      A
 Frequencies --   1479.5699              1488.0258              1496.2228
 Red. masses --      1.1873                 1.0653                 1.0601
 Frc consts  --      1.5314                 1.3897                 1.3982
 IR Inten    --     51.8834                 5.3279                 2.3819

                     58                     59                     60
                      A                      A                      A
 Frequencies --   1500.1823              1512.5227              1514.1042
 Red. masses --      1.1523                 1.0789                 1.0620
 Frc consts  --      1.5279                 1.4542                 1.4345
 IR Inten    --     19.2839                 2.2180                 3.5296

                     61                     62                     63
                      A                      A                      A
 Frequencies --   1516.1363              1658.1067              1739.8744
 Red. masses --      1.0751                 1.0878                 6.4671
 Frc consts  --      1.4560                 1.7620                11.5344
 IR Inten    --      0.3491                24.6358                28.2156

                     64                     65                     66
                      A                      A                      A
 Frequencies --   2924.6578              2960.9282              2970.9798
 Red. masses --      1.0735                 1.0710                 1.0779
 Frc consts  --      5.4102                 5.5322                 5.6056
 IR Inten    --     52.3266                 9.3772                41.5242

                     67                     68                     69
                      A                      A                      A
 Frequencies --   2982.9900              3008.1523              3019.7020
 Red. masses --      1.0649                 1.0645                 1.0819
 Frc consts  --      5.5830                 5.6755                 5.8126
 IR Inten    --     62.7107                45.1336                16.4500

                     70                     71                     72
                      A                      A                      A
 Frequencies --   3027.7959              3034.4659              3041.3235
 Red. masses --      1.0398                 1.0644                 1.0942
 Frc consts  --      5.6162                 5.7744                 5.9634
 IR Inten    --     34.8685                14.8161                47.5464

                     73                     74                     75
                      A                      A                      A
 Frequencies --   3057.1281              3068.4466              3089.9831
 Red. masses --      1.0909                 1.0985                 1.1002
 Frc consts  --      6.0071                 6.0937                 6.1890
 IR Inten    --     26.1787                23.0181                52.0844

                     76                     77                     78
                      A                      A                      A
 Frequencies --   3094.7878              3125.7474              3143.2566
 Red. masses --      1.0866                 1.0991                 1.1055
 Frc consts  --      6.1316                 6.3270                 6.4352
 IR Inten    --     43.8085                25.5896                24.7210

                     79                     80                     81
                      A                      A                      A
 Frequencies --   3485.0776              3562.9984              3675.9973
 Red. masses --      1.0499                 1.0917                 1.0663
 Frc consts  --      7.5129                 8.1653                 8.4897
 IR Inten    --      0.4107                 0.2041               168.3375

 - Thermochemistry -
 -------------------
 Temperature   298.150 Kelvin.  Pressure   1.00000 Atm.
 Atom     1 has atomic number  6 and mass  12.00000

 Molecular mass:   158.14191 amu.
 Principal axes and moments of inertia in atomic units:
                           1         2         3
     Eigenvalues --  1149.228132988.702343844.72882
           X            0.99998   0.00277   0.00496
           Y           -0.00275   0.99999  -0.00416
           Z           -0.00498   0.00414   0.99998
 This molecule is an asymmetric top.
 Rotational symmetry number  1.
 Warning -- assumption of classical behavior for rotation
           may cause significant error
 Rotational temperatures (Kelvin)      0.07537     0.02898     0.02253
 Rotational constants (GHZ):           1.57039     0.60385     0.46941
 Zero-point vibrational energy     686760.3 (Joules/Mol)
                                  164.13965 (Kcal/Mol)
 Warning -- explicit consideration of  20 degrees of freedom as
           vibrations may cause significant error
 Vibrational temperatures:     48.37    85.07   101.05   136.21   164.81
          (Kelvin)            226.01   265.47   314.00   323.52   353.41
                              397.36   451.60   472.10   488.85   524.83
                              594.23   665.41   746.70   779.55   889.18
                              983.71  1092.86  1180.74  1251.04  1291.21
                             1300.70  1364.42  1425.27  1440.74  1482.88
                             1515.61  1534.07  1543.45  1559.64  1573.89
                             1600.51  1650.79  1658.92  1715.45  1754.04
                             1793.18  1808.60  1859.75  1881.59  1911.00
                             1922.92  1943.96  1977.87  1988.31  1991.99
                             2013.99  2019.28  2052.93  2111.38  2128.77
                             2140.94  2152.73  2158.43  2176.18  2178.46
                             2181.38  2385.65  2503.29  4207.93  4260.12
                             4274.58  4291.86  4328.06  4344.68  4356.32
                             4365.92  4375.79  4398.53  4414.81  4445.80
                             4452.71  4497.25  4522.45  5014.25  5126.36
                             5288.94

 Zero-point correction=                           0.261573 (Hartree/Particle)
 Thermal correction to Energy=                    0.275173
 Thermal correction to Enthalpy=                  0.276117
 Thermal correction to Gibbs Free Energy=         0.221057
 Sum of electronic and zero-point Energies=           -500.149087
 Sum of electronic and thermal Energies=              -500.135487
 Sum of electronic and thermal Enthalpies=            -500.134543
 Sum of electronic and thermal Free Energies=         -500.189603

                     E (Thermal)             CV                S
                      KCal/Mol        Cal/Mol-Kelvin    Cal/Mol-Kelvin
 Total                  172.674             49.494            115.884
 Electronic               0.000              0.000              0.000
 Translational            0.889              2.981             41.084
 Rotational               0.889              2.981             30.958
 Vibrational            170.896             43.533             43.842
 Vibration     1          0.594              1.983              5.604
 Vibration     2          0.596              1.974              4.486
 Vibration     3          0.598              1.968              4.147
 Vibration     4          0.603              1.953              3.561
 Vibration     5          0.607              1.937              3.190
 Vibration     6          0.621              1.895              2.585
 Vibration     7          0.631              1.861              2.282
 Vibration     8          0.646              1.813              1.974
 Vibration     9          0.650              1.803              1.920
 Vibration    10          0.660              1.770              1.762
 Vibration    11          0.678              1.717              1.557
 Vibration    12          0.702              1.647              1.342
 Vibration    13          0.711              1.619              1.269
 Vibration    14          0.720              1.596              1.213
 Vibration    15          0.738              1.545              1.102
 Vibration    16          0.777              1.442              0.916
 Vibration    17          0.820              1.333              0.759
 Vibration    18          0.874              1.208              0.612
 Vibration    19          0.897              1.158              0.561
 Vibration    20          0.978              0.994              0.420

                           ! Non-Optimized Parameters !
 Normal termination of Gaussian 16 at Mon May 22 16:04:45 2023.
