 Gaussian 16, Revision A.03,
 Gaussian 16:  ES64L-G16RevA.03 25-Dec-2016

 -----------------------------
 # opt freq b3lyp/6-31g(2df,p)
 -----------------------------

 -------------------
 Title Card Required
 -------------------
 Symbolic Z-matrix:
 Charge =  0 Multiplicity = 1

 SCF Done:  E(RB3LYP) =  -635.335220626     A.U. after   13 cycles
 SCF Done:  E(RB3LYP) =  -635.349706615     A.U. after   13 cycles
 SCF Done:  E(RB3LYP) =  -635.353891847     A.U. after   12 cycles
 SCF Done:  E(RB3LYP) =  -635.355557764     A.U. after   13 cycles
 SCF Done:  E(RB3LYP) =  -635.356678702     A.U. after   11 cycles
 SCF Done:  E(RB3LYP) =  -635.357589189     A.U. after   12 cycles
 SCF Done:  E(RB3LYP) =  -635.358339803     A.U. after   12 cycles
 SCF Done:  E(RB3LYP) =  -635.358689374     A.U. after   11 cycles
 SCF Done:  E(RB3LYP) =  -635.358816897     A.U. after   10 cycles
 SCF Done:  E(RB3LYP) =  -635.358837578     A.U. after    9 cycles
 SCF Done:  E(RB3LYP) =  -635.358843961     A.U. after    9 cycles
 SCF Done:  E(RB3LYP) =  -635.358847139     A.U. after    8 cycles
 SCF Done:  E(RB3LYP) =  -635.358847729     A.U. after    7 cycles
 SCF Done:  E(RB3LYP) =  -635.358847895     A.U. after    7 cycles
 Optimization completed.
    -- Stationary point found.
 Normal termination of Gaussian 16 at Sun May 28 19:56:09 2023.

 ----------------------------------------------------------------------
 #N Geom=AllCheck Guess=TCheck SCRF=Check GenChk RB3LYP/6-31G(2df,p) Fr
 eq
 ----------------------------------------------------------------------

 Structure from the checkpoint file:  "CdNCqCCNCrC1CCCCCdCN1.chk"
 -------------------
 Title Card Required
 -------------------
 Charge =  0 Multiplicity = 1

                         Standard orientation:
 ---------------------------------------------------------------------
 Center     Atomic      Atomic             Coordinates (Angstroms)
 Number     Number       Type             X           Y           Z
 ---------------------------------------------------------------------
      1          6           0       -0.854869    2.424302   -0.527064
      2          7           0       -0.492078    1.216313   -0.599705
      3          6           0       -0.720702    0.340957    0.545886
      4          6           0       -1.879612   -0.622181    0.219820
      5          6           0       -3.233800    0.063627    0.045879
      6          7           0       -4.281221   -0.916764   -0.208680
      7          6           0       -5.602120   -0.324284   -0.355721
      8          6           0        0.570251   -0.447908    0.872468
      9          6           0        1.706469    0.384968    1.516963
     10          6           0        2.481502    1.417243    0.666696
     11          6           0        3.051051    1.002937   -0.708546
     12          6           0        3.967030   -0.235037   -0.760440
     13          6           0        3.419059   -1.596636   -0.408182
     14          6           0        2.160482   -1.978007   -0.176915
     15          7           0        0.989697   -1.191560   -0.324145
     16          1           0       -0.704612    3.084421   -1.382932
     17          1           0       -1.322602    2.867445    0.364365
     18          1           0       -0.992567    0.930493    1.439587
     19          1           0       -1.947910   -1.342970    1.045775
     20          1           0       -1.632218   -1.192905   -0.677809
     21          1           0       -3.199219    0.743288   -0.814513
     22          1           0       -3.448803    0.697756    0.931242
     23          1           0       -4.297266   -1.593487    0.547898
     24          1           0       -5.623536    0.301760   -1.255422
     25          1           0       -5.914255    0.310637    0.494491
     26          1           0       -6.349050   -1.113559   -0.483383
     27          1           0        0.280188   -1.188690    1.632018
     28          1           0        2.425885   -0.334461    1.921170
     29          1           0        1.291272    0.909083    2.388575
     30          1           0        3.319393    1.761111    1.288447
     31          1           0        1.856487    2.301042    0.502485
     32          1           0        3.654213    1.849849   -1.061772
     33          1           0        2.241157    0.916781   -1.438484
     34          1           0        4.825576   -0.055781   -0.094979
     35          1           0        4.410362   -0.284415   -1.766667
     36          1           0        4.182155   -2.368148   -0.312778
     37          1           0        1.974297   -2.996357    0.166086
     38          1           0        1.067832   -0.538710   -1.090739
 ---------------------------------------------------------------------

 SCF Done:  E(RB3LYP) =  -635.358847895     A.U. after    1 cycles

 The electronic state is 1-A.
 Alpha  occ. eigenvalues --  -14.33335 -14.30648 -14.30247 -10.22691 -10.21209
 Alpha  occ. eigenvalues --  -10.20743 -10.19716 -10.19461 -10.18911 -10.18027
 Alpha  occ. eigenvalues --  -10.17516 -10.17418 -10.17365 -10.17053 -10.16703
 Alpha  occ. eigenvalues --   -0.93112  -0.89731  -0.89346  -0.79060  -0.78384
 Alpha  occ. eigenvalues --   -0.75614  -0.70701  -0.69779  -0.66318  -0.63711
 Alpha  occ. eigenvalues --   -0.60847  -0.59306  -0.57019  -0.55490  -0.53579
 Alpha  occ. eigenvalues --   -0.49143  -0.48037  -0.46668  -0.46105  -0.45641
 Alpha  occ. eigenvalues --   -0.44591  -0.43353  -0.42850  -0.42587  -0.41065
 Alpha  occ. eigenvalues --   -0.40608  -0.39793  -0.38763  -0.37938  -0.36274
 Alpha  occ. eigenvalues --   -0.35981  -0.35196  -0.34034  -0.33529  -0.32891
 Alpha  occ. eigenvalues --   -0.32436  -0.31558  -0.30741  -0.28676  -0.26044
 Alpha  occ. eigenvalues --   -0.24408  -0.21520  -0.20222
 Alpha virt. eigenvalues --   -0.01436   0.03638   0.08011   0.09025   0.10158
 Alpha virt. eigenvalues --    0.10971   0.12216   0.12604   0.13582   0.13672
 Alpha virt. eigenvalues --    0.14601   0.15164   0.15537   0.15901   0.16091

 Mulliken charges:
               1
     1  C   -0.207413
     2  N   -0.085412
     3  C   -0.009016
     4  C   -0.182526
     5  C   -0.136657
     6  N   -0.275794
     7  C   -0.307552
     8  C    0.020529
     9  C   -0.222738
    10  C   -0.179889
    11  C   -0.219487
    12  C   -0.252922
    13  C   -0.032933
    14  C   -0.053811
    15  N   -0.304866
    16  H    0.120597
    17  H    0.101538
    18  H    0.054445
    19  H    0.086344
    20  H    0.133654
    21  H    0.106195
    22  H    0.061220
    23  H    0.211788
    24  H    0.120199
    25  H    0.087781
    26  H    0.115244
    27  H    0.074019
    28  H    0.104706
    29  H    0.082962
    30  H    0.088648
    31  H    0.095887
    32  H    0.088420
    33  H    0.110071
    34  H    0.102875
    35  H    0.106015
    36  H    0.076858
    37  H    0.083293
    38  H    0.237728
 Sum of Mulliken charges =  -0.00000

 Dipole moment (field-independent basis, Debye):
    X=             -0.3073    Y=              1.8127    Z=              1.6001  Tot=              2.4373
 Quadrupole moment (field-independent basis, Debye-Ang):
   XX=            -89.2371   YY=            -91.3159   ZZ=            -94.2902
   XY=             -0.8251   XZ=             -3.9734   YZ=             -3.7362

  Exact polarizability: 184.374  -3.223 149.220  -6.698  -5.249 119.427
 Approx polarizability: 228.874  -1.879 224.730  -9.491  -6.979 191.017

                      1                      2                      3
                      A                      A                      A
 Frequencies --     36.3694                39.5779                56.5131
 Red. masses --      3.3714                 2.3153                 2.5945
 Frc consts  --      0.0026                 0.0021                 0.0049
 IR Inten    --      0.0966                 1.4624                 0.9718

                      4                      5                      6
                      A                      A                      A
 Frequencies --     79.8214                85.6899               110.0156
 Red. masses --      2.9564                 3.0445                 2.9344
 Frc consts  --      0.0111                 0.0132                 0.0209
 IR Inten    --      0.4315                 0.5044                 5.3198

                      7                      8                      9
                      A                      A                      A
 Frequencies --    131.0871               151.7783               183.7259
 Red. masses --      2.3734                 2.9781                 3.1916
 Frc consts  --      0.0240                 0.0404                 0.0635
 IR Inten    --      2.9473                 0.9224                 0.1758

                     10                     11                     12
                      A                      A                      A
 Frequencies --    213.9122               249.9294               263.7758
 Red. masses --      3.5488                 1.1925                 3.0353
 Frc consts  --      0.0957                 0.0439                 0.1244
 IR Inten    --      4.8689                 0.8964                 3.1255

                     13                     14                     15
                      A                      A                      A
 Frequencies --    273.7695               284.2053               311.6853
 Red. masses --      3.3229                 3.2927                 2.3824
 Frc consts  --      0.1467                 0.1567                 0.1364
 IR Inten    --      0.8299                 1.8272                 0.1400

                     16                     17                     18
                      A                      A                      A
 Frequencies --    318.2377               334.5860               392.0349
 Red. masses --      2.7504                 3.0170                 2.5638
 Frc consts  --      0.1641                 0.1990                 0.2322
 IR Inten    --      3.2469                 1.8724                 7.6939

                     19                     20                     21
                      A                      A                      A
 Frequencies --    416.5795               437.1792               490.1076
 Red. masses --      2.1125                 2.8104                 2.0638
 Frc consts  --      0.2160                 0.3165                 0.2921
 IR Inten    --      1.3789                 3.2713                 9.4038

                     22                     23                     24
                      A                      A                      A
 Frequencies --    505.3589               590.2966               677.5414
 Red. masses --      2.2243                 2.4143                 1.9031
 Frc consts  --      0.3347                 0.4957                 0.5147
 IR Inten    --      3.1067                 2.3130                 0.6048

                     25                     26                     27
                      A                      A                      A
 Frequencies --    701.4667               715.0502               757.2618
 Red. masses --      1.5651                 2.3256                 1.7637
 Frc consts  --      0.4537                 0.7006                 0.5959
 IR Inten    --      5.1502                32.0960                 3.3107

                     28                     29                     30
                      A                      A                      A
 Frequencies --    771.9813               776.6715               798.2248
 Red. masses --      1.4820                 1.7497                 1.6207
 Frc consts  --      0.5204                 0.6218                 0.6084
 IR Inten    --     38.8870                60.1433                10.9699

                     31                     32                     33
                      A                      A                      A
 Frequencies --    809.4517               813.1349               835.1658
 Red. masses --      2.0633                 1.7043                 2.7312
 Frc consts  --      0.7965                 0.6639                 1.1224
 IR Inten    --     16.1866                43.8503                 1.1549

                     34                     35                     36
                      A                      A                      A
 Frequencies --    870.6823               897.5498               947.8010
 Red. masses --      1.7280                 2.0079                 1.9924
 Frc consts  --      0.7718                 0.9531                 1.0545
 IR Inten    --     10.6143                 2.1863                 8.6298

                     37                     38                     39
                      A                      A                      A
 Frequencies --    965.2823               982.0150               988.2783
 Red. masses --      2.2907                 1.3365                 2.0603
 Frc consts  --      1.2575                 0.7594                 1.1856
 IR Inten    --     16.4394                 6.8929                 1.9955

                     40                     41                     42
                      A                      A                      A
 Frequencies --   1008.5679              1036.8267              1041.9270
 Red. masses --      1.8115                 2.1766                 2.1431
 Frc consts  --      1.0857                 1.3786                 1.3708
 IR Inten    --      1.7438                 7.7894                 1.6391

                     43                     44                     45
                      A                      A                      A
 Frequencies --   1060.0147              1065.6542              1093.7391
 Red. masses --      2.4404                 1.4184                 1.6795
 Frc consts  --      1.6156                 0.9490                 1.1837
 IR Inten    --      3.8195                11.5255                 6.8790

                     46                     47                     48
                      A                      A                      A
 Frequencies --   1096.9687              1115.3598              1133.7915
 Red. masses --      2.0776                 2.4859                 2.2352
 Frc consts  --      1.4730                 1.8220                 1.6929
 IR Inten    --      9.4987                 0.6527                26.7257

                     49                     50                     51
                      A                      A                      A
 Frequencies --   1142.5572              1152.2609              1162.4768
 Red. masses --      1.7481                 2.8619                 1.6679
 Frc consts  --      1.3446                 2.2387                 1.3280
 IR Inten    --     23.0570                28.5590                18.3530

                     52                     53                     54
                      A                      A                      A
 Frequencies --   1181.4154              1189.5892              1212.3799
 Red. masses --      1.2445                 1.8128                 1.2816
 Frc consts  --      1.0234                 1.5114                 1.1099
 IR Inten    --      7.0175                 5.9651                10.5030

                     55                     56                     57
                      A                      A                      A
 Frequencies --   1228.5267              1246.8868              1281.5131
 Red. masses --      1.6368                 1.4171                 1.2308
 Frc consts  --      1.4555                 1.2981                 1.1910
 IR Inten    --     26.1846                 1.2722                 0.7505

                     58                     59                     60
                      A                      A                      A
 Frequencies --   1290.6537              1301.7410              1304.8394
 Red. masses --      1.2760                 1.3164                 1.3343
 Frc consts  --      1.2523                 1.3143                 1.3385
 IR Inten    --      3.4715                 2.8092                 5.7051

                     61                     62                     63
                      A                      A                      A
 Frequencies --   1314.5032              1330.9075              1344.7724
 Red. masses --      1.1015                 1.4456                 1.2698
 Frc consts  --      1.1214                 1.5087                 1.3530
 IR Inten    --     15.4683                 5.7162                 0.8933

                     64                     65                     66
                      A                      A                      A
 Frequencies --   1361.9386              1376.0910              1381.9070
 Red. masses --      1.3459                 1.3385                 1.3094
 Frc consts  --      1.4709                 1.4934                 1.4733
 IR Inten    --      4.2970                 2.0057                10.0237

                     67                     68                     69
                      A                      A                      A
 Frequencies --   1390.2650              1396.6299              1407.6285
 Red. masses --      1.4240                 1.4518                 1.4481
 Frc consts  --      1.6216                 1.6685                 1.6905
 IR Inten    --      1.1474                11.2965                14.7652

                     70                     71                     72
                      A                      A                      A
 Frequencies --   1416.1989              1430.8739              1459.4151
 Red. masses --      1.3254                 1.3639                 1.1798
 Frc consts  --      1.5662                 1.6452                 1.4805
 IR Inten    --      5.1488                 1.9897                 2.6792

                     73                     74                     75
                      A                      A                      A
 Frequencies --   1466.8343              1471.4705              1478.4764
 Red. masses --      1.1667                 1.1127                 1.0932
 Frc consts  --      1.4790                 1.4195                 1.4079
 IR Inten    --     30.0965                12.1265                 1.6785

                     76                     77                     78
                      A                      A                      A
 Frequencies --   1479.2609              1484.9955              1490.6570
 Red. masses --      1.0935                 1.1184                 1.0890
 Frc consts  --      1.4098                 1.4531                 1.4257
 IR Inten    --     11.8531                13.7427                11.7487

                     79                     80                     81
                      A                      A                      A
 Frequencies --   1492.2520              1502.0431              1511.6480
 Red. masses --      1.1245                 1.1526                 1.0875
 Frc consts  --      1.4753                 1.5322                 1.4642
 IR Inten    --      2.7307                16.2903                 4.2535

                     82                     83                     84
                      A                      A                      A
 Frequencies --   1516.7473              1525.0129              1719.8550
 Red. masses --      1.0665                 1.0794                 6.3974
 Frc consts  --      1.4455                 1.4790                11.1491
 IR Inten    --     14.4475                 0.1597                35.1650

                     85                     86                     87
                      A                      A                      A
 Frequencies --   1739.8526              2880.6509              2930.8748
 Red. masses --      6.7275                 1.0731                 1.0607
 Frc consts  --     11.9986                 5.2466                 5.3684
 IR Inten    --     26.9461                61.9904               102.1911

                     88                     89                     90
                      A                      A                      A
 Frequencies --   2938.7335              2985.6094              2990.9823
 Red. masses --      1.0819                 1.0608                 1.0815
 Frc consts  --      5.5050                 5.5710                 5.7005
 IR Inten    --     42.8538                35.7217                20.3838

                     91                     92                     93
                      A                      A                      A
 Frequencies --   2996.6169              3002.9744              3008.0405
 Red. masses --      1.0645                 1.0966                 1.0700
 Frc consts  --      5.6319                 5.8264                 5.7044
 IR Inten    --     46.5460                15.2969                10.8038

                     94                     95                     96
                      A                      A                      A
 Frequencies --   3019.7959              3021.4087              3026.8637
 Red. masses --      1.0701                 1.0711                 1.0722
 Frc consts  --      5.7496                 5.7612                 5.7878
 IR Inten    --     17.6309                92.4034                39.7539

                     97                     98                     99
                      A                      A                      A
 Frequencies --   3045.1775              3050.4480              3057.5944
 Red. masses --      1.0827                 1.0724                 1.0897
 Frc consts  --      5.9151                 5.8795                 6.0020
 IR Inten    --     29.4721                45.5298                 3.2996

                    100                    101                    102
                      A                      A                      A
 Frequencies --   3074.7477              3083.2245              3099.5589
 Red. masses --      1.0918                 1.0940                 1.1007
 Frc consts  --      6.0818                 6.1274                 6.2302
 IR Inten    --     28.6294                64.3871                32.4844

                    103                    104                    105
                      A                      A                      A
 Frequencies --   3106.5448              3115.7479              3128.2555
 Red. masses --      1.0833                 1.0922                 1.1044
 Frc consts  --      6.1594                 6.2469                 6.3677
 IR Inten    --     17.6011                12.0333                26.9700

                    106                    107                    108
                      A                      A                      A
 Frequencies --   3137.5467              3510.2762              3594.1025
 Red. masses --      1.0930                 1.0736                 1.0724
 Frc consts  --      6.3392                 7.7940                 8.1621
 IR Inten    --     56.5539                 0.3172                10.4691

 - Thermochemistry -
 -------------------
 Temperature   298.150 Kelvin.  Pressure   1.00000 Atm.
 Atom     1 has atomic number  6 and mass  12.00000

 Molecular mass:   209.18920 amu.
 Principal axes and moments of inertia in atomic units:
                           1         2         3
     Eigenvalues --  1467.490036473.352717191.34874
           X            0.99999   0.00299  -0.00111
           Y           -0.00300   0.99995  -0.00931
           Z            0.00108   0.00931   0.99996
 This molecule is an asymmetric top.
 Rotational symmetry number  1.
 Warning -- assumption of classical behavior for rotation
           may cause significant error
 Rotational temperatures (Kelvin)      0.05902     0.01338     0.01204
 Rotational constants (GHZ):           1.22981     0.27880     0.25096
 Zero-point vibrational energy     902627.3 (Joules/Mol)
                                  215.73310 (Kcal/Mol)
 Warning -- explicit consideration of  23 degrees of freedom as
           vibrations may cause significant error
 Vibrational temperatures:     52.33    56.94    81.31   114.85   123.29
          (Kelvin)            158.29   188.61   218.38   264.34   307.77
                              359.59   379.51   393.89   408.91   448.45
                              457.87   481.39   564.05   599.36   629.00
                              705.16   727.10   849.31   974.83  1009.25
                             1028.80  1089.53  1110.71  1117.46  1148.47
                             1164.62  1169.92  1201.62  1252.72  1291.37
                             1363.67  1388.83  1412.90  1421.91  1451.10
                             1491.76  1499.10  1525.12  1533.24  1573.65
                             1578.29  1604.75  1631.27  1643.88  1657.85
                             1672.54  1699.79  1711.55  1744.34  1767.58
                             1793.99  1843.81  1856.96  1872.91  1877.37
                             1891.28  1914.88  1934.83  1959.53  1979.89
                             1988.26  2000.28  2009.44  2025.26  2037.59
                             2058.71  2099.77  2110.45  2117.12  2127.20
                             2128.33  2136.58  2144.72  2147.02  2161.11
                             2174.92  2182.26  2194.15  2474.49  2503.26
                             4144.61  4216.88  4228.18  4295.63  4303.36
                             4311.46  4320.61  4327.90  4344.81  4347.13
                             4354.98  4381.33  4388.91  4399.20  4423.88
                             4436.07  4459.57  4469.63  4482.87  4500.86
                             4514.23  5050.50  5171.11

 Zero-point correction=                           0.343793 (Hartree/Particle)
 Thermal correction to Energy=                    0.360174
 Thermal correction to Enthalpy=                  0.361118
 Thermal correction to Gibbs Free Energy=         0.299301
 Sum of electronic and zero-point Energies=           -635.015055
 Sum of electronic and thermal Energies=              -634.998674
 Sum of electronic and thermal Enthalpies=            -634.997730
 Sum of electronic and thermal Free Energies=         -635.059547

                     E (Thermal)             CV                S
                      KCal/Mol        Cal/Mol-Kelvin    Cal/Mol-Kelvin
 Total                  226.013             62.104            130.105
 Electronic               0.000              0.000              0.000
 Translational            0.889              2.981             41.918
 Rotational               0.889              2.981             32.591
 Vibrational            224.235             56.142             55.596
 Vibration     1          0.594              1.982              5.448
 Vibration     2          0.594              1.981              5.280
 Vibration     3          0.596              1.975              4.575
 Vibration     4          0.600              1.963              3.895
 Vibration     5          0.601              1.959              3.756
 Vibration     6          0.606              1.941              3.269
 Vibration     7          0.612              1.922              2.930
 Vibration     8          0.619              1.901              2.650
 Vibration     9          0.631              1.862              2.290
 Vibration    10          0.644              1.820              2.010
 Vibration    11          0.663              1.763              1.731
 Vibration    12          0.670              1.739              1.637
 Vibration    13          0.676              1.722              1.572
 Vibration    14          0.683              1.703              1.508
 Vibration    15          0.700              1.651              1.353
 Vibration    16          0.705              1.639              1.319
 Vibration    17          0.716              1.606              1.238
 Vibration    18          0.759              1.487              0.992
 Vibration    19          0.780              1.434              0.904
 Vibration    20          0.797              1.389              0.836
 Vibration    21          0.846              1.272              0.683
 Vibration    22          0.861              1.238              0.645
 Vibration    23          0.948              1.052              0.467

                           ! Non-Optimized Parameters !
 Normal termination of Gaussian 16 at Sun May 28 23:23:53 2023.
