 Gaussian 16, Revision A.03,
 Gaussian 16:  ES64L-G16RevA.03 25-Dec-2016

 -----------------------------
 # opt freq b3lyp/6-31g(2df,p)
 -----------------------------

 -------------------
 Title Card Required
 -------------------
 Symbolic Z-matrix:
 Charge =  0 Multiplicity = 1

 SCF Done:  E(RB3LYP) =  -666.658607010     A.U. after   15 cycles
 SCF Done:  E(RB3LYP) =  -666.670453356     A.U. after   12 cycles
 SCF Done:  E(RB3LYP) =  -666.671552471     A.U. after   10 cycles
 SCF Done:  E(RB3LYP) =  -666.672006734     A.U. after   10 cycles
 SCF Done:  E(RB3LYP) =  -666.672028246     A.U. after   10 cycles
 SCF Done:  E(RB3LYP) =  -666.672031420     A.U. after    8 cycles
 SCF Done:  E(RB3LYP) =  -666.672031688     A.U. after    7 cycles
 SCF Done:  E(RB3LYP) =  -666.672031266     A.U. after    7 cycles
 SCF Done:  E(RB3LYP) =  -666.672029820     A.U. after    8 cycles
 SCF Done:  E(RB3LYP) =  -666.672031575     A.U. after    7 cycles
 Optimization completed.
    -- Stationary point found.
 Normal termination of Gaussian 16 at Sun May 28 13:55:08 2023.

 ----------------------------------------------------------------------
 #N Geom=AllCheck Guess=TCheck SCRF=Check GenChk RB3LYP/6-31G(2df,p) Fr
 eq
 ----------------------------------------------------------------------

 Structure from the checkpoint file:  "CdNCCqCrdNNdCqCrCqdOrOCC.chk"
 -------------------
 Title Card Required
 -------------------
 Charge =  0 Multiplicity = 1

                         Standard orientation:
 ---------------------------------------------------------------------
 Center     Atomic      Atomic             Coordinates (Angstroms)
 Number     Number       Type             X           Y           Z
 ---------------------------------------------------------------------
      1          6           0       -6.007653   -0.468306   -0.000248
      2          7           0       -4.908871    0.153337   -0.000196
      3          6           0       -3.678978   -0.627499   -0.000169
      4          6           0       -2.406340    0.210397   -0.000031
      5          6           0       -2.473908    1.712683   -0.000143
      6          7           0       -1.327642   -0.491834    0.000170
      7          7           0       -0.174961    0.288280    0.000286
      8          6           0        0.925202   -0.374494    0.000385
      9          6           0        1.085498   -1.869254    0.000356
     10          6           0        2.161278    0.495635    0.000577
     11          8           0        2.180414    1.698996    0.000247
     12          8           0        3.274859   -0.270559    0.000134
     13          6           0        4.522896    0.447763   -0.000255
     14          6           0        5.643556   -0.573991   -0.000720
     15          1           0       -6.939460    0.098639   -0.000271
     16          1           0       -6.100038   -1.564358   -0.000269
     17          1           0       -3.642270   -1.288637   -0.876312
     18          1           0       -3.642377   -1.288766    0.875879
     19          1           0       -3.508249    2.050114   -0.000285
     20          1           0       -1.946328    2.109703   -0.872063
     21          1           0       -1.946526    2.109821    0.871843
     22          1           0        0.108511   -2.347773    0.000229
     23          1           0        1.659034   -2.188872    0.876178
     24          1           0        1.659233   -2.188817   -0.875355
     25          1           0        4.557237    1.096444    0.880849
     26          1           0        4.556620    1.096568   -0.881291
     27          1           0        5.591515   -1.212272    0.885891
     28          1           0        6.611038   -0.063245   -0.001022
     29          1           0        5.590895   -1.212147   -0.887383
 ---------------------------------------------------------------------

 SCF Done:  E(RB3LYP) =  -666.672031575     A.U. after    1 cycles

 The electronic state is 1-A.
 Alpha  occ. eigenvalues --  -19.17804 -19.11710 -14.34663 -14.34030 -14.33606
 Alpha  occ. eigenvalues --  -10.29759 -10.23845 -10.23485 -10.23274 -10.23029
 Alpha  occ. eigenvalues --  -10.22228 -10.18463 -10.17765 -10.17088  -1.09576
 Alpha  occ. eigenvalues --   -1.00762  -0.98603  -0.93140  -0.85585  -0.77825
 Alpha  occ. eigenvalues --   -0.74855  -0.71233  -0.70503  -0.66233  -0.61792
 Alpha  occ. eigenvalues --   -0.58815  -0.55819  -0.51530  -0.49002  -0.49001
 Alpha  occ. eigenvalues --   -0.47127  -0.46598  -0.46587  -0.45800  -0.43704
 Alpha  occ. eigenvalues --   -0.43636  -0.41788  -0.40801  -0.40135  -0.40070
 Alpha  occ. eigenvalues --   -0.39413  -0.38384  -0.36435  -0.36008  -0.35297
 Alpha  occ. eigenvalues --   -0.34846  -0.32759  -0.31626  -0.29497  -0.26323
 Alpha  occ. eigenvalues --   -0.26162  -0.24909  -0.22135
 Alpha virt. eigenvalues --   -0.05934  -0.02486   0.02380   0.08610   0.09814
 Alpha virt. eigenvalues --    0.10290   0.12236   0.12443   0.13549   0.14364
 Alpha virt. eigenvalues --    0.14686   0.15074   0.15522   0.16970   0.17894

 Mulliken charges:
               1
     1  C   -0.190669
     2  N   -0.105523
     3  C   -0.208338
     4  C    0.310195
     5  C   -0.465138
     6  N   -0.235773
     7  N   -0.216822
     8  C    0.195259
     9  C   -0.478088
    10  C    0.420452
    11  O   -0.356543
    12  O   -0.248729
    13  C   -0.043641
    14  C   -0.392999
    15  H    0.125471
    16  H    0.100790
    17  H    0.141692
    18  H    0.141690
    19  H    0.143667
    20  H    0.154911
    21  H    0.154916
    22  H    0.149308
    23  H    0.137178
    24  H    0.137186
    25  H    0.123850
    26  H    0.123860
    27  H    0.129034
    28  H    0.123771
    29  H    0.129035
 Sum of Mulliken charges =  -0.00000

 Dipole moment (field-independent basis, Debye):
    X=             -0.7839    Y=             -2.8228    Z=             -0.0005  Tot=              2.9296
 Quadrupole moment (field-independent basis, Debye-Ang):
   XX=            -56.0418   YY=            -86.3051   ZZ=            -80.8967
   XY=              2.6154   XZ=              0.0004   YZ=             -0.0004

  Exact polarizability: 227.056  -7.433 117.212   0.004  -0.002  78.668
 Approx polarizability: 268.139 -14.136 182.659   0.008  -0.005 125.143

 ******    4 imaginary frequencies (negative Signs) ******

                      1                      2                      3
                      A                      A                      A
 Frequencies --   -127.0722              -117.7794               -89.3369
 Red. masses --      1.5704                 1.7799                 1.8831
 Frc consts  --      0.0149                 0.0145                 0.0089
 IR Inten    --      0.5250                 8.5563                 7.1592

                      4                      5                      6
                      A                      A                      A
 Frequencies --    -15.2689                23.0386                60.5241
 Red. masses --      3.0429                 3.2908                 2.5088
 Frc consts  --      0.0004                 0.0010                 0.0054
 IR Inten    --      1.4219                 0.0191                 1.4782

                      7                      8                      9
                      A                      A                      A
 Frequencies --     61.1349                65.5088               134.8499
 Red. masses --      4.4454                 5.8890                 2.1910
 Frc consts  --      0.0098                 0.0149                 0.0235
 IR Inten    --      0.7747                 0.0786                 0.5209

                     10                     11                     12
                      A                      A                      A
 Frequencies --    139.4974               145.1493               201.1277
 Red. masses --      3.8557                 1.0774                 3.9175
 Frc consts  --      0.0442                 0.0134                 0.0934
 IR Inten    --      0.2034                 0.0027                 3.0877

                     13                     14                     15
                      A                      A                      A
 Frequencies --    255.0220               259.8568               303.5588
 Red. masses --      1.2691                 4.4767                 4.1615
 Frc consts  --      0.0486                 0.1781                 0.2259
 IR Inten    --      0.0141                 4.5961                 1.1298

                     16                     17                     18
                      A                      A                      A
 Frequencies --    322.2345               327.7794               380.0320
 Red. masses --      3.0831                 4.2616                 3.5481
 Frc consts  --      0.1886                 0.2698                 0.3019
 IR Inten    --      3.8871                 3.4620                 8.0198

                     19                     20                     21
                      A                      A                      A
 Frequencies --    402.0837               455.4112               489.5160
 Red. masses --      3.2594                 2.7489                 6.6068
 Frc consts  --      0.3105                 0.3359                 0.9328
 IR Inten    --      8.0710                 1.8414                 4.7070

                     22                     23                     24
                      A                      A                      A
 Frequencies --    510.0618               535.4064               640.7308
 Red. masses --      4.8924                 3.7631                 1.2315
 Frc consts  --      0.7499                 0.6356                 0.2979
 IR Inten    --      2.0773                 0.0593                 2.1335

                     25                     26                     27
                      A                      A                      A
 Frequencies --    641.9828               733.8253               764.5642
 Red. masses --      3.8896                 3.7137                 5.2851
 Frc consts  --      0.9445                 1.1783                 1.8203
 IR Inten    --     16.2532                 3.3364                 9.4766

                     28                     29                     30
                      A                      A                      A
 Frequencies --    807.3652               826.4752               867.2865
 Red. masses --      1.1266                 3.5440                 3.7989
 Frc consts  --      0.4327                 1.4263                 1.6836
 IR Inten    --      0.0604                 9.6358                 9.5100

                     31                     32                     33
                      A                      A                      A
 Frequencies --    900.6126               902.4792               975.5894
 Red. masses --      1.4857                 2.9406                 3.8176
 Frc consts  --      0.7100                 1.4111                 2.1408
 IR Inten    --      0.6568                 2.0139                 1.2510

                     34                     35                     36
                      A                      A                      A
 Frequencies --   1009.0956              1025.7522              1052.7687
 Red. masses --      2.2496                 1.8249                 2.9478
 Frc consts  --      1.3496                 1.1313                 1.9249
 IR Inten    --     24.1455                10.2709                 7.4198

                     37                     38                     39
                      A                      A                      A
 Frequencies --   1056.4337              1063.7131              1072.6854
 Red. masses --      1.6617                 1.5644                 1.5143
 Frc consts  --      1.0927                 1.0429                 1.0266
 IR Inten    --      0.0022                 2.4749                 9.7450

                     40                     41                     42
                      A                      A                      A
 Frequencies --   1087.7929              1134.2653              1182.8328
 Red. masses --      5.0620                 2.2174                 1.5695
 Frc consts  --      3.5291                 1.6808                 1.2938
 IR Inten    --    170.1089                27.9501                 3.8292

                     43                     44                     45
                      A                      A                      A
 Frequencies --   1183.6332              1221.6975              1245.7567
 Red. masses --      5.8944                 1.6888                 1.1042
 Frc consts  --      4.8654                 1.4851                 1.0097
 IR Inten    --    306.2721                45.2362                 1.2791

                     46                     47                     48
                      A                      A                      A
 Frequencies --   1264.6011              1287.8568              1290.6777
 Red. masses --      3.5308                 3.5086                 1.0967
 Frc consts  --      3.3268                 3.4286                 1.0764
 IR Inten    --     69.6502               498.9665                 1.0637

                     49                     50                     51
                      A                      A                      A
 Frequencies --   1350.7980              1388.2295              1389.4592
 Red. masses --      1.5468                 1.2733                 1.2302
 Frc consts  --      1.6629                 1.4458                 1.3993
 IR Inten    --     22.0741                 7.4565                54.8050

                     52                     53                     54
                      A                      A                      A
 Frequencies --   1395.4078              1421.1548              1426.0114
 Red. masses --      1.3065                 1.4022                 1.0719
 Frc consts  --      1.4989                 1.6685                 1.2842
 IR Inten    --      0.7412                 4.4622                 6.3082

                     55                     56                     57
                      A                      A                      A
 Frequencies --   1459.1246              1466.8784              1483.4934
 Red. masses --      1.0785                 1.0919                 1.0486
 Frc consts  --      1.3528                 1.3842                 1.3597
 IR Inten    --     14.2055                12.8542                 8.4866

                     58                     59                     60
                      A                      A                      A
 Frequencies --   1484.7236              1486.3355              1496.1004
 Red. masses --      1.0480                 1.0404                 1.0467
 Frc consts  --      1.3611                 1.3542                 1.3803
 IR Inten    --      2.5289                 6.8987                 1.8114

                     61                     62                     63
                      A                      A                      A
 Frequencies --   1503.2927              1519.3462              1630.1995
 Red. masses --      1.1449                 1.0848                 9.8923
 Frc consts  --      1.5244                 1.4754                15.4891
 IR Inten    --     12.2350                 4.1749                61.4929

                     64                     65                     66
                      A                      A                      A
 Frequencies --   1693.3476              1754.0318              1814.6749
 Red. masses --      9.5116                 6.7471                12.6001
 Frc consts  --     16.0693                12.2304                24.4469
 IR Inten    --     97.1183                62.5610               132.5110

                     67                     68                     69
                      A                      A                      A
 Frequencies --   2996.8869              3010.0179              3045.4805
 Red. masses --      1.0652                 1.0588                 1.0351
 Frc consts  --      5.6366                 5.6520                 5.6564
 IR Inten    --     53.8595                18.0984                17.3681

                     70                     71                     72
                      A                      A                      A
 Frequencies --   3045.4927              3049.3726              3050.5198
 Red. masses --      1.1024                 1.0400                 1.0562
 Frc consts  --      6.0240                 5.6977                 5.7910
 IR Inten    --      7.9961                10.2200                17.7249

                     73                     74                     75
                      A                      A                      A
 Frequencies --   3059.4080              3087.3929              3100.2637
 Red. masses --      1.0376                 1.1063                 1.0979
 Frc consts  --      5.7219                 6.2128                 6.2175
 IR Inten    --      2.1741                 7.0974                 7.6439

                     76                     77                     78
                      A                      A                      A
 Frequencies --   3111.9874              3120.0033              3124.6768
 Red. masses --      1.0971                 1.1010                 1.1039
 Frc consts  --      6.2601                 6.3148                 6.3502
 IR Inten    --      3.5697                23.4313                31.7304

                     79                     80                     81
                      A                      A                      A
 Frequencies --   3134.7908              3175.9899              3176.8748
 Red. masses --      1.1040                 1.1011                 1.0990
 Frc consts  --      6.3920                 6.5440                 6.5352
 IR Inten    --     31.2950                 4.9493                 3.7909

 - Thermochemistry -
 -------------------
 Temperature   298.150 Kelvin.  Pressure   1.00000 Atm.
 Atom     1 has atomic number  6 and mass  12.00000

 Molecular mass:   197.11643 amu.
 Principal axes and moments of inertia in atomic units:
                           1         2         3
     Eigenvalues --   698.099398398.374349040.94488
           X            0.99999  -0.00401  -0.00000
           Y            0.00401   0.99999  -0.00001
           Z            0.00000   0.00001   1.00000
 This molecule is an asymmetric top.
 Rotational symmetry number  1.
 Warning -- assumption of classical behavior for rotation
           may cause significant error
 Rotational temperatures (Kelvin)      0.12407     0.01031     0.00958
 Rotational constants (GHZ):           2.58522     0.21489     0.19962
    4 imaginary frequencies ignored.
 Zero-point vibrational energy     620646.8 (Joules/Mol)
                                  148.33813 (Kcal/Mol)
 Warning -- explicit consideration of  19 degrees of freedom as
           vibrations may cause significant error
 Vibrational temperatures:     33.15    87.08    87.96    94.25   194.02
          (Kelvin)            200.71   208.84   289.38   366.92   373.88
                              436.75   463.62   471.60   546.78   578.51
                              655.24   704.30   733.87   770.33   921.87
                              923.67  1055.81  1100.04  1161.62  1189.11
                             1247.83  1295.78  1298.47  1403.66  1451.86
                             1475.83  1514.70  1519.97  1530.45  1543.35
                             1565.09  1631.95  1701.83  1702.98  1757.75
                             1792.37  1819.48  1852.94  1857.00  1943.50
                             1997.35  1999.12  2007.68  2044.72  2051.71
                             2099.35  2110.51  2134.42  2136.19  2138.51
                             2152.55  2162.90  2186.00  2345.49  2436.35
                             2523.66  2610.91  4311.85  4330.74  4381.77
                             4381.78  4387.37  4389.02  4401.81  4442.07
                             4460.59  4477.46  4488.99  4495.71  4510.26
                             4569.54  4570.81

 Zero-point correction=                           0.236392 (Hartree/Particle)
 Thermal correction to Energy=                    0.250031
 Thermal correction to Enthalpy=                  0.250975
 Thermal correction to Gibbs Free Energy=         0.194254
 Sum of electronic and zero-point Energies=           -666.435640
 Sum of electronic and thermal Energies=              -666.422001
 Sum of electronic and thermal Enthalpies=            -666.421056
 Sum of electronic and thermal Free Energies=         -666.477778

                     E (Thermal)             CV                S
                      KCal/Mol        Cal/Mol-Kelvin    Cal/Mol-Kelvin
 Total                  156.897             49.629            119.380
 Electronic               0.000              0.000              0.000
 Translational            0.889              2.981             41.741
 Rotational               0.889              2.981             32.339
 Vibrational            155.119             43.668             45.301
 Vibration     1          0.593              1.985              6.353
 Vibration     2          0.597              1.973              4.440
 Vibration     3          0.597              1.973              4.420
 Vibration     4          0.597              1.971              4.284
 Vibration     5          0.613              1.919              2.876
 Vibration     6          0.615              1.914              2.811
 Vibration     7          0.617              1.908              2.735
 Vibration     8          0.638              1.838              2.123
 Vibration     9          0.665              1.754              1.696
 Vibration    10          0.668              1.746              1.663
 Vibration    11          0.695              1.667              1.397
 Vibration    12          0.707              1.631              1.299
 Vibration    13          0.711              1.620              1.271
 Vibration    14          0.750              1.513              1.039
 Vibration    15          0.768              1.466              0.955
 Vibration    16          0.814              1.349              0.780
 Vibration    17          0.845              1.273              0.685
 Vibration    18          0.865              1.228              0.633
 Vibration    19          0.890              1.172              0.575

 Optimization completed.
    -- Stationary point found.
 Normal termination of Gaussian 16 at Sun May 28 15:06:52 2023.
