 Gaussian 16, Revision A.03,
 Gaussian 16:  ES64L-G16RevA.03 25-Dec-2016

 -----------------------------
 # opt freq b3lyp/6-31g(2df,p)
 -----------------------------

 -------------------
 Title Card Required
 -------------------
 Symbolic Z-matrix:
 Charge =  0 Multiplicity = 1

 SCF Done:  E(RB3LYP) =  -988.161235879     A.U. after   14 cycles
 SCF Done:  E(RB3LYP) =  -988.171661753     A.U. after   12 cycles
 SCF Done:  E(RB3LYP) =  -988.173888675     A.U. after   13 cycles
 SCF Done:  E(RB3LYP) =  -988.174227935     A.U. after   12 cycles
 SCF Done:  E(RB3LYP) =  -988.174389130     A.U. after   12 cycles
 SCF Done:  E(RB3LYP) =  -988.174445350     A.U. after   10 cycles
 SCF Done:  E(RB3LYP) =  -988.174495188     A.U. after   11 cycles
 SCF Done:  E(RB3LYP) =  -988.174532993     A.U. after   10 cycles
 SCF Done:  E(RB3LYP) =  -988.174610620     A.U. after   12 cycles
 SCF Done:  E(RB3LYP) =  -988.174864802     A.U. after   12 cycles
 SCF Done:  E(RB3LYP) =  -988.180367177     A.U. after   12 cycles
 SCF Done:  E(RB3LYP) =  -988.180423584     A.U. after   11 cycles
 SCF Done:  E(RB3LYP) =  -988.180443964     A.U. after   10 cycles
 SCF Done:  E(RB3LYP) =  -988.180445568     A.U. after    9 cycles
 SCF Done:  E(RB3LYP) =  -988.180445774     A.U. after    8 cycles
 SCF Done:  E(RB3LYP) =  -988.180445800     A.U. after    7 cycles
 SCF Done:  E(RB3LYP) =  -988.180445817     A.U. after    6 cycles
 SCF Done:  E(RB3LYP) =  -988.180445829     A.U. after    6 cycles
 SCF Done:  E(RB3LYP) =  -988.180445837     A.U. after    6 cycles
 Optimization completed.
    -- Stationary point found.
 Normal termination of Gaussian 16 at Tue May 30 00:06:04 2023.

 ----------------------------------------------------------------------
 #N Geom=AllCheck Guess=TCheck SCRF=Check GenChk RB3LYP/6-31G(2df,p) Fr
 eq
 ----------------------------------------------------------------------

 Structure from the checkpoint file:  "CdNCNdCSCqCrCCNCNN.chk"
 -------------------
 Title Card Required
 -------------------
 Charge =  0 Multiplicity = 1

                         Standard orientation:
 ---------------------------------------------------------------------
 Center     Atomic      Atomic             Coordinates (Angstroms)
 Number     Number       Type             X           Y           Z
 ---------------------------------------------------------------------
      1          6           0        7.121728    0.193683   -0.019493
      2          7           0        5.936635    0.616467    0.092315
      3          6           0        5.023262   -0.172458    0.911506
      4          7           0        3.959773   -0.696293    0.071919
      5          6           0        2.796299   -0.240618    0.261086
      6         16           0        1.417505   -0.829109   -0.664324
      7          6           0        0.091165    0.308214   -0.058456
      8          6           0        0.240486    1.709239   -0.656980
      9          6           0       -1.253358   -0.360192   -0.385698
     10          6           0       -2.462620    0.372776    0.204242
     11          7           0       -3.687917   -0.356128   -0.099173
     12          6           0       -4.896511    0.256550    0.414150
     13          7           0       -6.063454   -0.288994   -0.275750
     14          7           0       -7.296740   -0.059918    0.397707
     15          1           0        7.836037    0.756108   -0.622623
     16          1           0        7.492937   -0.723597    0.460950
     17          1           0        4.639390    0.492654    1.704216
     18          1           0        5.531294   -1.026660    1.390132
     19          1           0        2.548601    0.520942    1.017480
     20          1           0        0.205462    0.354862    1.030717
     21          1           0        0.113392    1.680309   -1.743568
     22          1           0        1.227743    2.128948   -0.447045
     23          1           0       -0.506274    2.393463   -0.239732
     24          1           0       -1.238627   -1.386297    0.002412
     25          1           0       -1.381835   -0.437010   -1.471517
     26          1           0       -2.554768    1.370714   -0.239309
     27          1           0       -2.303464    0.524983    1.289949
     28          1           0       -3.609190   -1.304680    0.256501
     29          1           0       -4.845652    1.336291    0.218420
     30          1           0       -5.002905    0.143822    1.520492
     31          1           0       -5.956691   -1.292886   -0.379810
     32          1           0       -7.617434    0.868391    0.137122
     33          1           0       -7.158871   -0.043720    1.413131
 ---------------------------------------------------------------------

 SCF Done:  E(RB3LYP) =  -988.180445837     A.U. after    1 cycles

 The electronic state is 1-A.
 Alpha  occ. eigenvalues --  -88.88235 -14.33484 -14.33361 -14.32886 -14.32457
 Alpha  occ. eigenvalues --  -14.32035 -10.25109 -10.23587 -10.23391 -10.23265
 Alpha  occ. eigenvalues --  -10.22475 -10.21908 -10.19707 -10.18936  -7.94584
 Alpha  occ. eigenvalues --   -5.91018  -5.90679  -5.90197  -0.96384  -0.94477
 Alpha  occ. eigenvalues --   -0.90959  -0.89915  -0.83182  -0.77475  -0.74619
 Alpha  occ. eigenvalues --   -0.71684  -0.69016  -0.64895  -0.63027  -0.59229
 Alpha  occ. eigenvalues --   -0.57630  -0.56105  -0.51015  -0.49806  -0.49502
 Alpha  occ. eigenvalues --   -0.48086  -0.47581  -0.47282  -0.46980  -0.46249
 Alpha  occ. eigenvalues --   -0.44894  -0.43043  -0.41520  -0.40864  -0.39091
 Alpha  occ. eigenvalues --   -0.38529  -0.37861  -0.35955  -0.35206  -0.34506
 Alpha  occ. eigenvalues --   -0.33953  -0.32258  -0.31342  -0.25782  -0.25381
 Alpha  occ. eigenvalues --   -0.25066  -0.24037  -0.23093  -0.22647
 Alpha virt. eigenvalues --   -0.02021   0.00723   0.02769   0.06940   0.07752
 Alpha virt. eigenvalues --    0.08339   0.08441   0.09974   0.11294   0.11580
 Alpha virt. eigenvalues --    0.12322   0.13049   0.14351   0.14803   0.15062

 Mulliken charges:
               1
     1  C   -0.191753
     2  N   -0.076227
     3  C   -0.119035
     4  N   -0.160633
     5  C    0.010707
     6  S   -0.088405
     7  C   -0.014272
     8  C   -0.390289
     9  C   -0.213923
    10  C   -0.142248
    11  N   -0.303698
    12  C   -0.056933
    13  N   -0.269897
    14  N   -0.468616
    15  H    0.122655
    16  H    0.102357
    17  H    0.090042
    18  H    0.093608
    19  H    0.102195
    20  H    0.106653
    21  H    0.136339
    22  H    0.128995
    23  H    0.122175
    24  H    0.111298
    25  H    0.128672
    26  H    0.114380
    27  H    0.078241
    28  H    0.213114
    29  H    0.103619
    30  H    0.052405
    31  H    0.224828
    32  H    0.242202
    33  H    0.211444
 Sum of Mulliken charges =  -0.00000

 Dipole moment (field-independent basis, Debye):
    X=             -0.0057    Y=              1.2584    Z=              3.7690  Tot=              3.9735
 Quadrupole moment (field-independent basis, Debye-Ang):
   XX=            -97.8013   YY=            -92.8876   ZZ=            -94.0038
   XY=             -5.2499   XZ=             -3.7905   YZ=             -1.3021

  Exact polarizability: 241.488  -6.451 117.631   0.639   1.506 110.328
 Approx polarizability: 275.694 -14.229 186.954   2.216   7.436 178.532

                      1                      2                      3
                      A                      A                      A
 Frequencies --     15.7015                22.9581                33.4077
 Red. masses --      5.0070                 4.4689                 2.7902
 Frc consts  --      0.0007                 0.0014                 0.0018
 IR Inten    --      0.2768                 0.7208                 2.8402

                      4                      5                      6
                      A                      A                      A
 Frequencies --     43.0217                46.2114                61.3545
 Red. masses --      3.2223                 3.0450                 3.7432
 Frc consts  --      0.0035                 0.0038                 0.0083
 IR Inten    --      2.1944                 1.5203                 3.1639

                      7                      8                      9
                      A                      A                      A
 Frequencies --     89.8347                98.0315               105.0690
 Red. masses --      3.0724                 2.9816                 3.2060
 Frc consts  --      0.0146                 0.0169                 0.0209
 IR Inten    --      5.5830                 4.0583                 2.0862

                     10                     11                     12
                      A                      A                      A
 Frequencies --    110.8460               150.7872               186.8328
 Red. masses --      2.5687                 2.6115                 5.1451
 Frc consts  --      0.0186                 0.0350                 0.1058
 IR Inten    --      2.1588                 0.8467                 0.5204

                     13                     14                     15
                      A                      A                      A
 Frequencies --    211.5580               232.3923               250.6510
 Red. masses --      3.2955                 2.5950                 1.2647
 Frc consts  --      0.0869                 0.0826                 0.0468
 IR Inten    --      5.2174                 2.1042                 0.8572

                     16                     17                     18
                      A                      A                      A
 Frequencies --    290.9860               321.6912               360.6731
 Red. masses --      3.2779                 3.2705                 1.7694
 Frc consts  --      0.1635                 0.1994                 0.1356
 IR Inten    --      2.6670                 7.2115                18.1292

                     19                     20                     21
                      A                      A                      A
 Frequencies --    369.3591               380.6990               433.0161
 Red. masses --      2.0512                 3.6120                 2.6033
 Frc consts  --      0.1649                 0.3084                 0.2876
 IR Inten    --      8.2388                 1.8187                 1.5850

                     22                     23                     24
                      A                      A                      A
 Frequencies --    450.1682               451.3501               529.1961
 Red. masses --      3.1418                 3.3951                 2.5771
 Frc consts  --      0.3751                 0.4075                 0.4252
 IR Inten    --      0.9044                 4.2037                15.2419

                     25                     26                     27
                      A                      A                      A
 Frequencies --    543.4963               699.7352               740.4956
 Red. masses --      3.2900                 3.6421                 1.4442
 Frc consts  --      0.5726                 1.0507                 0.4666
 IR Inten    --      3.0082                 7.2719                 2.6797

                     28                     29                     30
                      A                      A                      A
 Frequencies --    771.7886               778.5626               794.7294
 Red. masses --      1.2042                 1.5706                 1.2219
 Frc consts  --      0.4226                 0.5609                 0.4547
 IR Inten    --     49.4950               124.5588                 0.9947

                     31                     32                     33
                      A                      A                      A
 Frequencies --    853.4559               894.6764               925.6986
 Red. masses --      4.0655                 2.3897                 1.7261
 Frc consts  --      1.7447                 1.1270                 0.8715
 IR Inten    --     84.3955                 2.4892                15.6090

                     34                     35                     36
                      A                      A                      A
 Frequencies --    952.6368               971.6789              1002.2577
 Red. masses --      1.4537                 1.2909                 2.8762
 Frc consts  --      0.7773                 0.7181                 1.7023
 IR Inten    --    107.9584                 0.8514                 8.6632

                     37                     38                     39
                      A                      A                      A
 Frequencies --   1016.7337              1040.4513              1046.5213
 Red. masses --      1.9530                 4.0665                 2.9759
 Frc consts  --      1.1895                 2.5937                 1.9203
 IR Inten    --     25.3528                17.8350                 1.2396

                     40                     41                     42
                      A                      A                      A
 Frequencies --   1056.7957              1073.4424              1076.9094
 Red. masses --      1.9072                 1.3574                 1.8925
 Frc consts  --      1.2549                 0.9216                 1.2932
 IR Inten    --     11.4176                12.5626                 4.3471

                     43                     44                     45
                      A                      A                      A
 Frequencies --   1105.9130              1113.9692              1143.6917
 Red. masses --      1.7260                 2.3753                 2.1128
 Frc consts  --      1.2437                 1.7366                 1.6282
 IR Inten    --     17.1331                 6.6974                 6.7250

                     46                     47                     48
                      A                      A                      A
 Frequencies --   1159.5982              1164.7811              1197.4033
 Red. masses --      2.8634                 3.3100                 1.8291
 Frc consts  --      2.2685                 2.6459                 1.5451
 IR Inten    --      9.9373               146.6108                29.0744

                     49                     50                     51
                      A                      A                      A
 Frequencies --   1212.5316              1214.7226              1242.2583
 Red. masses --      1.3334                 1.3585                 1.2238
 Frc consts  --      1.1551                 1.1810                 1.1128
 IR Inten    --     22.7650                11.9280                 3.1196

                     52                     53                     54
                      A                      A                      A
 Frequencies --   1270.1951              1286.8548              1320.0461
 Red. masses --      1.1990                 1.3100                 1.2491
 Frc consts  --      1.1398                 1.2782                 1.2824
 IR Inten    --      9.4339                17.7753                 1.5822

                     55                     56                     57
                      A                      A                      A
 Frequencies --   1327.8611              1333.6132              1342.2004
 Red. masses --      1.1875                 1.1939                 1.2150
 Frc consts  --      1.2336                 1.2510                 1.2896
 IR Inten    --      5.5506                 1.3565                43.8823

                     58                     59                     60
                      A                      A                      A
 Frequencies --   1358.8955              1385.1717              1391.5449
 Red. masses --      1.2960                 1.3213                 1.2876
 Frc consts  --      1.4100                 1.4937                 1.4690
 IR Inten    --     11.4108                45.0249               127.4652

                     61                     62                     63
                      A                      A                      A
 Frequencies --   1415.4746              1427.8262              1483.0052
 Red. masses --      1.2297                 1.3774                 1.0657
 Frc consts  --      1.4516                 1.6545                 1.3810
 IR Inten    --      4.4600                 0.6297                 0.8725

                     64                     65                     66
                      A                      A                      A
 Frequencies --   1489.1552              1491.6283              1493.7942
 Red. masses --      1.1432                 1.1045                 1.1069
 Frc consts  --      1.4937                 1.4479                 1.4552
 IR Inten    --     35.9008                15.2603                29.0921

                     67                     68                     69
                      A                      A                      A
 Frequencies --   1499.4035              1503.3173              1515.1939
 Red. masses --      1.0587                 1.1312                 1.1529
 Frc consts  --      1.4024                 1.5062                 1.5594
 IR Inten    --     14.1161                 2.4865                 0.8475

                     70                     71                     72
                      A                      A                      A
 Frequencies --   1518.7514              1531.7483              1686.5752
 Red. masses --      1.0975                 1.1053                 1.0654
 Frc consts  --      1.4915                 1.5280                 1.7855
 IR Inten    --      3.8050                 0.6721                15.0247

                     73                     74                     75
                      A                      A                      A
 Frequencies --   1696.9049              1745.9557              2795.4182
 Red. masses --      9.1201                 6.5052                 1.0730
 Frc consts  --     15.4726                11.6836                 4.9403
 IR Inten    --    390.9743                13.8835               132.8984

                     76                     77                     78
                      A                      A                      A
 Frequencies --   2905.6654              2936.1731              2978.9192
 Red. masses --      1.0731                 1.0528                 1.1041
 Frc consts  --      5.3378                 5.3479                 5.7729
 IR Inten    --     71.9624                64.0808                58.3715

                     79                     80                     81
                      A                      A                      A
 Frequencies --   2979.2398              2997.6600              3020.2102
 Red. masses --      1.0896                 1.0656                 1.0840
 Frc consts  --      5.6979                 5.6418                 5.8256
 IR Inten    --     20.2198                60.7254                34.1546

                     82                     83                     84
                      A                      A                      A
 Frequencies --   3027.0270              3035.6516              3035.8912
 Red. masses --      1.0613                 1.0474                 1.0744
 Frc consts  --      5.7297                 5.6868                 5.8345
 IR Inten    --     10.2010                 9.2538                 9.4045

                     85                     86                     87
                      A                      A                      A
 Frequencies --   3052.5934              3079.2451              3104.9818
 Red. masses --      1.0819                 1.1014                 1.0999
 Frc consts  --      5.9397                 6.1528                 6.2477
 IR Inten    --     26.6929                32.8942                28.7060

                     88                     89                     90
                      A                      A                      A
 Frequencies --   3119.0840              3134.4018              3366.3136
 Red. masses --      1.1020                 1.1039                 1.0569
 Frc consts  --      6.3165                 6.3901                 7.0564
 IR Inten    --     16.8223                32.8085                22.8696

                     91                     92                     93
                      A                      A                      A
 Frequencies --   3498.9330              3508.6118              3525.6744
 Red. masses --      1.0732                 1.0770                 1.0808
 Frc consts  --      7.7413                 7.8113                 7.9154
 IR Inten    --      0.3896                 1.9523                 0.2402

 - Thermochemistry -
 -------------------
 Temperature   298.150 Kelvin.  Pressure   1.00000 Atm.
 Atom     1 has atomic number  6 and mass  12.00000

 Molecular mass:   217.13612 amu.
 Principal axes and moments of inertia in atomic units:
                           1         2         3
     Eigenvalues --   579.57460********************
           X            1.00000  -0.00100  -0.00064
           Y            0.00096   0.99797  -0.06370
           Z            0.00070   0.06369   0.99797
 This molecule is an asymmetric top.
 Rotational symmetry number  1.
 Warning -- assumption of classical behavior for rotation
           may cause significant error
 Rotational temperatures (Kelvin)      0.14944     0.00596     0.00589
 Rotational constants (GHZ):           3.11391     0.12409     0.12265
 Zero-point vibrational energy     745617.7 (Joules/Mol)
                                  178.20690 (Kcal/Mol)
 Warning -- explicit consideration of  25 degrees of freedom as
           vibrations may cause significant error
 Vibrational temperatures:     22.59    33.03    48.07    61.90    66.49
          (Kelvin)             88.28   129.25   141.05   151.17   159.48
                              216.95   268.81   304.38   334.36   360.63
                              418.66   462.84   518.93   531.43   547.74
                              623.01   647.69   649.39   761.40   781.97
                             1006.76  1065.41  1110.43  1120.18  1143.44
                             1227.93  1287.24  1331.87  1370.63  1398.03
                             1442.03  1462.85  1496.98  1505.71  1520.49
                             1544.44  1549.43  1591.16  1602.75  1645.52
                             1668.40  1675.86  1722.80  1744.56  1747.71
                             1787.33  1827.53  1851.50  1899.25  1910.50
                             1918.77  1931.13  1955.15  1992.95  2002.12
                             2036.55  2054.32  2133.71  2142.56  2146.12
                             2149.24  2157.31  2162.94  2180.03  2185.14
                             2203.84  2426.61  2441.47  2512.04  4021.98
                             4180.60  4224.50  4286.00  4286.46  4312.96
                             4345.41  4355.22  4367.63  4367.97  4392.00
                             4430.35  4467.38  4487.67  4509.71  4843.37
                             5034.18  5048.11  5072.66

 Zero-point correction=                           0.283991 (Hartree/Particle)
 Thermal correction to Energy=                    0.301996
 Thermal correction to Enthalpy=                  0.302941
 Thermal correction to Gibbs Free Energy=         0.233603
 Sum of electronic and zero-point Energies=           -987.896455
 Sum of electronic and thermal Energies=              -987.878449
 Sum of electronic and thermal Enthalpies=            -987.877505
 Sum of electronic and thermal Free Energies=         -987.946843

                     E (Thermal)             CV                S
                      KCal/Mol        Cal/Mol-Kelvin    Cal/Mol-Kelvin
 Total                  189.506             61.681            145.933
 Electronic               0.000              0.000              0.000
 Translational            0.889              2.981             42.029
 Rotational               0.889              2.981             33.183
 Vibrational            187.728             55.719             70.720
 Vibration     1          0.593              1.986              7.115
 Vibration     2          0.593              1.985              6.360
 Vibration     3          0.594              1.983              5.616
 Vibration     4          0.595              1.980              5.115
 Vibration     5          0.595              1.979              4.973
 Vibration     6          0.597              1.973              4.413
 Vibration     7          0.602              1.956              3.664
 Vibration     8          0.603              1.951              3.493
 Vibration     9          0.605              1.945              3.358
 Vibration    10          0.607              1.940              3.254
 Vibration    11          0.618              1.902              2.662
 Vibration    12          0.632              1.858              2.259
 Vibration    13          0.643              1.823              2.030
 Vibration    14          0.653              1.791              1.860
 Vibration    15          0.663              1.762              1.726
 Vibration    16          0.687              1.691              1.468
 Vibration    17          0.707              1.632              1.301
 Vibration    18          0.735              1.553              1.119
 Vibration    19          0.742              1.535              1.082
 Vibration    20          0.750              1.511              1.036
 Vibration    21          0.794              1.398              0.849
 Vibration    22          0.809              1.361              0.795
 Vibration    23          0.810              1.358              0.792
 Vibration    24          0.884              1.185              0.589
 Vibration    25          0.899              1.154              0.558

 Optimization completed.
    -- Stationary point found.
 Normal termination of Gaussian 16 at Tue May 30 01:30:12 2023.
