 Gaussian 16, Revision A.03,
 Gaussian 16:  ES64L-G16RevA.03 25-Dec-2016

 -----------------------------
 # opt freq b3lyp/6-31g(2df,p)
 -----------------------------

 -------------------
 Title Card Required
 -------------------
 Symbolic Z-matrix:
 Charge =  0 Multiplicity = 1

 SCF Done:  E(RB3LYP) =  -636.923625368     A.U. after   14 cycles
 SCF Done:  E(RB3LYP) =  -636.930500810     A.U. after   12 cycles
 SCF Done:  E(RB3LYP) =  -636.934866631     A.U. after   11 cycles
 SCF Done:  E(RB3LYP) =  -636.935931196     A.U. after   11 cycles
 SCF Done:  E(RB3LYP) =  -636.936395340     A.U. after   11 cycles
 SCF Done:  E(RB3LYP) =  -636.936661152     A.U. after   11 cycles
 SCF Done:  E(RB3LYP) =  -636.937010860     A.U. after   11 cycles
 SCF Done:  E(RB3LYP) =  -636.938241421     A.U. after   12 cycles
 SCF Done:  E(RB3LYP) =  -636.936912303     A.U. after   12 cycles
 SCF Done:  E(RB3LYP) =  -636.938315069     A.U. after   12 cycles
 SCF Done:  E(RB3LYP) =  -636.942512314     A.U. after   11 cycles
 SCF Done:  E(RB3LYP) =  -636.942560784     A.U. after   10 cycles
 SCF Done:  E(RB3LYP) =  -636.942668609     A.U. after   10 cycles
 SCF Done:  E(RB3LYP) =  -636.942688278     A.U. after   10 cycles
 SCF Done:  E(RB3LYP) =  -636.942691912     A.U. after    8 cycles
 SCF Done:  E(RB3LYP) =  -636.942692698     A.U. after    8 cycles
 SCF Done:  E(RB3LYP) =  -636.942692893     A.U. after    8 cycles
 SCF Done:  E(RB3LYP) =  -636.942693138     A.U. after    6 cycles
 SCF Done:  E(RB3LYP) =  -636.942693168     A.U. after    6 cycles
 Optimization completed.
    -- Stationary point found.
 Normal termination of Gaussian 16 at Mon May 29 16:33:53 2023.

 ----------------------------------------------------------------------
 #N Geom=AllCheck Guess=TCheck SCRF=Check GenChk RB3LYP/6-31G(2df,p) Fr
 eq
 ----------------------------------------------------------------------

 Structure from the checkpoint file:  "CdNCC1CCCC1CCCCOO.chk"
 -------------------
 Title Card Required
 -------------------
 Charge =  0 Multiplicity = 1

                         Standard orientation:
 ---------------------------------------------------------------------
 Center     Atomic      Atomic             Coordinates (Angstroms)
 Number     Number       Type             X           Y           Z
 ---------------------------------------------------------------------
      1          6           0        1.054801    3.196168    0.730580
      2          7           0        1.158368    2.438090   -0.274863
      3          6           0        2.389985    1.688543   -0.449251
      4          6           0        2.131523    0.184615   -0.625041
      5          6           0        3.425413   -0.558371   -1.051400
      6          6           0        3.340714   -1.932369   -0.374550
      7          6           0        2.713390   -1.595037    0.985639
      8          6           0        1.617883   -0.545415    0.663637
      9          6           0        0.237739   -1.203169    0.472820
     10          6           0       -0.928569   -0.216957    0.339199
     11          6           0       -2.268392   -0.919499    0.089616
     12          6           0       -3.424804    0.069193   -0.008241
     13          8           0       -4.599464   -0.695294   -0.241831
     14          8           0       -5.713005    0.225437   -0.249806
     15          1           0        0.139194    3.770491    0.880008
     16          1           0        1.847715    3.323776    1.482886
     17          1           0        3.100008    1.853004    0.381535
     18          1           0        2.867059    2.063547   -1.364882
     19          1           0        1.379937    0.080300   -1.415056
     20          1           0        4.303091   -0.019984   -0.668920
     21          1           0        3.534862   -0.611129   -2.138684
     22          1           0        4.310559   -2.431791   -0.292795
     23          1           0        2.680004   -2.597763   -0.943548
     24          1           0        3.478320   -1.151567    1.634845
     25          1           0        2.315028   -2.468457    1.510931
     26          1           0        1.531732    0.170114    1.490442
     27          1           0        0.041287   -1.863249    1.328218
     28          1           0        0.266359   -1.856261   -0.411105
     29          1           0       -0.728108    0.500004   -0.465302
     30          1           0       -0.995160    0.381515    1.258044
     31          1           0       -2.480889   -1.631590    0.896235
     32          1           0       -2.219178   -1.502444   -0.838412
     33          1           0       -3.266201    0.782091   -0.831352
     34          1           0       -3.535101    0.642980    0.921556
     35          1           0       -5.917440    0.252425   -1.195574
 ---------------------------------------------------------------------

 SCF Done:  E(RB3LYP) =  -636.942693168     A.U. after    1 cycles

 The electronic state is 1-A.
 Alpha  occ. eigenvalues --  -19.18162 -19.18031 -14.33057 -10.22362 -10.22115
 Alpha  occ. eigenvalues --  -10.20723 -10.18282 -10.18000 -10.17877 -10.17718
 Alpha  occ. eigenvalues --  -10.17613 -10.17480 -10.17440 -10.17400  -1.10490
 Alpha  occ. eigenvalues --   -0.92143  -0.90156  -0.83947  -0.78764  -0.74409
 Alpha  occ. eigenvalues --   -0.73322  -0.68225  -0.66014  -0.61182  -0.58143
 Alpha  occ. eigenvalues --   -0.57812  -0.56845  -0.54238  -0.51769  -0.48416
 Alpha  occ. eigenvalues --   -0.48001  -0.47479  -0.46746  -0.45425  -0.44986
 Alpha  occ. eigenvalues --   -0.43668  -0.41815  -0.41169  -0.40139  -0.38613
 Alpha  occ. eigenvalues --   -0.37713  -0.36251  -0.35577  -0.34281  -0.33598
 Alpha  occ. eigenvalues --   -0.33271  -0.32428  -0.31972  -0.31194  -0.31053
 Alpha  occ. eigenvalues --   -0.30058  -0.29287  -0.28379  -0.25428  -0.25367
 Alpha virt. eigenvalues --   -0.00857   0.04297   0.08263   0.08829   0.09019
 Alpha virt. eigenvalues --    0.10114   0.11018   0.12358   0.12566   0.13678
 Alpha virt. eigenvalues --    0.14168   0.14787   0.15440   0.16327   0.16604

 Mulliken charges:
               1
     1  C   -0.206626
     2  N   -0.080582
     3  C   -0.175357
     4  C    0.032984
     5  C   -0.224569
     6  C   -0.204844
     7  C   -0.222101
     8  C    0.006958
     9  C   -0.195545
    10  C   -0.193625
    11  C   -0.212241
    12  C   -0.010027
    13  O   -0.192921
    14  O   -0.325129
    15  H    0.119288
    16  H    0.097449
    17  H    0.078961
    18  H    0.109365
    19  H    0.079876
    20  H    0.092581
    21  H    0.094428
    22  H    0.091994
    23  H    0.099119
    24  H    0.089016
    25  H    0.089429
    26  H    0.060238
    27  H    0.089301
    28  H    0.090533
    29  H    0.121503
    30  H    0.091480
    31  H    0.108321
    32  H    0.103908
    33  H    0.087490
    34  H    0.101300
    35  H    0.308043
 Sum of Mulliken charges =  -0.00000

 Dipole moment (field-independent basis, Debye):
    X=              2.3438    Y=              0.8699    Z=             -0.3595  Tot=              2.5258
 Quadrupole moment (field-independent basis, Debye-Ang):
   XX=            -93.1428   YY=            -86.1689   ZZ=            -83.4729
   XY=             -2.4686   XZ=              8.0783   YZ=              2.8310

  Exact polarizability: 158.155 -11.898 132.580  -0.909   6.099 114.783
 Approx polarizability: 193.158 -11.185 185.877   0.354  13.268 187.419

                      1                      2                      3
                      A                      A                      A
 Frequencies --     31.9044                39.0523                53.2038
 Red. masses --      3.9181                 4.7126                 2.2176
 Frc consts  --      0.0023                 0.0042                 0.0037
 IR Inten    --      0.1470                 0.6941                 7.4975

                      4                      5                      6
                      A                      A                      A
 Frequencies --     71.7778                85.5109                98.5991
 Red. masses --      3.3228                 3.6368                 3.5538
 Frc consts  --      0.0101                 0.0157                 0.0204
 IR Inten    --      0.5123                 1.0103                 1.5050

                      7                      8                      9
                      A                      A                      A
 Frequencies --    106.2574               134.0606               150.9212
 Red. masses --      2.6553                 2.1106                 2.5065
 Frc consts  --      0.0177                 0.0223                 0.0336
 IR Inten    --      6.1775                 4.1309                 1.0726

                     10                     11                     12
                      A                      A                      A
 Frequencies --    174.3984               196.2533               224.1310
 Red. masses --      3.2131                 2.5908                 1.1885
 Frc consts  --      0.0576                 0.0588                 0.0352
 IR Inten    --      1.5965                 4.3282               102.3103

                     13                     14                     15
                      A                      A                      A
 Frequencies --    225.3127               263.0491               309.6453
 Red. masses --      3.4166                 2.7277                 2.3987
 Frc consts  --      0.1022                 0.1112                 0.1355
 IR Inten    --      1.6171                 0.5191                 0.2511

                     16                     17                     18
                      A                      A                      A
 Frequencies --    350.0699               377.3503               441.1495
 Red. masses --      2.6260                 4.1507                 2.5784
 Frc consts  --      0.1896                 0.3482                 0.2957
 IR Inten    --      0.9868                 2.5345                 3.9630

                     19                     20                     21
                      A                      A                      A
 Frequencies --    459.0538               492.1256               536.6653
 Red. masses --      3.1950                 2.7601                 2.7249
 Frc consts  --      0.3967                 0.3938                 0.4624
 IR Inten    --      2.7314                 2.4811                 6.8962

                     22                     23                     24
                      A                      A                      A
 Frequencies --    564.9161               637.8403               723.5813
 Red. masses --      1.8749                 2.3069                 1.3616
 Frc consts  --      0.3525                 0.5530                 0.4200
 IR Inten    --      2.5807                 0.8694                 1.3492

                     25                     26                     27
                      A                      A                      A
 Frequencies --    742.5373               781.2881               830.6137
 Red. masses --      1.1535                 1.4365                 1.5644
 Frc consts  --      0.3747                 0.5166                 0.6359
 IR Inten    --      2.5354                 1.6153                 0.2522

                     28                     29                     30
                      A                      A                      A
 Frequencies --    855.7397               881.4858               914.2756
 Red. masses --      1.7818                 1.8328                 2.0326
 Frc consts  --      0.7688                 0.8391                 1.0010
 IR Inten    --      0.7286                 1.3338                 1.6013

                     31                     32                     33
                      A                      A                      A
 Frequencies --    924.8443               938.8053               943.2476
 Red. masses --      2.3976                 8.9133                 1.3425
 Frc consts  --      1.2083                 4.6285                 0.7037
 IR Inten    --      1.8748                14.7551                 0.5501

                     34                     35                     36
                      A                      A                      A
 Frequencies --    965.8288               987.0323              1002.3435
 Red. masses --      2.7209                 2.1499                 1.9788
 Frc consts  --      1.4954                 1.2340                 1.1713
 IR Inten    --      1.2524                 1.9071                 4.3956

                     37                     38                     39
                      A                      A                      A
 Frequencies --   1021.3170              1038.3925              1052.2072
 Red. masses --      3.3809                 3.1987                 2.4091
 Frc consts  --      2.0778                 2.0321                 1.5715
 IR Inten    --      3.0428                 6.2906                 9.6397

                     40                     41                     42
                      A                      A                      A
 Frequencies --   1059.4532              1062.3605              1067.3454
 Red. masses --      1.9613                 1.3642                 1.7670
 Frc consts  --      1.2971                 0.9071                 1.1860
 IR Inten    --      0.8342                15.3712                 2.5869

                     43                     44                     45
                      A                      A                      A
 Frequencies --   1079.2186              1090.2134              1127.9032
 Red. masses --      1.7942                 2.5462                 2.8070
 Frc consts  --      1.2312                 1.7831                 2.1040
 IR Inten    --      0.9994                 4.2445                 0.6804

                     46                     47                     48
                      A                      A                      A
 Frequencies --   1141.9783              1177.6610              1195.6663
 Red. masses --      2.2156                 1.4816                 1.5467
 Frc consts  --      1.7024                 1.2107                 1.3028
 IR Inten    --      6.0296                 1.0015                 0.9422

                     49                     50                     51
                      A                      A                      A
 Frequencies --   1203.7731              1230.6107              1250.7850
 Red. masses --      1.3670                 1.5850                 1.3020
 Frc consts  --      1.1671                 1.4142                 1.2001
 IR Inten    --      1.5608                11.4408                 1.0697

                     52                     53                     54
                      A                      A                      A
 Frequencies --   1257.7330              1261.7450              1275.9358
 Red. masses --      1.3193                 1.3193                 1.2286
 Frc consts  --      1.2296                 1.2374                 1.1784
 IR Inten    --      3.7444                 4.1084                 0.7694

                     55                     56                     57
                      A                      A                      A
 Frequencies --   1292.8369              1300.6909              1307.0364
 Red. masses --      1.3732                 1.2166                 1.1923
 Frc consts  --      1.3523                 1.2127                 1.2000
 IR Inten    --      4.2747                 2.9586                 0.2531

                     58                     59                     60
                      A                      A                      A
 Frequencies --   1323.5956              1331.1848              1338.3501
 Red. masses --      1.2088                 1.3690                 1.2018
 Frc consts  --      1.2477                 1.4293                 1.2683
 IR Inten    --      1.2448                 1.2333                 1.7585

                     61                     62                     63
                      A                      A                      A
 Frequencies --   1345.8312              1353.5035              1368.4598
 Red. masses --      1.2281                 1.2440                 1.4185
 Frc consts  --      1.3106                 1.3428                 1.5651
 IR Inten    --      0.8474                 1.9559                 4.0917

                     64                     65                     66
                      A                      A                      A
 Frequencies --   1379.8085              1384.3360              1389.2305
 Red. masses --      1.3740                 1.1391                 1.4262
 Frc consts  --      1.5413                 1.2862                 1.6218
 IR Inten    --     12.1046                47.9397                 0.2986

                     67                     68                     69
                      A                      A                      A
 Frequencies --   1402.6869              1409.0577              1479.0393
 Red. masses --      1.4730                 1.5064                 1.0822
 Frc consts  --      1.7075                 1.7622                 1.3948
 IR Inten    --      1.4352                 5.3502                 1.5119

                     70                     71                     72
                      A                      A                      A
 Frequencies --   1482.8311              1488.9261              1490.9805
 Red. masses --      1.0790                 1.0891                 1.0877
 Frc consts  --      1.3978                 1.4225                 1.4246
 IR Inten    --      0.4239                 1.7399                 0.1104

                     73                     74                     75
                      A                      A                      A
 Frequencies --   1493.2776              1502.0787              1506.6073
 Red. masses --      1.0836                 1.1508                 1.0965
 Frc consts  --      1.4236                 1.5298                 1.4665
 IR Inten    --      3.1234                12.6719                 5.8495

                     76                     77                     78
                      A                      A                      A
 Frequencies --   1509.1708              1529.5524              1742.9507
 Red. masses --      1.1076                 1.0895                 6.6238
 Frc consts  --      1.4864                 1.5018                11.8556
 IR Inten    --      1.3221                 6.1334                23.8948

                     79                     80                     81
                      A                      A                      A
 Frequencies --   2937.3028              2989.1559              2991.8374
 Red. masses --      1.0678                 1.0592                 1.0652
 Frc consts  --      5.4280                 5.5763                 5.6175
 IR Inten    --     40.6416                34.1050                47.1474

                     82                     83                     84
                      A                      A                      A
 Frequencies --   3000.7680              3014.6069              3015.5096
 Red. masses --      1.0603                 1.0674                 1.0696
 Frc consts  --      5.6253                 5.7154                 5.7306
 IR Inten    --      6.6290                 5.8931                15.5470

                     85                     86                     87
                      A                      A                      A
 Frequencies --   3017.5516              3027.8716              3028.6861
 Red. masses --      1.0772                 1.0862                 1.0723
 Frc consts  --      5.7788                 5.8671                 5.7954
 IR Inten    --     30.7372                34.6545                22.3150

                     88                     89                     90
                      A                      A                      A
 Frequencies --   3031.0364              3032.7995              3034.0139
 Red. masses --      1.0741                 1.0674                 1.0917
 Frc consts  --      5.8141                 5.7846                 5.9208
 IR Inten    --     21.7438                15.2090                24.0554

                     91                     92                     93
                      A                      A                      A
 Frequencies --   3040.9130              3044.9840              3060.2050
 Red. masses --      1.0852                 1.0863                 1.0994
 Frc consts  --      5.9122                 5.9341                 6.0662
 IR Inten    --     34.7663                54.9655                 0.4262

                     94                     95                     96
                      A                      A                      A
 Frequencies --   3079.1064              3081.1177              3083.0812
 Red. masses --      1.0978                 1.0932                 1.1030
 Frc consts  --      6.1324                 6.1148                 6.1771
 IR Inten    --     26.6095                26.0377                95.9091

                     97                     98                     99
                      A                      A                      A
 Frequencies --   3090.1938              3130.4183              3747.2234
 Red. masses --      1.1040                 1.1034                 1.0687
 Frc consts  --      6.2112                 6.3709                 8.8413
 IR Inten    --     64.0876                29.9111                27.3620

 - Thermochemistry -
 -------------------
 Temperature   298.150 Kelvin.  Pressure   1.00000 Atm.
 Atom     1 has atomic number  6 and mass  12.00000

 Molecular mass:   199.15723 amu.
 Principal axes and moments of inertia in atomic units:
                           1         2         3
     Eigenvalues --  1814.443756699.287027934.41456
           X            0.99997  -0.00806   0.00035
           Y            0.00806   0.99993   0.00891
           Z           -0.00043  -0.00891   0.99996
 This molecule is an asymmetric top.
 Rotational symmetry number  1.
 Warning -- assumption of classical behavior for rotation
           may cause significant error
 Rotational temperatures (Kelvin)      0.04774     0.01293     0.01092
 Rotational constants (GHZ):           0.99465     0.26939     0.22746
 Zero-point vibrational energy     817884.3 (Joules/Mol)
                                  195.47904 (Kcal/Mol)
 Warning -- explicit consideration of  22 degrees of freedom as
           vibrations may cause significant error
 Vibrational temperatures:     45.90    56.19    76.55   103.27   123.03
          (Kelvin)            141.86   152.88   192.88   217.14   250.92
                              282.36   322.47   324.17   378.47   445.51
                              503.67   542.92   634.72   660.48   708.06
                              772.14   812.79   917.71  1041.07  1068.35
                             1124.10  1195.07  1231.22  1268.26  1315.44
                             1330.64  1350.73  1357.12  1389.61  1420.12
                             1442.15  1469.45  1494.02  1513.89  1524.32
                             1528.50  1535.67  1552.75  1568.57  1622.80
                             1643.05  1694.39  1720.30  1731.96  1770.57
                             1799.60  1809.60  1815.37  1835.79  1860.10
                             1871.40  1880.53  1904.36  1915.28  1925.59
                             1936.35  1947.39  1968.91  1985.24  1991.75
                             1998.79  2018.15  2027.32  2128.01  2133.46
                             2142.23  2145.19  2148.49  2161.16  2167.67
                             2171.36  2200.68  2507.72  4226.12  4300.73
                             4304.59  4317.44  4337.35  4338.65  4341.58
                             4356.43  4357.60  4360.99  4363.52  4365.27
                             4375.20  4381.05  4402.95  4430.15  4433.04
                             4435.87  4446.10  4503.97  5391.42

 Zero-point correction=                           0.311516 (Hartree/Particle)
 Thermal correction to Energy=                    0.327653
 Thermal correction to Enthalpy=                  0.328597
 Thermal correction to Gibbs Free Energy=         0.266128
 Sum of electronic and zero-point Energies=           -636.631177
 Sum of electronic and thermal Energies=              -636.615040
 Sum of electronic and thermal Enthalpies=            -636.614096
 Sum of electronic and thermal Free Energies=         -636.676566

                     E (Thermal)             CV                S
                      KCal/Mol        Cal/Mol-Kelvin    Cal/Mol-Kelvin
 Total                  205.606             58.510            131.479
 Electronic               0.000              0.000              0.000
 Translational            0.889              2.981             41.772
 Rotational               0.889              2.981             32.933
 Vibrational            203.828             52.548             56.774
 Vibration     1          0.594              1.983              5.707
 Vibration     2          0.594              1.981              5.307
 Vibration     3          0.596              1.976              4.695
 Vibration     4          0.598              1.967              4.104
 Vibration     5          0.601              1.959              3.760
 Vibration     6          0.604              1.950              3.482
 Vibration     7          0.605              1.944              3.336
 Vibration     8          0.613              1.919              2.887
 Vibration     9          0.618              1.902              2.661
 Vibration    10          0.627              1.874              2.388
 Vibration    11          0.636              1.845              2.168
 Vibration    12          0.649              1.804              1.925
 Vibration    13          0.650              1.802              1.916
 Vibration    14          0.670              1.741              1.641
 Vibration    15          0.699              1.655              1.364
 Vibration    16          0.727              1.575              1.166
 Vibration    17          0.748              1.518              1.050
 Vibration    18          0.801              1.380              0.823
 Vibration    19          0.817              1.341              0.769
 Vibration    20          0.848              1.267              0.678
 Vibration    21          0.892              1.169              0.573
 Vibration    22          0.921              1.107              0.514

                           ! Non-Optimized Parameters !
 Normal termination of Gaussian 16 at Mon May 29 18:33:48 2023.
