 Gaussian 16, Revision A.03,
 Gaussian 16:  ES64L-G16RevA.03 25-Dec-2016

 -----------------------------
 # opt freq b3lyp/6-31g(2df,p)
 -----------------------------

 -------------------
 Title Card Required
 -------------------
 Symbolic Z-matrix:
 Charge =  0 Multiplicity = 1

 SCF Done:  E(RB3LYP) =  -1650.96531199     A.U. after   29 cycles
 SCF Done:  E(RB3LYP) =  -1651.03965429     A.U. after   22 cycles
 SCF Done:  E(RB3LYP) =  -1651.15519899     A.U. after   18 cycles
 SCF Done:  E(RB3LYP) =  -1651.17697508     A.U. after   18 cycles
 SCF Done:  E(RB3LYP) =  -1651.27159659     A.U. after   18 cycles
 SCF Done:  E(RB3LYP) =  -1649.12661309     A.U. after   25 cycles
 SCF Done:  E(RB3LYP) =  -1651.33074386     A.U. after   18 cycles
 SCF Done:  E(RB3LYP) =  -1651.34881563     A.U. after   14 cycles
 SCF Done:  E(RB3LYP) =  -1651.38140324     A.U. after   17 cycles
 SCF Done:  E(RB3LYP) =  -1651.40442761     A.U. after   17 cycles
 SCF Done:  E(RB3LYP) =  -1651.74315887     A.U. after    9 cycles
 SCF Done:  E(RB3LYP) =  -1651.74315974     A.U. after    9 cycles
 SCF Done:  E(RB3LYP) =  -1651.74316085     A.U. after    8 cycles
 SCF Done:  E(RB3LYP) =  -1651.74316297     A.U. after   10 cycles
 SCF Done:  E(RB3LYP) =  -1651.74316396     A.U. after    9 cycles
 SCF Done:  E(RB3LYP) =  -1651.74316536     A.U. after    9 cycles
 SCF Done:  E(RB3LYP) =  -1651.74316597     A.U. after    8 cycles
 SCF Done:  E(RB3LYP) =  -1651.74316625     A.U. after    8 cycles
 SCF Done:  E(RB3LYP) =  -1651.74316630     A.U. after    7 cycles
 Optimization completed.
    -- Stationary point found.
 Normal termination of Gaussian 16 at Sun May 28 07:13:41 2023.

 ----------------------------------------------------------------------
 #N Geom=AllCheck Guess=TCheck SCRF=Check GenChk RB3LYP/6-31G(2df,p) Fr
 eq
 ----------------------------------------------------------------------

 Structure from the checkpoint file:  "Cn1cnccc2ccsscd2c1dS.chk"
 -------------------
 Title Card Required
 -------------------
 Charge =  0 Multiplicity = 1

                         Standard orientation:
 ---------------------------------------------------------------------
 Center     Atomic      Atomic             Coordinates (Angstroms)
 Number     Number       Type             X           Y           Z
 ---------------------------------------------------------------------
      1          6           0        3.782371    0.361497    0.779730
      2          7           0        2.557884   -0.247856    0.215355
      3          6           0        2.665353   -1.658940    0.101096
      4          7           0        1.792835   -2.541925   -0.187597
      5          6           0        0.590960   -1.977416   -0.574337
      6          6           0       -0.401057   -1.549687    0.234696
      7          6           0       -0.949935   -0.254282   -0.209482
      8          6           0       -2.208099    0.239077   -0.124423
      9          6           0       -3.314807   -0.544587    0.350151
     10         16           0       -4.845390    0.003040    0.522720
     11         16           0        0.345595    1.305073   -2.121654
     12          6           0        0.230585    0.521182   -0.687314
     13          6           0        1.408886    0.554773    0.274986
     14         16           0        1.259642    1.797047    1.350455
     15          1           0        4.644187   -0.196551    0.411297
     16          1           0        3.774537    0.352542    1.872831
     17          1           0        3.854751    1.393827    0.441313
     18          1           0        3.669489   -1.991954    0.347279
     19          1           0        0.568280   -1.686078   -1.623841
     20          1           0       -0.468589   -1.861728    1.272740
     21          1           0       -2.400514    1.268374   -0.409863
     22          1           0       -3.080250   -1.582217    0.599001
 ---------------------------------------------------------------------

 SCF Done:  E(RB3LYP) =  -1651.74316630     A.U. after    1 cycles

 The electronic state is 1-A.
 Alpha  occ. eigenvalues --  -88.87521 -88.87202 -88.86588 -14.42632 -14.36428
 Alpha  occ. eigenvalues --  -10.31645 -10.30497 -10.28956 -10.25684 -10.25439
 Alpha  occ. eigenvalues --  -10.24865 -10.24649 -10.22408 -10.21877  -7.94000
 Alpha  occ. eigenvalues --   -7.93765  -7.93093  -5.90318  -5.90246  -5.90108
 Alpha  occ. eigenvalues --   -5.89920  -5.89545  -5.89465  -5.89356  -5.89347
 Alpha  occ. eigenvalues --   -5.88564  -1.02368  -0.95773  -0.89241  -0.83353
 Alpha  occ. eigenvalues --   -0.80199  -0.78170  -0.74618  -0.73533  -0.69539
 Alpha  occ. eigenvalues --   -0.65553  -0.62334  -0.60278  -0.56217  -0.55855
 Alpha  occ. eigenvalues --   -0.52686  -0.51561  -0.49650  -0.47984  -0.46070
 Alpha  occ. eigenvalues --   -0.45248  -0.43951  -0.43200  -0.40971  -0.39584
 Alpha  occ. eigenvalues --   -0.38306  -0.37924  -0.36809  -0.35808  -0.32807
 Alpha  occ. eigenvalues --   -0.32511  -0.28219  -0.27124  -0.24879  -0.24486
 Alpha  occ. eigenvalues --   -0.23434  -0.22733
 Alpha virt. eigenvalues --   -0.13062  -0.09609  -0.07044  -0.03787  -0.02112
 Alpha virt. eigenvalues --    0.04127   0.06465   0.07749   0.08730   0.09264
 Alpha virt. eigenvalues --    0.10264   0.10938   0.11462   0.12617   0.12983

 Mulliken charges:
               1
     1  C   -0.346500
     2  N   -0.129869
     3  C    0.129252
     4  N   -0.247659
     5  C   -0.013963
     6  C   -0.279837
     7  C    0.308808
     8  C   -0.175636
     9  C   -0.017503
    10  S   -0.233375
    11  S   -0.281800
    12  C    0.095686
    13  C    0.304613
    14  S   -0.304688
    15  H    0.143449
    16  H    0.164443
    17  H    0.175090
    18  H    0.141127
    19  H    0.155931
    20  H    0.134480
    21  H    0.143588
    22  H    0.134363
 Sum of Mulliken charges =  -0.00000

 Dipole moment (field-independent basis, Debye):
    X=              5.2429    Y=             -1.9398    Z=              0.8428  Tot=              5.6534
 Quadrupole moment (field-independent basis, Debye-Ang):
   XX=           -102.3940   YY=           -108.9671   ZZ=           -105.0336
   XY=             -0.5970   XZ=              3.5496   YZ=             -0.4182

  Exact polarizability: 287.917  -4.799 158.929 -14.763   1.003 142.998
 Approx polarizability: 474.167 -23.848 317.026 -59.614  19.511 302.635

                      1                      2                      3
                      A                      A                      A
 Frequencies --     33.4220                52.8516                81.6406
 Red. masses --      7.1229                 6.9488                 7.8785
 Frc consts  --      0.0047                 0.0114                 0.0309
 IR Inten    --      0.6798                 1.7755                 1.7363

                      4                      5                      6
                      A                      A                      A
 Frequencies --     86.5970               124.7281               143.6543
 Red. masses --      7.6926                 4.8704                 4.7901
 Frc consts  --      0.0340                 0.0446                 0.0582
 IR Inten    --      1.3293                 1.0101                 5.8476

                      7                      8                      9
                      A                      A                      A
 Frequencies --    173.1264               202.0454               208.9418
 Red. masses --      5.3385                 1.1527                 4.1939
 Frc consts  --      0.0943                 0.0277                 0.1079
 IR Inten    --      3.9319                 0.3516                 0.9457

                     10                     11                     12
                      A                      A                      A
 Frequencies --    231.4891               270.9969               287.1833
 Red. masses --      4.0900                 3.8064                 4.6630
 Frc consts  --      0.1291                 0.1647                 0.2266
 IR Inten    --      7.2950                 0.2962                12.4383

                     13                     14                     15
                      A                      A                      A
 Frequencies --    324.1539               342.2123               362.9698
 Red. masses --      4.2221                 4.4145                 4.3425
 Frc consts  --      0.2614                 0.3046                 0.3371
 IR Inten    --      7.4381                 1.2002                 1.3264

                     16                     17                     18
                      A                      A                      A
 Frequencies --    376.4994               461.7218               501.1488
 Red. masses --      5.7149                 3.8936                 4.3566
 Frc consts  --      0.4773                 0.4891                 0.6447
 IR Inten    --      0.4950                 3.5269                 5.2430

                     19                     20                     21
                      A                      A                      A
 Frequencies --    586.6738               595.5093               631.9682
 Red. masses --      6.2184                 6.0507                 8.8434
 Frc consts  --      1.2610                 1.2643                 2.0809
 IR Inten    --     11.4899                19.6545                 6.2920

                     22                     23                     24
                      A                      A                      A
 Frequencies --    672.2616               690.0296               711.7179
 Red. masses --      6.6170                 6.2947                 4.3728
 Frc consts  --      1.7619                 1.7659                 1.3050
 IR Inten    --     34.5227                 6.8126                25.0052

                     25                     26                     27
                      A                      A                      A
 Frequencies --    856.6435               882.6110               911.7221
 Red. masses --      2.2527                 5.0534                 1.3822
 Frc consts  --      0.9740                 2.3194                 0.6769
 IR Inten    --     51.3279                17.0432                14.6231

                     28                     29                     30
                      A                      A                      A
 Frequencies --    945.9811               953.1010               973.8743
 Red. masses --      1.6174                 1.5192                 1.8509
 Frc consts  --      0.8528                 0.8131                 1.0343
 IR Inten    --      0.2086                 2.1879                16.4799

                     31                     32                     33
                      A                      A                      A
 Frequencies --   1003.6113              1018.9708              1060.5020
 Red. masses --      2.0361                 2.9964                 4.0653
 Frc consts  --      1.2083                 1.8331                 2.6938
 IR Inten    --     36.5148                45.7691                 9.9296

                     34                     35                     36
                      A                      A                      A
 Frequencies --   1107.3226              1110.5595              1130.4193
 Red. masses --      4.8988                 5.8516                 2.8249
 Frc consts  --      3.5391                 4.2522                 2.1268
 IR Inten    --    101.4727               103.1148                90.7341

                     37                     38                     39
                      A                      A                      A
 Frequencies --   1146.9288              1195.2360              1199.3393
 Red. masses --      1.4661                 3.3093                 2.5941
 Frc consts  --      1.1363                 2.7855                 2.1985
 IR Inten    --     29.0857               241.6100                17.4424

                     40                     41                     42
                      A                      A                      A
 Frequencies --   1227.6217              1245.2489              1275.1250
 Red. masses --      6.1208                 1.3487                 3.0659
 Frc consts  --      5.4348                 1.2322                 2.9371
 IR Inten    --      6.4279                16.1422               298.8826

                     43                     44                     45
                      A                      A                      A
 Frequencies --   1304.6354              1357.3846              1400.0381
 Red. masses --      1.7036                 1.2733                 1.9036
 Frc consts  --      1.7084                 1.3823                 2.1984
 IR Inten    --     19.4000                 2.9557                64.1731

                     46                     47                     48
                      A                      A                      A
 Frequencies --   1436.9143              1472.0800              1490.1279
 Red. masses --      1.1512                 1.1011                 1.1033
 Frc consts  --      1.4004                 1.4059                 1.4434
 IR Inten    --      3.9489                19.5575                 5.3182

                     49                     50                     51
                      A                      A                      A
 Frequencies --   1504.4772              1620.8634              1624.8518
 Red. masses --      1.0741                 6.8395                 5.5699
 Frc consts  --      1.4324                10.5869                 8.6641
 IR Inten    --     26.8210               117.4026                56.9440

                     52                     53                     54
                      A                      A                      A
 Frequencies --   1681.7244              3058.0284              3093.6487
 Red. masses --      9.0249                 1.0351                 1.0862
 Frc consts  --     15.0384                 5.7034                 6.1249
 IR Inten    --    176.5063                19.0060                 8.6130

                     55                     56                     57
                      A                      A                      A
 Frequencies --   3131.0436              3134.1632              3165.0022
 Red. masses --      1.0861                 1.1030                 1.1020
 Frc consts  --      6.2732                 6.3835                 6.5038
 IR Inten    --      8.6978                 6.0830                 1.3894

                     58                     59                     60
                      A                      A                      A
 Frequencies --   3170.3827              3178.3797              3192.5818
 Red. masses --      1.0893                 1.0910                 1.0900
 Frc consts  --      6.4512                 6.4937                 6.5459
 IR Inten    --      5.2864                16.0991                 0.8230

 - Thermochemistry -
 -------------------
 Temperature   298.150 Kelvin.  Pressure   1.00000 Atm.
 Atom     1 has atomic number  6 and mass  12.00000

 Molecular mass:   239.98496 amu.
 Principal axes and moments of inertia in atomic units:
                           1         2         3
     Eigenvalues --  2248.142866257.674526780.00728
           X            0.99997   0.00016   0.00755
           Y           -0.00012   0.99999  -0.00446
           Z           -0.00755   0.00445   0.99996
 This molecule is an asymmetric top.
 Rotational symmetry number  1.
 Warning -- assumption of classical behavior for rotation
           may cause significant error
 Rotational temperatures (Kelvin)      0.03853     0.01384     0.01277
 Rotational constants (GHZ):           0.80277     0.28840     0.26619
 Zero-point vibrational energy     403229.4 (Joules/Mol)
                                   96.37414 (Kcal/Mol)
 Warning -- explicit consideration of  20 degrees of freedom as
           vibrations may cause significant error
 Vibrational temperatures:     48.09    76.04   117.46   124.59   179.46
          (Kelvin)            206.69   249.09   290.70   300.62   333.06
                              389.90   413.19   466.39   492.37   522.23
                              541.70   664.31   721.04   844.09   856.81
                              909.26   967.23   992.80  1024.00  1232.52
                             1269.88  1311.76  1361.06  1371.30  1401.19
                             1443.97  1466.07  1525.83  1593.19  1597.85
                             1626.42  1650.17  1719.68  1725.58  1766.27
                             1791.64  1834.62  1877.08  1952.97  2014.34
                             2067.40  2117.99  2143.96  2164.61  2332.06
                             2337.80  2419.63  4399.82  4451.07  4504.87
                             4509.36  4553.73  4561.47  4572.98  4593.41

 Zero-point correction=                           0.153582 (Hartree/Particle)
 Thermal correction to Energy=                    0.167469
 Thermal correction to Enthalpy=                  0.168414
 Thermal correction to Gibbs Free Energy=         0.111213
 Sum of electronic and zero-point Energies=          -1651.589584
 Sum of electronic and thermal Energies=             -1651.575697
 Sum of electronic and thermal Enthalpies=           -1651.574753
 Sum of electronic and thermal Free Energies=        -1651.631953

                     E (Thermal)             CV                S
                      KCal/Mol        Cal/Mol-Kelvin    Cal/Mol-Kelvin
 Total                  105.089             49.623            120.389
 Electronic               0.000              0.000              0.000
 Translational            0.889              2.981             42.327
 Rotational               0.889              2.981             32.922
 Vibrational            103.311             43.661             45.139
 Vibration     1          0.594              1.983              5.615
 Vibration     2          0.596              1.976              4.708
 Vibration     3          0.600              1.962              3.851
 Vibration     4          0.601              1.959              3.736
 Vibration     5          0.610              1.928              3.026
 Vibration     6          0.616              1.909              2.755
 Vibration     7          0.627              1.876              2.401
 Vibration     8          0.639              1.837              2.114
 Vibration     9          0.642              1.827              2.053
 Vibration    10          0.653              1.793              1.867
 Vibration    11          0.675              1.727              1.590
 Vibration    12          0.684              1.698              1.491
 Vibration    13          0.709              1.627              1.289
 Vibration    14          0.721              1.591              1.202
 Vibration    15          0.737              1.549              1.109
 Vibration    16          0.747              1.520              1.053
 Vibration    17          0.819              1.335              0.761
 Vibration    18          0.857              1.247              0.655
 Vibration    19          0.944              1.060              0.473
 Vibration    20          0.953              1.041              0.457

 Optimization completed.
    -- Stationary point found.
 Normal termination of Gaussian 16 at Sun May 28 08:38:42 2023.
