 Gaussian 16, Revision A.03,
 Gaussian 16:  ES64L-G16RevA.03 25-Dec-2016

 -----------------------------
 # opt freq b3lyp/6-31g(2df,p)
 -----------------------------

 -------------------
 Title Card Required
 -------------------
 Symbolic Z-matrix:
 Charge =  0 Multiplicity = 1

 SCF Done:  E(RB3LYP) =  -641.613425057     A.U. after   12 cycles
 SCF Done:  E(RB3LYP) =  -641.626391191     A.U. after   11 cycles
 SCF Done:  E(RB3LYP) =  -641.630068646     A.U. after   10 cycles
 SCF Done:  E(RB3LYP) =  -641.632879002     A.U. after   10 cycles
 SCF Done:  E(RB3LYP) =  -641.633932807     A.U. after   10 cycles
 SCF Done:  E(RB3LYP) =  -641.634823670     A.U. after   10 cycles
 SCF Done:  E(RB3LYP) =  -641.636007934     A.U. after   10 cycles
 SCF Done:  E(RB3LYP) =  -641.636975003     A.U. after   10 cycles
 SCF Done:  E(RB3LYP) =  -641.637132564     A.U. after   10 cycles
 SCF Done:  E(RB3LYP) =  -641.637808837     A.U. after   10 cycles
 SCF Done:  E(RB3LYP) =  -641.639913896     A.U. after   10 cycles
 SCF Done:  E(RB3LYP) =  -641.640299821     A.U. after   10 cycles
 SCF Done:  E(RB3LYP) =  -641.640357664     A.U. after    9 cycles
 SCF Done:  E(RB3LYP) =  -641.640372692     A.U. after    8 cycles
 SCF Done:  E(RB3LYP) =  -641.640378994     A.U. after    8 cycles
 SCF Done:  E(RB3LYP) =  -641.640379878     A.U. after    7 cycles
 SCF Done:  E(RB3LYP) =  -641.640380905     A.U. after    7 cycles
 SCF Done:  E(RB3LYP) =  -641.640381220     A.U. after    6 cycles
 SCF Done:  E(RB3LYP) =  -641.640381259     A.U. after    6 cycles
 Optimization completed.
    -- Stationary point found.
 Normal termination of Gaussian 16 at Thu May 25 05:51:23 2023.

 ----------------------------------------------------------------------
 #N Geom=AllCheck Guess=TCheck SCRF=Check GenChk RB3LYP/6-31G(2df,p) Fr
 eq
 ----------------------------------------------------------------------

 Structure from the checkpoint file:  "CN1CCCCCCCCCCCOC1.chk"
 -------------------
 Title Card Required
 -------------------
 Charge =  0 Multiplicity = 1

                         Standard orientation:
 ---------------------------------------------------------------------
 Center     Atomic      Atomic             Coordinates (Angstroms)
 Number     Number       Type             X           Y           Z
 ---------------------------------------------------------------------
      1          6           0        3.096957    0.276865    1.329762
      2          7           0        2.650428    0.144264   -0.048562
      3          6           0        2.717464   -1.218073   -0.581551
      4          6           0        1.739176   -2.277269   -0.002453
      5          6           0        0.354436   -2.295336   -0.671151
      6          6           0       -0.748443   -3.053883    0.099623
      7          6           0       -2.143243   -2.437126   -0.133331
      8          6           0       -2.304133   -1.105838    0.624355
      9          6           0       -3.332550   -0.102837    0.065217
     10          6           0       -2.937131    1.350647    0.398073
     11          6           0       -1.760138    1.840865   -0.474698
     12          6           0       -0.801957    2.835737    0.203269
     13          6           0        0.535630    3.047827   -0.540311
     14          8           0        1.612432    2.222513   -0.119284
     15          6           0        1.417263    0.838751   -0.309744
     16          1           0        4.097659   -0.154395    1.431640
     17          1           0        2.435416   -0.216314    2.066326
     18          1           0        3.148822    1.336699    1.585085
     19          1           0        3.745237   -1.560280   -0.414429
     20          1           0        2.582036   -1.160819   -1.670038
     21          1           0        1.624443   -2.104211    1.074990
     22          1           0        2.201624   -3.268314   -0.094352
     23          1           0        0.445758   -2.712314   -1.682556
     24          1           0        0.021966   -1.264901   -0.818672
     25          1           0       -0.530445   -3.030404    1.175960
     26          1           0       -0.746358   -4.112215   -0.185157
     27          1           0       -2.927513   -3.141695    0.167359
     28          1           0       -2.281479   -2.269762   -1.210246
     29          1           0       -1.327359   -0.609661    0.643033
     30          1           0       -2.534451   -1.313452    1.677225
     31          1           0       -4.332001   -0.325832    0.456129
     32          1           0       -3.402529   -0.209609   -1.025746
     33          1           0       -2.659725    1.403835    1.459433
     34          1           0       -3.797239    2.019059    0.277606
     35          1           0       -2.152736    2.290504   -1.395715
     36          1           0       -1.187432    0.970429   -0.807433
     37          1           0       -0.567915    2.506562    1.223531
     38          1           0       -1.301029    3.807245    0.306980
     39          1           0        0.898106    4.065638   -0.370388
     40          1           0        0.378333    2.930996   -1.626836
     41          1           0        1.116525    0.630221   -1.350252
     42          1           0        0.599836    0.501056    0.358371
 ---------------------------------------------------------------------

 SCF Done:  E(RB3LYP) =  -641.640381259     A.U. after    1 cycles

 The electronic state is 1-A.
 Alpha  occ. eigenvalues --  -19.13164 -14.31278 -10.24331 -10.22384 -10.20217
 Alpha  occ. eigenvalues --  -10.19006 -10.17823 -10.17734 -10.17672 -10.17578
 Alpha  occ. eigenvalues --  -10.17552 -10.17528 -10.17483 -10.17435 -10.17383
 Alpha  occ. eigenvalues --   -1.02917  -0.90891  -0.81145  -0.79206  -0.77084
 Alpha  occ. eigenvalues --   -0.73631  -0.71616  -0.69368  -0.65795  -0.64664
 Alpha  occ. eigenvalues --   -0.59571  -0.58858  -0.57168  -0.56659  -0.56331
 Alpha  occ. eigenvalues --   -0.50237  -0.48183  -0.47630  -0.46799  -0.46260
 Alpha  occ. eigenvalues --   -0.44433  -0.43495  -0.42447  -0.42034  -0.41259
 Alpha  occ. eigenvalues --   -0.41084  -0.39953  -0.38433  -0.38126  -0.37055
 Alpha  occ. eigenvalues --   -0.36644  -0.36097  -0.35690  -0.34427  -0.33999
 Alpha  occ. eigenvalues --   -0.33142  -0.32715  -0.32181  -0.32059  -0.31735
 Alpha  occ. eigenvalues --   -0.30756  -0.29975  -0.29548  -0.24767  -0.20347
 Alpha virt. eigenvalues --    0.07700   0.08776   0.09435   0.09583   0.10690
 Alpha virt. eigenvalues --    0.11306   0.11379   0.12227   0.13033   0.13626
 Alpha virt. eigenvalues --    0.13720   0.14688   0.15000   0.15653   0.16616

 Mulliken charges:
               1
     1  C   -0.332413
     2  N   -0.051395
     3  C   -0.178496
     4  C   -0.201271
     5  C   -0.167664
     6  C   -0.198243
     7  C   -0.200570
     8  C   -0.159685
     9  C   -0.201579
    10  C   -0.198290
    11  C   -0.172947
    12  C   -0.209296
    13  C   -0.069824
    14  O   -0.251719
    15  C   -0.014765
    16  H    0.113225
    17  H    0.088940
    18  H    0.140308
    19  H    0.098016
    20  H    0.097500
    21  H    0.099571
    22  H    0.093409
    23  H    0.091454
    24  H    0.105603
    25  H    0.092408
    26  H    0.089863
    27  H    0.089959
    28  H    0.091384
    29  H    0.108149
    30  H    0.091579
    31  H    0.090230
    32  H    0.091936
    33  H    0.093538
    34  H    0.090267
    35  H    0.093085
    36  H    0.108748
    37  H    0.107592
    38  H    0.096034
    39  H    0.106133
    40  H    0.084357
    41  H    0.081130
    42  H    0.073742
 Sum of Mulliken charges =  -0.00000

 Dipole moment (field-independent basis, Debye):
    X=             -1.3306    Y=             -0.6694    Z=             -0.0082  Tot=              1.4895
 Quadrupole moment (field-independent basis, Debye-Ang):
   XX=           -100.3456   YY=            -95.3168   ZZ=            -95.9837
   XY=             -5.2972   XZ=              1.2389   YZ=             -0.1144

  Exact polarizability: 164.890  -3.432 165.728   1.487   0.854 126.897
 Approx polarizability: 211.598  -3.089 214.587   2.635   1.205 207.129

                      1                      2                      3
                      A                      A                      A
 Frequencies --     42.2756                56.3526                71.1063
 Red. masses --      3.1095                 2.8901                 2.3379
 Frc consts  --      0.0033                 0.0054                 0.0070
 IR Inten    --      0.0469                 0.0669                 0.3250

                      4                      5                      6
                      A                      A                      A
 Frequencies --     86.1044               109.5562               138.2187
 Red. masses --      3.0351                 3.3662                 2.5622
 Frc consts  --      0.0133                 0.0238                 0.0288
 IR Inten    --      0.9623                 0.1144                 0.2587

                      7                      8                      9
                      A                      A                      A
 Frequencies --    162.2694               184.5615               194.1033
 Red. masses --      2.2215                 2.2776                 2.2797
 Frc consts  --      0.0345                 0.0457                 0.0506
 IR Inten    --      0.5933                 0.6195                 0.9423

                     10                     11                     12
                      A                      A                      A
 Frequencies --    207.4756               220.5126               232.7503
 Red. masses --      1.3569                 1.6952                 2.0458
 Frc consts  --      0.0344                 0.0486                 0.0653
 IR Inten    --      0.1783                 1.0586                 0.9202

                     13                     14                     15
                      A                      A                      A
 Frequencies --    260.8441               272.3368               292.9661
 Red. masses --      2.0330                 2.9345                 2.5404
 Frc consts  --      0.0815                 0.1282                 0.1285
 IR Inten    --      0.2234                 0.3932                 1.8198

                     16                     17                     18
                      A                      A                      A
 Frequencies --    326.0233               330.3176               355.6418
 Red. masses --      2.6246                 2.2298                 3.5478
 Frc consts  --      0.1644                 0.1433                 0.2644
 IR Inten    --      0.2502                 0.0939                 1.9268

                     19                     20                     21
                      A                      A                      A
 Frequencies --    375.4149               395.6451               449.6196
 Red. masses --      2.5050                 2.3117                 2.3285
 Frc consts  --      0.2080                 0.2132                 0.2773
 IR Inten    --      1.3016                 5.6428                 0.3134

                     22                     23                     24
                      A                      A                      A
 Frequencies --    457.6852               474.3327               513.4417
 Red. masses --      2.2753                 2.9432                 2.5360
 Frc consts  --      0.2808                 0.3902                 0.3939
 IR Inten    --      0.2141                 1.2277                 0.2436

                     25                     26                     27
                      A                      A                      A
 Frequencies --    550.8281               707.7328               715.2017
 Red. masses --      2.5869                 1.2326                 1.1905
 Frc consts  --      0.4624                 0.3638                 0.3588
 IR Inten    --      3.9362                 4.8878                 2.1523

                     28                     29                     30
                      A                      A                      A
 Frequencies --    726.5431               807.3891               814.5088
 Red. masses --      1.2016                 1.8499                 1.6299
 Frc consts  --      0.3737                 0.7105                 0.6371
 IR Inten    --      2.0395                 2.8943                 0.9225

                     31                     32                     33
                      A                      A                      A
 Frequencies --    824.6754               849.9117               875.7321
 Red. masses --      1.7954                 2.0269                 2.3285
 Frc consts  --      0.7194                 0.8626                 1.0521
 IR Inten    --      2.6052                 3.2683                 6.1519

                     34                     35                     36
                      A                      A                      A
 Frequencies --    894.0915               924.3021               956.9562
 Red. masses --      1.9460                 2.4162                 2.0180
 Frc consts  --      0.9165                 1.2162                 1.0888
 IR Inten    --      1.1979                 1.6849                 2.5352

                     37                     38                     39
                      A                      A                      A
 Frequencies --    967.3796               974.2397              1005.3292
 Red. masses --      2.5746                 2.2682                 2.3367
 Frc consts  --      1.4196                 1.2684                 1.3914
 IR Inten    --      7.5004                 0.8047                 1.3983

                     40                     41                     42
                      A                      A                      A
 Frequencies --   1013.6503              1038.7786              1044.2313
 Red. masses --      2.4569                 2.3020                 2.5649
 Frc consts  --      1.4874                 1.4635                 1.6478
 IR Inten    --     16.6425                 2.1816                10.6680

                     43                     44                     45
                      A                      A                      A
 Frequencies --   1060.3107              1064.6094              1073.6122
 Red. masses --      2.1419                 2.3716                 2.3887
 Frc consts  --      1.4188                 1.5837                 1.6222
 IR Inten    --     26.3460                 2.2647                 9.6466

                     46                     47                     48
                      A                      A                      A
 Frequencies --   1080.6561              1085.9172              1092.3439
 Red. masses --      2.1641                 1.9613                 1.8283
 Frc consts  --      1.4890                 1.3627                 1.2853
 IR Inten    --      7.2589                 7.4192                68.4548

                     49                     50                     51
                      A                      A                      A
 Frequencies --   1104.5226              1125.7603              1142.7244
 Red. masses --      1.8738                 1.8860                 2.6245
 Frc consts  --      1.3468                 1.4082                 2.0192
 IR Inten    --     34.7162                15.8903               101.6971

                     52                     53                     54
                      A                      A                      A
 Frequencies --   1157.0026              1162.5177              1187.6048
 Red. masses --      1.5313                 1.5740                 1.3756
 Frc consts  --      1.2078                 1.2533                 1.1431
 IR Inten    --     19.1500                36.2350                 6.5021

                     55                     56                     57
                      A                      A                      A
 Frequencies --   1192.0236              1213.4706              1250.0088
 Red. masses --      1.5973                 1.6330                 1.5840
 Frc consts  --      1.3372                 1.4168                 1.4583
 IR Inten    --      9.2256                14.9881                 8.3624

                     58                     59                     60
                      A                      A                      A
 Frequencies --   1266.7798              1270.0181              1288.3088
 Red. masses --      1.3024                 1.3033                 1.2803
 Frc consts  --      1.2314                 1.2386                 1.2520
 IR Inten    --      2.4303                 0.8596                 5.2718

                     61                     62                     63
                      A                      A                      A
 Frequencies --   1298.1841              1312.3158              1319.2654
 Red. masses --      1.3380                 1.2737                 1.2412
 Frc consts  --      1.3285                 1.2924                 1.2728
 IR Inten    --      6.7155                 2.2194                 1.4587

                     64                     65                     66
                      A                      A                      A
 Frequencies --   1323.0217              1330.0941              1335.0559
 Red. masses --      1.1460                 1.1231                 1.3968
 Frc consts  --      1.1818                 1.1706                 1.4668
 IR Inten    --     15.7649                 1.9956                19.5644

                     67                     68                     69
                      A                      A                      A
 Frequencies --   1337.6296              1343.1631              1360.7592
 Red. masses --      1.1749                 1.1095                 1.4280
 Frc consts  --      1.2386                 1.1793                 1.5579
 IR Inten    --      7.8640                 5.0844                 5.6049

                     70                     71                     72
                      A                      A                      A
 Frequencies --   1364.1629              1368.8049              1385.3714
 Red. masses --      1.3577                 1.3631                 1.3987
 Frc consts  --      1.4886                 1.5047                 1.5816
 IR Inten    --      1.2717                 1.5049                12.8553

                     73                     74                     75
                      A                      A                      A
 Frequencies --   1388.0113              1396.5054              1398.4994
 Red. masses --      1.2671                 1.4185                 1.4065
 Frc consts  --      1.4383                 1.6299                 1.6207
 IR Inten    --     15.2179                 1.9869                 0.5518

                     76                     77                     78
                      A                      A                      A
 Frequencies --   1403.3741              1411.4749              1440.2078
 Red. masses --      1.3901                 1.2362                 1.1765
 Frc consts  --      1.6130                 1.4510                 1.4378
 IR Inten    --      1.2615                20.2084                 3.8010

                     79                     80                     81
                      A                      A                      A
 Frequencies --   1462.6362              1476.7187              1478.4344
 Red. masses --      1.1496                 1.0846                 1.0746
 Frc consts  --      1.4491                 1.3935                 1.3839
 IR Inten    --     10.1193                 1.1756                 1.9575

                     82                     83                     84
                      A                      A                      A
 Frequencies --   1480.5990              1482.4223              1489.9026
 Red. masses --      1.0943                 1.0895                 1.0755
 Frc consts  --      1.4134                 1.4106                 1.4066
 IR Inten    --     12.6536                 4.0314                 0.9214

                     85                     86                     87
                      A                      A                      A
 Frequencies --   1491.0724              1491.8356              1492.1348
 Red. masses --      1.0739                 1.0822                 1.0741
 Frc consts  --      1.4068                 1.4190                 1.4090
 IR Inten    --      5.9676                 2.7301                 1.4630

                     88                     89                     90
                      A                      A                      A
 Frequencies --   1495.6366              1500.1761              1502.9237
 Red. masses --      1.1310                 1.0882                 1.0934
 Frc consts  --      1.4907                 1.4429                 1.4551
 IR Inten    --      7.2694                 9.6109                 0.9896

                     91                     92                     93
                      A                      A                      A
 Frequencies --   1512.7859              1516.3655              1532.2071
 Red. masses --      1.0885                 1.0656                 1.0889
 Frc consts  --      1.4677                 1.4437                 1.5062
 IR Inten    --      0.8927                 7.4212                 1.6207

                     94                     95                     96
                      A                      A                      A
 Frequencies --   2883.0014              2930.9431              2955.2963
 Red. masses --      1.0639                 1.0609                 1.0723
 Frc consts  --      5.2100                 5.3693                 5.5177
 IR Inten    --    115.7601                71.9552                42.6451

                     97                     98                     99
                      A                      A                      A
 Frequencies --   2967.6251              3009.9699              3011.2096
 Red. masses --      1.0901                 1.0660                 1.0622
 Frc consts  --      5.6564                 5.6901                 5.6748
 IR Inten    --     37.9827                 2.0799                33.1919

                    100                    101                    102
                      A                      A                      A
 Frequencies --   3013.6907              3015.1718              3016.4676
 Red. masses --      1.0656                 1.0624                 1.0604
 Frc consts  --      5.7022                 5.6904                 5.6850
 IR Inten    --      3.7151                15.7250                 9.5054

                    103                    104                    105
                      A                      A                      A
 Frequencies --   3020.5554              3022.5858              3023.8879
 Red. masses --      1.0622                 1.0613                 1.0755
 Frc consts  --      5.7100                 5.7126                 5.7942
 IR Inten    --     23.1385                10.9334                23.5287

                    106                    107                    108
                      A                      A                      A
 Frequencies --   3025.6897              3026.4540              3047.4104
 Red. masses --      1.0675                 1.0740                 1.0883
 Frc consts  --      5.7578                 5.7957                 5.9547
 IR Inten    --     49.6755                27.6608                17.0938

                    109                    110                    111
                      A                      A                      A
 Frequencies --   3054.4349              3056.1402              3058.3353
 Red. masses --      1.1015                 1.0986                 1.0995
 Frc consts  --      6.0548                 6.0453                 6.0589
 IR Inten    --      9.7235                 4.2753                 4.7733

                    112                    113                    114
                      A                      A                      A
 Frequencies --   3059.0724              3060.1722              3061.4661
 Red. masses --      1.0972                 1.0905                 1.0944
 Frc consts  --      6.0495                 6.0170                 6.0436
 IR Inten    --     38.2247                27.4007               101.1475

                    115                    116                    117
                      A                      A                      A
 Frequencies --   3070.6433              3072.7810              3081.1471
 Red. masses --      1.0734                 1.1022                 1.0912
 Frc consts  --      5.9632                 6.1314                 6.1037
 IR Inten    --     45.1847               106.3170                40.3615

                    118                    119                    120
                      A                      A                      A
 Frequencies --   3090.7631              3100.1424              3131.8486
 Red. masses --      1.0946                 1.0906                 1.0992
 Frc consts  --      6.1607                 6.1757                 6.3521
 IR Inten    --    107.8196                39.5371                12.4678

 - Thermochemistry -
 -------------------
 Temperature   298.150 Kelvin.  Pressure   1.00000 Atm.
 Atom     1 has atomic number  6 and mass  12.00000

 Molecular mass:   213.20926 amu.
 Principal axes and moments of inertia in atomic units:
                           1         2         3
     Eigenvalues --  3261.824553732.756346416.12751
           X            0.99699  -0.07741   0.00522
           Y            0.07741   0.99700   0.00054
           Z           -0.00524  -0.00013   0.99999
 This molecule is an asymmetric top.
 Rotational symmetry number  1.
 Warning -- assumption of classical behavior for rotation
           may cause significant error
 Rotational temperatures (Kelvin)      0.02655     0.02320     0.01350
 Rotational constants (GHZ):           0.55329     0.48349     0.28128
 Zero-point vibrational energy    1025845.0 (Joules/Mol)
                                  245.18283 (Kcal/Mol)
 Warning -- explicit consideration of  25 degrees of freedom as
           vibrations may cause significant error
 Vibrational temperatures:     60.83    81.08   102.31   123.89   157.63
          (Kelvin)            198.87   233.47   265.54   279.27   298.51
                              317.27   334.88   375.30   391.83   421.51
                              469.07   475.25   511.69   540.14   569.25
                              646.90   658.51   682.46   738.73   792.52
                             1018.27  1029.02  1045.33  1161.65  1171.90
                             1186.52  1222.83  1259.98  1286.40  1329.86
                             1376.85  1391.84  1401.71  1446.44  1458.42
                             1494.57  1502.42  1525.55  1531.74  1544.69
                             1554.82  1562.39  1571.64  1589.16  1619.72
                             1644.13  1664.67  1672.60  1708.70  1715.06
                             1745.91  1798.48  1822.61  1827.27  1853.59
                             1867.80  1888.13  1898.13  1903.53  1913.71
                             1920.85  1924.55  1932.51  1957.83  1962.73
                             1969.40  1993.24  1997.04  2009.26  2012.13
                             2019.14  2030.80  2072.14  2104.41  2124.67
                             2127.14  2130.25  2132.88  2143.64  2145.32
                             2146.42  2146.85  2151.89  2158.42  2162.37
                             2176.56  2181.71  2204.50  4148.00  4216.97
                             4252.01  4269.75  4330.68  4332.46  4336.03
                             4338.16  4340.02  4345.91  4348.83  4350.70
                             4353.29  4354.39  4384.54  4394.65  4397.10
                             4400.26  4401.32  4402.91  4404.77  4417.97
                             4421.05  4433.08  4446.92  4460.41  4506.03

 Zero-point correction=                           0.390724 (Hartree/Particle)
 Thermal correction to Energy=                    0.407467
 Thermal correction to Enthalpy=                  0.408411
 Thermal correction to Gibbs Free Energy=         0.346955
 Sum of electronic and zero-point Energies=           -641.249658
 Sum of electronic and thermal Energies=              -641.232914
 Sum of electronic and thermal Enthalpies=            -641.231970
 Sum of electronic and thermal Free Energies=         -641.293426

                     E (Thermal)             CV                S
                      KCal/Mol        Cal/Mol-Kelvin    Cal/Mol-Kelvin
 Total                  255.689             64.727            129.345
 Electronic               0.000              0.000              0.000
 Translational            0.889              2.981             41.975
 Rotational               0.889              2.981             32.724
 Vibrational            253.912             58.765             54.646
 Vibration     1          0.595              1.980              5.149
 Vibration     2          0.596              1.975              4.581
 Vibration     3          0.598              1.968              4.122
 Vibration     4          0.601              1.959              3.747
 Vibration     5          0.606              1.942              3.277
 Vibration     6          0.614              1.915              2.828
 Vibration     7          0.622              1.889              2.523
 Vibration     8          0.631              1.861              2.282
 Vibration     9          0.635              1.848              2.188
 Vibration    10          0.641              1.829              2.066
 Vibration    11          0.647              1.810              1.955
 Vibration    12          0.653              1.791              1.858
 Vibration    13          0.669              1.744              1.656
 Vibration    14          0.675              1.724              1.581
 Vibration    15          0.688              1.687              1.457
 Vibration    16          0.710              1.623              1.280
 Vibration    17          0.713              1.615              1.259
 Vibration    18          0.731              1.564              1.141
 Vibration    19          0.746              1.522              1.058
 Vibration    20          0.762              1.479              0.979
 Vibration    21          0.809              1.362              0.797
 Vibration    22          0.816              1.344              0.773
 Vibration    23          0.831              1.307              0.726
 Vibration    24          0.869              1.220              0.625
 Vibration    25          0.906              1.138              0.542

                           ! Non-Optimized Parameters !
 Normal termination of Gaussian 16 at Thu May 25 09:55:07 2023.
