 Gaussian 16, Revision A.03,
 Gaussian 16:  ES64L-G16RevA.03 25-Dec-2016

 -----------------------------
 # opt freq b3lyp/6-31g(2df,p)
 -----------------------------

 -------------------
 Title Card Required
 -------------------
 Symbolic Z-matrix:
 Charge =  0 Multiplicity = 2

 SCF Done:  E(UB3LYP) =  -1287.61881682     A.U. after   21 cycles
 SCF Done:  E(UB3LYP) =  -1287.63795341     A.U. after   17 cycles
 SCF Done:  E(UB3LYP) =  -1287.64331334     A.U. after   17 cycles
 SCF Done:  E(UB3LYP) =  -1287.64609454     A.U. after   16 cycles
 SCF Done:  E(UB3LYP) =  -1287.64818119     A.U. after   16 cycles
 SCF Done:  E(UB3LYP) =  -1287.65120017     A.U. after   17 cycles
 SCF Done:  E(UB3LYP) =  -1287.65310717     A.U. after   16 cycles
 SCF Done:  E(UB3LYP) =  -1287.65470379     A.U. after   15 cycles
 SCF Done:  E(UB3LYP) =  -1287.65545330     A.U. after   13 cycles
 SCF Done:  E(UB3LYP) =  -1287.65576970     A.U. after   13 cycles
 SCF Done:  E(UB3LYP) =  -1287.66594972     A.U. after   15 cycles
 SCF Done:  E(UB3LYP) =  -1287.66601467     A.U. after   14 cycles
 SCF Done:  E(UB3LYP) =  -1287.66605346     A.U. after   15 cycles
 SCF Done:  E(UB3LYP) =  -1287.66609898     A.U. after   13 cycles
 SCF Done:  E(UB3LYP) =  -1287.66612267     A.U. after   12 cycles
 SCF Done:  E(UB3LYP) =  -1287.66612979     A.U. after   11 cycles
 SCF Done:  E(UB3LYP) =  -1287.66612981     A.U. after   11 cycles
 SCF Done:  E(UB3LYP) =  -1287.66613040     A.U. after   10 cycles
 SCF Done:  E(UB3LYP) =  -1287.66613060     A.U. after   10 cycles
 Optimization completed.
    -- Stationary point found.
 Normal termination of Gaussian 16 at Sun May 28 01:58:13 2023.

 ----------------------------------------------------------------------
 #N Geom=AllCheck Guess=TCheck SCRF=Check GenChk UB3LYP/6-31G(2df,p) Fr
 eq
 ----------------------------------------------------------------------

 Structure from the checkpoint file:  "CN1C[N]SCdC1SNNCO.chk"
 -------------------
 Title Card Required
 -------------------
 Charge =  0 Multiplicity = 2

                         Standard orientation:
 ---------------------------------------------------------------------
 Center     Atomic      Atomic             Coordinates (Angstroms)
 Number     Number       Type             X           Y           Z
 ---------------------------------------------------------------------
      1          6           0        2.425495    2.053949    0.147646
      2          7           0        1.778717    0.929838   -0.535269
      3          6           0        2.672930   -0.065553   -1.129977
      4          7           0        3.183489   -1.071364   -0.206413
      5         16           0        2.003843   -1.857443    0.591232
      6          6           0        0.544606   -0.908159    0.395213
      7          6           0        0.619295    0.382264    0.006170
      8         16           0       -0.762525    1.524490   -0.008868
      9          7           0       -1.935769    0.723783    0.986713
     10          7           0       -3.175022    0.387776    0.388813
     11          6           0       -3.112120   -0.884148   -0.332458
     12          8           0       -4.371745   -1.154528   -0.880360
     13          1           0        3.026258    1.726393    1.006767
     14          1           0        1.667654    2.754484    0.500296
     15          1           0        3.077197    2.575959   -0.558452
     16          1           0        3.529380    0.464494   -1.554894
     17          1           0        2.119333   -0.553388   -1.946708
     18          1           0       -0.378597   -1.369335    0.715158
     19          1           0       -2.115701    1.287421    1.807733
     20          1           0       -3.485496    1.108614   -0.263144
     21          1           0       -2.778694   -1.644755    0.388200
     22          1           0       -2.409855   -0.869133   -1.177608
     23          1           0       -4.999753   -1.177621   -0.148750
 ---------------------------------------------------------------------

 SCF Done:  E(UB3LYP) =  -1287.66613060     A.U. after    1 cycles

 The electronic state is 2-A.
 Alpha  occ. eigenvalues --  -88.92264 -88.91155 -19.15125 -14.38809 -14.36317
 Alpha  occ. eigenvalues --  -14.35844 -14.33075 -10.26072 -10.25276 -10.24328
 Alpha  occ. eigenvalues --  -10.21740 -10.20255  -7.97990  -7.97107  -5.94423
 Alpha  occ. eigenvalues --   -5.94025  -5.93930  -5.93659  -5.93236  -5.92659
 Alpha  occ. eigenvalues --   -1.04484  -0.98791  -0.97371  -0.89533  -0.82944
 Alpha  occ. eigenvalues --   -0.79188  -0.72966  -0.71004  -0.66215  -0.65053
 Alpha  occ. eigenvalues --   -0.62326  -0.55237  -0.53048  -0.51374  -0.50945
 Alpha  occ. eigenvalues --   -0.49391  -0.46794  -0.46054  -0.45336  -0.43881
 Alpha  occ. eigenvalues --   -0.42920  -0.41771  -0.40315  -0.38494  -0.36319
 Alpha  occ. eigenvalues --   -0.35556  -0.34029  -0.32010  -0.29675  -0.28748
 Alpha  occ. eigenvalues --   -0.27600  -0.26061  -0.24173  -0.23731  -0.17348
 Alpha virt. eigenvalues --   -0.00473   0.00692   0.04033   0.06031   0.07614
 Alpha virt. eigenvalues --    0.08013   0.09657   0.10849   0.11035   0.12723
 Alpha virt. eigenvalues --    0.13732   0.14657   0.14847   0.16308   0.16908

  Beta  occ. eigenvalues --  -88.92096 -88.91137 -19.15125 -14.38812 -14.36312
  Beta  occ. eigenvalues --  -14.35707 -14.31894 -10.26072 -10.25069 -10.24372
  Beta  occ. eigenvalues --  -10.21738 -10.20348  -7.97825  -7.97089  -5.94329
  Beta  occ. eigenvalues --   -5.93870  -5.93644  -5.93441  -5.93218  -5.92613
  Beta  occ. eigenvalues --   -1.04482  -0.98758  -0.96815  -0.87972  -0.82827
  Beta  occ. eigenvalues --   -0.78820  -0.72637  -0.70743  -0.66117  -0.64915
  Beta  occ. eigenvalues --   -0.61336  -0.55215  -0.52495  -0.51323  -0.50786
  Beta  occ. eigenvalues --   -0.49111  -0.46364  -0.45992  -0.45173  -0.43708
  Beta  occ. eigenvalues --   -0.42797  -0.41434  -0.39781  -0.38182  -0.36166
  Beta  occ. eigenvalues --   -0.34283  -0.33436  -0.30150  -0.29612  -0.27710
  Beta  occ. eigenvalues --   -0.27478  -0.25738  -0.23315  -0.21696
  Beta virt. eigenvalues --   -0.07707  -0.00373   0.01585   0.04468   0.06499
  Beta virt. eigenvalues --    0.07871   0.08174   0.09806   0.10888   0.11065
  Beta virt. eigenvalues --    0.12824   0.13892   0.14762   0.15000   0.16484

 Mulliken charges and spin densities:
               1          2
     1  C   -0.349757  -0.002363
     2  N   -0.101624   0.056792
     3  C   -0.134721  -0.017246
     4  N   -0.226065   0.569093
     5  S    0.066828   0.274526
     6  C   -0.232003  -0.066687
     7  C    0.233172   0.123838
     8  S   -0.086967   0.028335
     9  N   -0.276904  -0.001815
    10  N   -0.287962   0.001523
    11  C    0.004680   0.000133
    12  O   -0.407167   0.000042
    13  H    0.136317   0.006657
    14  H    0.151082   0.001210
    15  H    0.129815  -0.000347
    16  H    0.119416   0.002270
    17  H    0.122216   0.022096
    18  H    0.131790   0.001680
    19  H    0.266957  -0.000064
    20  H    0.229759   0.000406
    21  H    0.103171  -0.000012
    22  H    0.119753  -0.000083
    23  H    0.288214   0.000015
 Sum of Mulliken charges =   0.00000   1.00000

 Dipole moment (field-independent basis, Debye):
    X=             -2.1158    Y=              2.1941    Z=              1.0212  Tot=              3.2146
 Quadrupole moment (field-independent basis, Debye-Ang):
   XX=            -86.2423   YY=            -83.9369   ZZ=            -85.0404
   XY=              5.5519   XZ=             -8.0695   YZ=             -0.1689

  Exact polarizability: 167.485  -5.996 128.626  -9.047  -6.731  89.754
 Approx polarizability: 244.078 -12.117 216.035 -19.997 -21.143 153.761

                      1                      2                      3
                      A                      A                      A
 Frequencies --     26.8699                43.0947                72.2744
 Red. masses --      5.3797                 6.1283                 4.4378
 Frc consts  --      0.0023                 0.0067                 0.0137
 IR Inten    --      0.2145                 0.1233                 2.5977

                      4                      5                      6
                      A                      A                      A
 Frequencies --     89.7754               107.9159               143.5554
 Red. masses --      4.4829                 2.3837                 1.9311
 Frc consts  --      0.0213                 0.0164                 0.0234
 IR Inten    --      2.9079                 1.8031                 0.7812

                      7                      8                      9
                      A                      A                      A
 Frequencies --    157.5687               172.6350               238.9620
 Red. masses --      1.5068                 6.0552                 3.6648
 Frc consts  --      0.0220                 0.1063                 0.1233
 IR Inten    --      0.8019                 0.3501                 3.8135

                     10                     11                     12
                      A                      A                      A
 Frequencies --    255.6419               280.2913               316.3209
 Red. masses --      5.3263                 3.2690                 5.7004
 Frc consts  --      0.2051                 0.1513                 0.3361
 IR Inten    --     10.7059                 2.4802                10.4448

                     13                     14                     15
                      A                      A                      A
 Frequencies --    343.9581               395.0421               421.7594
 Red. masses --      2.4924                 3.6682                 3.2264
 Frc consts  --      0.1737                 0.3373                 0.3381
 IR Inten    --     27.2481                 5.0457                 1.1277

                     16                     17                     18
                      A                      A                      A
 Frequencies --    445.3971               457.0823               505.4135
 Red. masses --      1.6088                 4.3501                 3.8276
 Frc consts  --      0.1880                 0.5355                 0.5761
 IR Inten    --     62.6920                35.0332                22.1968

                     19                     20                     21
                      A                      A                      A
 Frequencies --    590.1867               600.5583               626.1117
 Red. masses --      6.2500                 7.0310                 6.0990
 Frc consts  --      1.2826                 1.4941                 1.4087
 IR Inten    --      7.3361                16.1826                10.8921

                     22                     23                     24
                      A                      A                      A
 Frequencies --    739.1015               749.0916               767.4348
 Red. masses --      3.6882                 3.5710                 1.7797
 Frc consts  --      1.1871                 1.1806                 0.6176
 IR Inten    --      6.6953                23.0648                10.8522

                     25                     26                     27
                      A                      A                      A
 Frequencies --    804.2992               819.7707               871.7745
 Red. masses --      5.3832                 1.9083                 1.6616
 Frc consts  --      2.0518                 0.7556                 0.7440
 IR Inten    --      1.9212               101.6461                77.2162

                     28                     29                     30
                      A                      A                      A
 Frequencies --    917.6907              1000.9105              1007.2042
 Red. masses --      3.6009                 1.4953                 3.2013
 Frc consts  --      1.7867                 0.8826                 1.9134
 IR Inten    --      0.8382                 2.4329                11.8567

                     31                     32                     33
                      A                      A                      A
 Frequencies --   1046.0928              1054.1566              1100.8624
 Red. masses --      2.3579                 2.8753                 3.9117
 Frc consts  --      1.5202                 1.8826                 2.7931
 IR Inten    --     25.9212                46.0695               206.4099

                     34                     35                     36
                      A                      A                      A
 Frequencies --   1119.3040              1143.7139              1157.9626
 Red. masses --      3.9970                 1.3103                 1.8745
 Frc consts  --      2.9504                 1.0098                 1.4809
 IR Inten    --     10.3394                14.7550                 3.8377

                     37                     38                     39
                      A                      A                      A
 Frequencies --   1169.9819              1214.1738              1248.2158
 Red. masses --      2.3798                 1.5453                 1.2795
 Frc consts  --      1.9194                 1.3422                 1.1746
 IR Inten    --     26.4960                 3.2212                 9.0911

                     40                     41                     42
                      A                      A                      A
 Frequencies --   1290.3552              1345.9591              1380.8429
 Red. masses --      1.5450                 1.4888                 1.4160
 Frc consts  --      1.5157                 1.5891                 1.5907
 IR Inten    --     30.7502                 6.7393                49.8584

                     43                     44                     45
                      A                      A                      A
 Frequencies --   1383.1934              1419.4605              1435.3514
 Red. masses --      1.3171                 1.1627                 1.1232
 Frc consts  --      1.4847                 1.3802                 1.3634
 IR Inten    --      9.5443                53.8967                14.1369

                     46                     47                     48
                      A                      A                      A
 Frequencies --   1453.1424              1475.8312              1486.3497
 Red. masses --      1.1596                 1.1170                 1.0500
 Frc consts  --      1.4427                 1.4334                 1.3667
 IR Inten    --      3.5547                 5.1034                15.1448

                     49                     50                     51
                      A                      A                      A
 Frequencies --   1496.2081              1512.3876              1535.2422
 Red. masses --      1.1848                 1.0728                 1.0940
 Frc consts  --      1.5627                 1.4458                 1.5192
 IR Inten    --     23.9022                13.9259                 1.0663

                     52                     53                     54
                      A                      A                      A
 Frequencies --   1574.9608              2983.3572              2992.1368
 Red. masses --      6.3876                 1.0678                 1.0549
 Frc consts  --      9.3352                 5.5996                 5.5644
 IR Inten    --     55.9465                46.9042                45.5585

                     55                     56                     57
                      A                      A                      A
 Frequencies --   3011.9289              3035.2808              3088.9846
 Red. masses --      1.0456                 1.1087                 1.0947
 Frc consts  --      5.5886                 6.0180                 6.1543
 IR Inten    --     46.1567                35.3001                 6.2056

                     58                     59                     60
                      A                      A                      A
 Frequencies --   3092.4450              3142.3087              3236.7760
 Red. masses --      1.0921                 1.1000                 1.0898
 Frc consts  --      6.1532                 6.3991                 6.7269
 IR Inten    --     40.3444                10.9522                 1.0383

                     61                     62                     63
                      A                      A                      A
 Frequencies --   3438.3823              3557.7941              3794.6430
 Red. masses --      1.0742                 1.0763                 1.0653
 Frc consts  --      7.4823                 8.0270                 9.0382
 IR Inten    --      4.5592                21.7234                30.0575

 - Thermochemistry -
 -------------------
 Temperature   298.150 Kelvin.  Pressure   1.00000 Atm.
 Atom     1 has atomic number  6 and mass  12.00000

 Molecular mass:   207.03743 amu.
 Principal axes and moments of inertia in atomic units:
                           1         2         3
     Eigenvalues --  1492.652814586.081975536.59794
           X            0.99958   0.02823  -0.00678
           Y           -0.02815   0.99952   0.01275
           Z            0.00713  -0.01256   0.99990
 This molecule is an asymmetric top.
 Rotational symmetry number  1.
 Warning -- assumption of classical behavior for rotation
           may cause significant error
 Rotational temperatures (Kelvin)      0.05803     0.01889     0.01564
 Rotational constants (GHZ):           1.20908     0.39353     0.32597
 Zero-point vibrational energy     468849.3 (Joules/Mol)
                                  112.05767 (Kcal/Mol)
 Warning -- explicit consideration of  20 degrees of freedom as
           vibrations may cause significant error
 Vibrational temperatures:     38.66    62.00   103.99   129.17   155.27
          (Kelvin)            206.54   226.71   248.38   343.81   367.81
                              403.28   455.12   494.88   568.38   606.82
                              640.83   657.64   727.18   849.15   864.07
                              900.84  1063.40  1077.78  1104.17  1157.21
                             1179.47  1254.29  1320.35  1440.09  1449.14
                             1505.09  1516.70  1583.90  1610.43  1645.55
                             1666.05  1683.34  1746.93  1795.90  1856.53
                             1936.53  1986.72  1990.11  2042.29  2065.15
                             2090.75  2123.39  2138.53  2152.71  2175.99
                             2208.87  2266.02  4292.39  4305.02  4333.49
                             4367.09  4444.36  4449.34  4521.08  4657.00
                             4947.07  5118.87  5459.64

 Zero-point correction=                           0.178575 (Hartree/Particle)
 Thermal correction to Energy=                    0.192205
 Thermal correction to Enthalpy=                  0.193149
 Thermal correction to Gibbs Free Energy=         0.135885
 Sum of electronic and zero-point Energies=          -1287.487555
 Sum of electronic and thermal Energies=             -1287.473926
 Sum of electronic and thermal Enthalpies=           -1287.472982
 Sum of electronic and thermal Free Energies=        -1287.530246

                     E (Thermal)             CV                S
                      KCal/Mol        Cal/Mol-Kelvin    Cal/Mol-Kelvin
 Total                  120.610             48.577            120.522
 Electronic               0.000              0.000              1.377
 Translational            0.889              2.981             41.887
 Rotational               0.889              2.981             32.005
 Vibrational            118.833             42.616             45.252
 Vibration     1          0.593              1.984              6.048
 Vibration     2          0.595              1.980              5.111
 Vibration     3          0.598              1.967              4.090
 Vibration     4          0.602              1.956              3.665
 Vibration     5          0.606              1.943              3.306
 Vibration     6          0.616              1.910              2.756
 Vibration     7          0.621              1.894              2.579
 Vibration     8          0.626              1.876              2.407
 Vibration     9          0.657              1.781              1.811
 Vibration    10          0.666              1.753              1.691
 Vibration    11          0.680              1.710              1.532
 Vibration    12          0.703              1.642              1.329
 Vibration    13          0.723              1.588              1.194
 Vibration    14          0.762              1.481              0.981
 Vibration    15          0.784              1.423              0.886
 Vibration    16          0.805              1.371              0.810
 Vibration    17          0.815              1.345              0.775
 Vibration    18          0.861              1.238              0.645
 Vibration    19          0.948              1.053              0.467
 Vibration    20          0.959              1.031              0.449

                           ! Non-Optimized Parameters !
 Normal termination of Gaussian 16 at Sun May 28 03:58:34 2023.
