 Gaussian 16, Revision A.03,
 Gaussian 16:  ES64L-G16RevA.03 25-Dec-2016

 -----------------------------
 # opt freq b3lyp/6-31g(2df,p)
 -----------------------------

 -------------------
 Title Card Required
 -------------------
 Symbolic Z-matrix:
 Charge =  0 Multiplicity = 1

 SCF Done:  E(RB3LYP) =  -701.617142740     A.U. after   32 cycles
 SCF Done:  E(RB3LYP) =  -701.972600524     A.U. after   27 cycles
 SCF Done:  E(RB3LYP) =  -702.413865621     A.U. after   32 cycles
 SCF Done:  E(RB3LYP) =  -702.672736197     A.U. after   41 cycles
 SCF Done:  E(RB3LYP) =  -702.874161049     A.U. after   23 cycles
 SCF Done:  E(RB3LYP) =  -703.068079491     A.U. after   24 cycles
 SCF Done:  E(RB3LYP) =  -703.270258281     A.U. after   21 cycles
 SCF Done:  E(RB3LYP) =  -703.550681410     A.U. after   24 cycles
 SCF Done:  E(RB3LYP) =  -703.631801782     A.U. after   20 cycles
 SCF Done:  E(RB3LYP) =  -703.678405306     A.U. after   19 cycles
 SCF Done:  E(RB3LYP) =  -704.325773554     A.U. after    7 cycles
 SCF Done:  E(RB3LYP) =  -704.325773821     A.U. after    7 cycles
 SCF Done:  E(RB3LYP) =  -704.325774020     A.U. after    7 cycles
 SCF Done:  E(RB3LYP) =  -704.325774229     A.U. after    7 cycles
 SCF Done:  E(RB3LYP) =  -704.325774404     A.U. after    7 cycles
 SCF Done:  E(RB3LYP) =  -704.325774574     A.U. after    7 cycles
 SCF Done:  E(RB3LYP) =  -704.325774682     A.U. after    7 cycles
 SCF Done:  E(RB3LYP) =  -704.325774765     A.U. after    7 cycles
 SCF Done:  E(RB3LYP) =  -704.325774803     A.U. after    6 cycles
 Optimization completed.
    -- Stationary point found.
 Normal termination of Gaussian 16 at Sun May 28 16:24:16 2023.

 ----------------------------------------------------------------------
 #N Geom=AllCheck Guess=TCheck SCRF=Check GenChk RB3LYP/6-31G(2df,p) Fr
 eq
 ----------------------------------------------------------------------

 Structure from the checkpoint file:  "CNC1dCCNNCdCCdCCNqCrNdC1.chk"
 -------------------
 Title Card Required
 -------------------
 Charge =  0 Multiplicity = 1

                         Standard orientation:
 ---------------------------------------------------------------------
 Center     Atomic      Atomic             Coordinates (Angstroms)
 Number     Number       Type             X           Y           Z
 ---------------------------------------------------------------------
      1          6           0       -6.216130    0.486623   -0.296049
      2          7           0       -5.306751    0.839950    0.799278
      3          6           0       -3.422062   -1.256628    0.022959
      4          6           0       -3.958615    1.098727    0.495272
      5          6           0       -3.088189    0.163038    0.053481
      6          7           0       -1.850003    0.601246   -0.470405
      7          7           0       -0.705119   -0.017885   -0.115448
      8          6           0        0.411781    0.577332   -0.326653
      9          6           0        1.673962   -0.087781   -0.008518
     10          6           0        2.855049    0.584122   -0.227023
     11          6           0        4.167300    0.054425    0.054769
     12          6           0        5.325109    0.996820   -0.273512
     13          7           0        4.316172   -1.133605    0.549480
     14          6           0        6.726584    0.463199    0.016147
     15          7           0        1.605053   -1.338502    0.487445
     16          6           0       -2.807937   -2.217746   -0.672445
     17          1           0       -6.301900    1.271974   -1.063568
     18          1           0       -7.210129    0.294202    0.118125
     19          1           0       -5.871343   -0.426644   -0.784600
     20          1           0       -5.699594    1.589588    1.351158
     21          1           0       -3.610262    2.127004    0.608420
     22          1           0       -1.964304   -2.013245   -1.320142
     23          1           0       -4.264347   -1.509064    0.661750
     24          1           0       -1.787427    1.597933   -0.664025
     25          1           0        0.701461   -1.744168    0.657449
     26          1           0        0.468212    1.589102   -0.742228
     27          1           0        2.485814   -1.781205    0.734258
     28          1           0        2.791529    1.584153   -0.639651
     29          1           0        5.298963   -1.357845    0.693111
     30          1           0        5.161853    1.932417    0.277638
     31          1           0        5.243050    1.270642   -1.333737
     32          1           0        6.940078   -0.443993   -0.558979
     33          1           0        6.857957    0.228384    1.077766
     34          1           0        7.481487    1.208022   -0.251962
     35          1           0       -3.137669   -3.248465   -0.603797
 ---------------------------------------------------------------------

 SCF Done:  E(RB3LYP) =  -704.325774803     A.U. after    1 cycles

 The electronic state is 1-A.
 Alpha  occ. eigenvalues --  -14.38019 -14.36402 -14.33513 -14.31368 -14.28058
 Alpha  occ. eigenvalues --  -10.21985 -10.21560 -10.21178 -10.20970 -10.20946
 Alpha  occ. eigenvalues --  -10.20774 -10.18259 -10.18029 -10.17467 -10.17211
 Alpha  occ. eigenvalues --  -10.14927  -1.01479  -0.91990  -0.91122  -0.87233
 Alpha  occ. eigenvalues --   -0.84432  -0.76974  -0.75575  -0.73991  -0.72293
 Alpha  occ. eigenvalues --   -0.67857  -0.65618  -0.62204  -0.60109  -0.56943
 Alpha  occ. eigenvalues --   -0.55739  -0.53483  -0.51833  -0.50490  -0.49815
 Alpha  occ. eigenvalues --   -0.47475  -0.46112  -0.45454  -0.44563  -0.43360
 Alpha  occ. eigenvalues --   -0.43266  -0.42401  -0.41309  -0.40276  -0.39347
 Alpha  occ. eigenvalues --   -0.38063  -0.37677  -0.36503  -0.35784  -0.35357
 Alpha  occ. eigenvalues --   -0.34766  -0.34519  -0.31594  -0.28630  -0.28490
 Alpha  occ. eigenvalues --   -0.26271  -0.23973  -0.23832  -0.19214  -0.17542
 Alpha virt. eigenvalues --   -0.03638  -0.01539   0.04868   0.07482   0.08865
 Alpha virt. eigenvalues --    0.09263   0.09637   0.11828   0.12077   0.12198
 Alpha virt. eigenvalues --    0.13503   0.13882   0.15062   0.15486   0.16172

 Mulliken charges:
               1
     1  C   -0.319351
     2  N   -0.295773
     3  C   -0.041739
     4  C   -0.144900
     5  C    0.349788
     6  N   -0.339455
     7  N   -0.164155
     8  C   -0.033193
     9  C    0.319081
    10  C   -0.230168
    11  C    0.309331
    12  C   -0.248515
    13  N   -0.550502
    14  C   -0.411270
    15  N   -0.571301
    16  C   -0.347531
    17  H    0.104629
    18  H    0.121334
    19  H    0.143098
    20  H    0.231172
    21  H    0.074992
    22  H    0.120248
    23  H    0.109535
    24  H    0.231227
    25  H    0.260576
    26  H    0.077273
    27  H    0.276538
    28  H    0.060226
    29  H    0.205843
    30  H    0.114637
    31  H    0.115102
    32  H    0.124842
    33  H    0.124579
    34  H    0.113181
    35  H    0.110618
 Sum of Mulliken charges =  -0.00000

 Dipole moment (field-independent basis, Debye):
    X=             -2.3577    Y=              3.0268    Z=             -0.5361  Tot=              3.8740
 Quadrupole moment (field-independent basis, Debye-Ang):
   XX=            -77.6210   YY=            -88.7652   ZZ=            -99.3099
   XY=             -2.7210   XZ=             -2.3554   YZ=             -0.4472

  Exact polarizability: 335.730 -14.035 160.960  -9.442   0.205  99.131
 Approx polarizability: 423.598 -30.588 272.896 -23.548   4.393 165.226

                      1                      2                      3
                      A                      A                      A
 Frequencies --     21.8502                28.5101                43.2736
 Red. masses --      4.2224                 4.3298                 3.9878
 Frc consts  --      0.0012                 0.0021                 0.0044
 IR Inten    --      0.5664                 0.6169                 0.8474

                      4                      5                      6
                      A                      A                      A
 Frequencies --     55.1157                76.8814                90.8879
 Red. masses --      2.3057                 2.8329                 4.4886
 Frc consts  --      0.0041                 0.0099                 0.0218
 IR Inten    --      0.0648                 4.9159                 2.6590

                      7                      8                      9
                      A                      A                      A
 Frequencies --    108.9439               123.8937               135.8102
 Red. masses --      2.9758                 3.4032                 1.9012
 Frc consts  --      0.0208                 0.0308                 0.0207
 IR Inten    --      0.5321                 1.4897                 7.5944

                     10                     11                     12
                      A                      A                      A
 Frequencies --    151.4198               187.0884               209.4331
 Red. masses --      2.9369                 1.6012                 2.7255
 Frc consts  --      0.0397                 0.0330                 0.0704
 IR Inten    --      1.5250                 3.5167                11.3703

                     13                     14                     15
                      A                      A                      A
 Frequencies --    224.0305               239.9345               254.0958
 Red. masses --      3.5874                 2.3972                 1.1391
 Frc consts  --      0.1061                 0.0813                 0.0433
 IR Inten    --     21.5131                39.7586                 7.3666

                     16                     17                     18
                      A                      A                      A
 Frequencies --    262.8863               287.7639               319.5648
 Red. masses --      3.0437                 3.3595                 1.8888
 Frc consts  --      0.1239                 0.1639                 0.1136
 IR Inten    --      3.0341                26.3217                49.3559

                     19                     20                     21
                      A                      A                      A
 Frequencies --    324.8106               346.1120               376.2455
 Red. masses --      2.6815                 3.1700                 3.5096
 Frc consts  --      0.1667                 0.2237                 0.2927
 IR Inten    --     22.8932                 1.4045                14.1521

                     22                     23                     24
                      A                      A                      A
 Frequencies --    418.8020               445.6304               489.4571
 Red. masses --      2.9692                 2.4966                 3.4619
 Frc consts  --      0.3068                 0.2921                 0.4886
 IR Inten    --      8.1917                14.5138                 6.8665

                     25                     26                     27
                      A                      A                      A
 Frequencies --    509.1723               559.4915               566.7278
 Red. masses --      2.9404                 2.1963                 1.4449
 Frc consts  --      0.4492                 0.4051                 0.2734
 IR Inten    --     38.8130                 2.7300               122.9062

                     28                     29                     30
                      A                      A                      A
 Frequencies --    614.3556               661.5960               662.1910
 Red. masses --      2.7991                 1.9992                 1.9362
 Frc consts  --      0.6225                 0.5156                 0.5002
 IR Inten    --     16.4253                14.1505                29.1057

                     31                     32                     33
                      A                      A                      A
 Frequencies --    701.3349               720.4354               749.2297
 Red. masses --      2.8676                 1.6641                 1.9730
 Frc consts  --      0.8310                 0.5089                 0.6525
 IR Inten    --      4.4151                24.3568                20.2154

                     34                     35                     36
                      A                      A                      A
 Frequencies --    772.0506               794.9976               813.9913
 Red. masses --      1.0706                 1.5772                 1.9248
 Frc consts  --      0.3760                 0.5873                 0.7514
 IR Inten    --      1.1614                 0.0126                13.5111

                     37                     38                     39
                      A                      A                      A
 Frequencies --    823.8014               842.6630               849.6111
 Red. masses --      2.7060                 1.1391                 1.9106
 Frc consts  --      1.0820                 0.4766                 0.8126
 IR Inten    --     10.4424                38.7579                32.2500

                     40                     41                     42
                      A                      A                      A
 Frequencies --    890.0226               918.7457               935.7079
 Red. masses --      3.1577                 1.5339                 1.3686
 Frc consts  --      1.4737                 0.7628                 0.7060
 IR Inten    --     43.4812                20.8517                28.8787

                     43                     44                     45
                      A                      A                      A
 Frequencies --    965.5440               987.0733              1019.6580
 Red. masses --      2.8029                 3.7091                 1.8454
 Frc consts  --      1.5396                 2.1292                 1.1305
 IR Inten    --      8.3941                26.3522                10.8102

                     46                     47                     48
                      A                      A                      A
 Frequencies --   1053.8786              1059.8607              1080.3443
 Red. masses --      1.1895                 1.7097                 1.7382
 Frc consts  --      0.7784                 1.1315                 1.1953
 IR Inten    --     24.1590                 9.4010                 9.1647

                     49                     50                     51
                      A                      A                      A
 Frequencies --   1100.6434              1117.0322              1140.3964
 Red. masses --      1.6258                 2.0150                 1.2892
 Frc consts  --      1.1604                 1.4813                 0.9878
 IR Inten    --      1.0810                23.3860                77.2678

                     52                     53                     54
                      A                      A                      A
 Frequencies --   1157.0023              1160.3524              1172.5269
 Red. masses --      1.4850                 3.5863                 1.6932
 Frc consts  --      1.1713                 2.8449                 1.3716
 IR Inten    --     54.9206                17.0830                38.6670

                     55                     56                     57
                      A                      A                      A
 Frequencies --   1219.1086              1271.4566              1287.8587
 Red. masses --      3.3405                 1.2962                 1.1700
 Frc consts  --      2.9251                 1.2346                 1.1433
 IR Inten    --    488.7261                11.6710                 0.0023

                     58                     59                     60
                      A                      A                      A
 Frequencies --   1295.5595              1317.1782              1331.1135
 Red. masses --      1.9168                 1.3903                 1.3221
 Frc consts  --      1.8955                 1.4212                 1.3803
 IR Inten    --     86.8616                57.1967                50.0075

                     61                     62                     63
                      A                      A                      A
 Frequencies --   1353.5536              1387.3499              1405.5688
 Red. masses --      1.4651                 1.8436                 1.2839
 Frc consts  --      1.5814                 2.0907                 1.4944
 IR Inten    --     23.9844                34.1101                33.8084

                     64                     65                     66
                      A                      A                      A
 Frequencies --   1412.3248              1453.3536              1464.8352
 Red. masses --      1.8739                 1.1709                 1.4184
 Frc consts  --      2.2022                 1.4572                 1.7932
 IR Inten    --     68.7468                10.0531                62.7551

                     67                     68                     69
                      A                      A                      A
 Frequencies --   1468.7593              1480.5667              1483.8345
 Red. masses --      1.1042                 1.8068                 1.1851
 Frc consts  --      1.4034                 2.3335                 1.5374
 IR Inten    --      7.9825                17.1814                12.4269

                     70                     71                     72
                      A                      A                      A
 Frequencies --   1499.6167              1500.0025              1508.1834
 Red. masses --      1.0386                 1.1225                 1.0509
 Frc consts  --      1.3761                 1.4880                 1.4084
 IR Inten    --      4.7029                 2.2379                12.7299

                     73                     74                     75
                      A                      A                      A
 Frequencies --   1520.1859              1525.3845              1570.5351
 Red. masses --      1.2553                 1.2731                 2.5442
 Frc consts  --      1.7092                 1.7452                 3.6974
 IR Inten    --    124.0717                40.0722               192.2140

                     76                     77                     78
                      A                      A                      A
 Frequencies --   1621.7694              1643.6415              1670.0247
 Red. masses --      2.6508                 7.9218                 4.5672
 Frc consts  --      4.1078                12.6093                 7.5049
 IR Inten    --    248.8680                76.9139                 6.1253

                     79                     80                     81
                      A                      A                      A
 Frequencies --   1674.9733              1714.1175              2977.7921
 Red. masses --      5.7747                 5.0031                 1.0546
 Frc consts  --      9.5454                 8.6610                 5.5098
 IR Inten    --    235.8000                11.4949               123.4144

                     82                     83                     84
                      A                      A                      A
 Frequencies --   3018.5079              3034.4281              3045.1518
 Red. masses --      1.0604                 1.0358                 1.0998
 Frc consts  --      5.6924                 5.6192                 6.0089
 IR Inten    --     18.0752                22.8637                 9.9243

                     85                     86                     87
                      A                      A                      A
 Frequencies --   3057.6219              3082.1842              3094.7865
 Red. masses --      1.0867                 1.0803                 1.0883
 Frc consts  --      5.9857                 6.0465                 6.1410
 IR Inten    --     31.6077                40.4611                36.6788

                     88                     89                     90
                      A                      A                      A
 Frequencies --   3101.0046              3107.0082              3130.3803
 Red. masses --      1.1019                 1.1003                 1.1014
 Frc consts  --      6.2432                 6.2580                 6.3592
 IR Inten    --     30.0376                30.5103                13.6010

                     91                     92                     93
                      A                      A                      A
 Frequencies --   3158.1127              3169.6986              3188.1850
 Red. masses --      1.0616                 1.0871                 1.0880
 Frc consts  --      6.2382                 6.4350                 6.5155
 IR Inten    --      1.6793                 5.6317                 7.2099

                     94                     95                     96
                      A                      A                      A
 Frequencies --   3248.4496              3442.1092              3476.2505
 Red. masses --      1.1146                 1.0566                 1.0741
 Frc consts  --      6.9297                 7.3761                 7.6476
 IR Inten    --     11.6158                77.8855                 0.1215

                     97                     98                     99
                      A                      A                      A
 Frequencies --   3489.2716              3579.1891              3700.2737
 Red. masses --      1.0736                 1.0744                 1.0938
 Frc consts  --      7.7013                 8.1095                 8.8242
 IR Inten    --      4.2769                13.0680               116.2997

 - Thermochemistry -
 -------------------
 Temperature   298.150 Kelvin.  Pressure   1.00000 Atm.
 Atom     1 has atomic number  6 and mass  12.00000

 Molecular mass:   221.16405 amu.
 Principal axes and moments of inertia in atomic units:
                           1         2         3
     Eigenvalues --   964.66792********************
           X            0.99999   0.00308   0.00094
           Y           -0.00307   0.99996  -0.00849
           Z           -0.00096   0.00849   0.99996
 This molecule is an asymmetric top.
 Rotational symmetry number  1.
 Warning -- assumption of classical behavior for rotation
           may cause significant error
 Rotational temperatures (Kelvin)      0.08979     0.00698     0.00663
 Rotational constants (GHZ):           1.87084     0.14540     0.13822
 Zero-point vibrational energy     782382.5 (Joules/Mol)
                                  186.99391 (Kcal/Mol)
 Warning -- explicit consideration of  28 degrees of freedom as
           vibrations may cause significant error
 Vibrational temperatures:     31.44    41.02    62.26    79.30   110.62
          (Kelvin)            130.77   156.75   178.26   195.40   217.86
                              269.18   301.33   322.33   345.21   365.59
                              378.23   414.03   459.78   467.33   497.98
                              541.33   602.56   641.16   704.22   732.59
                              804.98   815.39   883.92   951.89   952.75
                             1009.06  1036.55  1077.97  1110.81  1143.82
                             1171.15  1185.27  1212.40  1222.40  1280.54
                             1321.87  1346.27  1389.20  1420.18  1467.06
                             1516.30  1524.90  1554.37  1583.58  1607.16
                             1640.78  1664.67  1669.49  1687.00  1754.03
                             1829.34  1852.94  1864.02  1895.13  1915.18
                             1947.46  1996.09  2022.30  2032.02  2091.05
                             2107.57  2113.22  2130.21  2134.91  2157.61
                             2158.17  2169.94  2187.21  2194.69  2259.65
                             2333.36  2364.83  2402.79  2409.91  2466.23
                             4284.38  4342.96  4365.87  4381.29  4399.24
                             4434.58  4452.71  4461.65  4470.29  4503.92
                             4543.82  4560.49  4587.09  4673.79  4952.43
                             5001.55  5020.28  5149.65  5323.87

 Zero-point correction=                           0.297994 (Hartree/Particle)
 Thermal correction to Energy=                    0.316737
 Thermal correction to Enthalpy=                  0.317681
 Thermal correction to Gibbs Free Energy=         0.249446
 Sum of electronic and zero-point Energies=           -704.027781
 Sum of electronic and thermal Energies=              -704.009038
 Sum of electronic and thermal Enthalpies=            -704.008094
 Sum of electronic and thermal Free Energies=         -704.076329

                     E (Thermal)             CV                S
                      KCal/Mol        Cal/Mol-Kelvin    Cal/Mol-Kelvin
 Total                  198.755             68.209            143.613
 Electronic               0.000              0.000              0.000
 Translational            0.889              2.981             42.084
 Rotational               0.889              2.981             33.413
 Vibrational            196.978             62.247             68.115
 Vibration     1          0.593              1.985              6.459
 Vibration     2          0.593              1.984              5.930
 Vibration     3          0.595              1.980              5.103
 Vibration     4          0.596              1.976              4.625
 Vibration     5          0.599              1.965              3.969
 Vibration     6          0.602              1.956              3.641
 Vibration     7          0.606              1.942              3.288
 Vibration     8          0.610              1.929              3.039
 Vibration     9          0.614              1.918              2.862
 Vibration    10          0.619              1.901              2.654
 Vibration    11          0.632              1.858              2.256
 Vibration    12          0.642              1.826              2.049
 Vibration    13          0.649              1.804              1.926
 Vibration    14          0.657              1.779              1.803
 Vibration    15          0.665              1.756              1.702
 Vibration    16          0.670              1.741              1.643
 Vibration    17          0.685              1.696              1.487
 Vibration    18          0.705              1.636              1.312
 Vibration    19          0.709              1.626              1.286
 Vibration    20          0.724              1.583              1.184
 Vibration    21          0.747              1.521              1.054
 Vibration    22          0.782              1.429              0.896
 Vibration    23          0.805              1.371              0.809
 Vibration    24          0.845              1.273              0.685
 Vibration    25          0.864              1.230              0.636
 Vibration    26          0.915              1.119              0.525
 Vibration    27          0.923              1.103              0.511
 Vibration    28          0.974              1.001              0.426

                           ! Non-Optimized Parameters !
 Normal termination of Gaussian 16 at Sun May 28 18:42:39 2023.
