 Gaussian 16, Revision A.03,
 Gaussian 16:  ES64L-G16RevA.03 25-Dec-2016

 -----------------------------
 # opt freq b3lyp/6-31g(2df,p)
 -----------------------------

 -------------------
 Title Card Required
 -------------------
 Symbolic Z-matrix:
 Charge =  0 Multiplicity = 1

 SCF Done:  E(RB3LYP) =  -484.342428613     A.U. after   12 cycles
 SCF Done:  E(RB3LYP) =  -484.357546654     A.U. after   11 cycles
 SCF Done:  E(RB3LYP) =  -484.361675454     A.U. after   10 cycles
 SCF Done:  E(RB3LYP) =  -484.363328940     A.U. after   11 cycles
 SCF Done:  E(RB3LYP) =  -484.363967988     A.U. after   10 cycles
 SCF Done:  E(RB3LYP) =  -484.364163131     A.U. after   10 cycles
 SCF Done:  E(RB3LYP) =  -484.364266079     A.U. after    9 cycles
 SCF Done:  E(RB3LYP) =  -484.364303213     A.U. after    9 cycles
 SCF Done:  E(RB3LYP) =  -484.364331346     A.U. after    8 cycles
 SCF Done:  E(RB3LYP) =  -484.364338669     A.U. after    8 cycles
 SCF Done:  E(RB3LYP) =  -484.364339904     A.U. after    7 cycles
 SCF Done:  E(RB3LYP) =  -484.364340838     A.U. after    7 cycles
 SCF Done:  E(RB3LYP) =  -484.364341626     A.U. after    7 cycles
 SCF Done:  E(RB3LYP) =  -484.364341772     A.U. after    6 cycles
 SCF Done:  E(RB3LYP) =  -484.364341702     A.U. after    6 cycles
 SCF Done:  E(RB3LYP) =  -484.364341552     A.U. after    6 cycles
 SCF Done:  E(RB3LYP) =  -484.364341486     A.U. after    6 cycles
 Optimization completed.
    -- Stationary point found.
 Normal termination of Gaussian 16 at Mon May 22 18:41:45 2023.

 ----------------------------------------------------------------------
 #N Geom=AllCheck Guess=TCheck SCRF=Check GenChk RB3LYP/6-31G(2df,p) Fr
 eq
 ----------------------------------------------------------------------

 Structure from the checkpoint file:  "CNC1qCCOrCCqCrC1C.chk"
 -------------------
 Title Card Required
 -------------------
 Charge =  0 Multiplicity = 1

                         Standard orientation:
 ---------------------------------------------------------------------
 Center     Atomic      Atomic             Coordinates (Angstroms)
 Number     Number       Type             X           Y           Z
 ---------------------------------------------------------------------
      1          6           0        2.494201   -1.885698   -0.299799
      2          7           0        1.271430   -1.716483    0.475194
      3          6           0        0.382834   -0.603242    0.101652
      4          6           0        1.090819    0.763363    0.255650
      5          6           0        0.466994    2.026002   -0.350356
      6          8           0        1.335843    3.145274   -0.227080
      7          6           0       -0.331737   -0.887321   -1.259491
      8          6           0       -1.719295   -0.921926   -0.554169
      9          6           0       -2.698047    0.176557   -0.958831
     10          6           0       -0.998723   -0.802564    0.831803
     11          6           0       -1.506036    0.181038    1.880388
     12          1           0        2.996383   -2.801494    0.027947
     13          1           0        3.224530   -1.062281   -0.231411
     14          1           0        2.241166   -2.011714   -1.357818
     15          1           0        1.500889   -1.639499    1.462290
     16          1           0        2.089269    0.689868   -0.189345
     17          1           0        1.250769    0.938436    1.331119
     18          1           0       -0.514182    2.249682    0.090495
     19          1           0        0.314750    1.900547   -1.426245
     20          1           0        1.477111    3.302157    0.712085
     21          1           0       -0.034258   -1.847851   -1.683894
     22          1           0       -0.225757   -0.122321   -2.032782
     23          1           0       -2.225104   -1.885546   -0.666786
     24          1           0       -2.252552    1.175018   -0.908155
     25          1           0       -3.588069    0.177636   -0.319966
     26          1           0       -3.032718    0.023387   -1.991027
     27          1           0       -0.957144   -1.794201    1.291598
     28          1           0       -1.644709    1.194448    1.495955
     29          1           0       -0.819098    0.240101    2.732557
     30          1           0       -2.474094   -0.150430    2.272578
 ---------------------------------------------------------------------

 SCF Done:  E(RB3LYP) =  -484.364341486     A.U. after    1 cycles

 The electronic state is 1-A.
 Alpha  occ. eigenvalues --  -19.13036 -14.30760 -10.22248 -10.21074 -10.19561
 Alpha  occ. eigenvalues --  -10.17907 -10.17554 -10.17533 -10.17336 -10.17001
 Alpha  occ. eigenvalues --  -10.16920  -1.01081  -0.90257  -0.82419  -0.74961
 Alpha  occ. eigenvalues --   -0.72592  -0.70633  -0.66597  -0.62837  -0.61416
 Alpha  occ. eigenvalues --   -0.57177  -0.51084  -0.50311  -0.48628  -0.46379
 Alpha  occ. eigenvalues --   -0.45658  -0.43636  -0.42771  -0.41848  -0.40522
 Alpha  occ. eigenvalues --   -0.39985  -0.39689  -0.38186  -0.36993  -0.36235
 Alpha  occ. eigenvalues --   -0.35841  -0.35594  -0.32870  -0.30839  -0.30757
 Alpha  occ. eigenvalues --   -0.28554  -0.27657  -0.26705  -0.21145
 Alpha virt. eigenvalues --    0.06984   0.08074   0.09085   0.10215   0.10722
 Alpha virt. eigenvalues --    0.12665   0.13500   0.14087   0.14462   0.14867
 Alpha virt. eigenvalues --    0.15296   0.16642   0.16834   0.17954   0.18409

 Mulliken charges:
               1
     1  C   -0.329083
     2  N   -0.311762
     3  C    0.283743
     4  C   -0.288352
     5  C   -0.078902
     6  O   -0.418140
     7  C   -0.277752
     8  C    0.018492
     9  C   -0.409100
    10  C   -0.001376
    11  C   -0.431053
    12  H    0.116796
    13  H    0.099452
    14  H    0.124393
    15  H    0.208096
    16  H    0.109817
    17  H    0.075935
    18  H    0.093407
    19  H    0.114619
    20  H    0.278884
    21  H    0.100978
    22  H    0.094419
    23  H    0.069072
    24  H    0.117741
    25  H    0.111781
    26  H    0.112959
    27  H    0.073818
    28  H    0.117058
    29  H    0.107818
    30  H    0.116242
 Sum of Mulliken charges =  -0.00000

 Dipole moment (field-independent basis, Debye):
    X=             -0.0924    Y=             -0.4845    Z=              1.4646  Tot=              1.5455
 Quadrupole moment (field-independent basis, Debye-Ang):
   XX=            -69.7443   YY=            -76.6519   ZZ=            -67.4338
   XY=             -2.3104   XZ=              2.8093   YZ=              4.3574

  Exact polarizability: 115.570  -2.893 105.322   0.569   1.812 100.503
 Approx polarizability: 152.191   0.139 147.507   0.102   0.320 151.165

                      1                      2                      3
                      A                      A                      A
 Frequencies --     44.9181                85.8897               103.5152
 Red. masses --      2.5553                 2.3552                 2.2755
 Frc consts  --      0.0030                 0.0102                 0.0144
 IR Inten    --      1.5284                 1.1196                 1.4846

                      4                      5                      6
                      A                      A                      A
 Frequencies --    110.0401               165.5370               178.6963
 Red. masses --      1.9922                 2.9812                 1.9093
 Frc consts  --      0.0142                 0.0481                 0.0359
 IR Inten    --      0.8353                 0.8011                 0.4817

                      7                      8                      9
                      A                      A                      A
 Frequencies --    209.0629               216.8868               222.2725
 Red. masses --      1.4383                 1.3625                 1.5947
 Frc consts  --      0.0370                 0.0378                 0.0464
 IR Inten    --      0.8941                 0.6428                 0.2701

                     10                     11                     12
                      A                      A                      A
 Frequencies --    241.8075               270.3949               291.1896
 Red. masses --      1.3655                 2.3734                 1.6098
 Frc consts  --      0.0470                 0.1022                 0.0804
 IR Inten    --      0.1148                 0.2856                32.1438

                     13                     14                     15
                      A                      A                      A
 Frequencies --    308.7238               351.7160               359.5770
 Red. masses --      1.5351                 2.7560                 3.0146
 Frc consts  --      0.0862                 0.2009                 0.2296
 IR Inten    --     62.5470                 1.3795                13.3946

                     16                     17                     18
                      A                      A                      A
 Frequencies --    411.2704               419.2857               515.9751
 Red. masses --      2.9832                 2.4713                 2.7199
 Frc consts  --      0.2973                 0.2560                 0.4266
 IR Inten    --      1.2902                 0.9845                 1.7719

                     19                     20                     21
                      A                      A                      A
 Frequencies --    539.1426               644.0925               735.7868
 Red. masses --      2.3289                 3.2021                 1.4532
 Frc consts  --      0.3988                 0.7827                 0.4635
 IR Inten    --      5.3543                 6.0173                80.8462

                     22                     23                     24
                      A                      A                      A
 Frequencies --    751.4753               773.1933               782.7664
 Red. masses --      2.0171                 1.7178                 2.0249
 Frc consts  --      0.6711                 0.6051                 0.7310
 IR Inten    --      5.5592                 0.6532                 5.0674

                     25                     26                     27
                      A                      A                      A
 Frequencies --    855.3467               895.8053               921.4687
 Red. masses --      1.6410                 2.1270                 2.0874
 Frc consts  --      0.7074                 1.0057                 1.0443
 IR Inten    --      3.4866                 0.0491                 0.3664

                     28                     29                     30
                      A                      A                      A
 Frequencies --    948.3961               992.2278              1019.0499
 Red. masses --      1.6021                 1.3308                 2.7322
 Frc consts  --      0.8490                 0.7720                 1.6717
 IR Inten    --      6.8436                 4.1643                24.1151

                     31                     32                     33
                      A                      A                      A
 Frequencies --   1027.9014              1053.3412              1067.3501
 Red. masses --      1.7001                 2.0711                 3.4953
 Frc consts  --      1.0583                 1.3539                 2.3461
 IR Inten    --     11.9906                 7.3858                95.6829

                     34                     35                     36
                      A                      A                      A
 Frequencies --   1081.1209              1090.3419              1117.8111
 Red. masses --      1.7503                 1.8366                 1.6154
 Frc consts  --      1.2054                 1.2865                 1.1892
 IR Inten    --      8.3094                 1.1755                 2.7817

                     37                     38                     39
                      A                      A                      A
 Frequencies --   1139.7423              1160.1059              1167.9459
 Red. masses --      1.7033                 2.2708                 1.4698
 Frc consts  --      1.3036                 1.8006                 1.1813
 IR Inten    --     17.0297                29.5582                 8.8413

                     40                     41                     42
                      A                      A                      A
 Frequencies --   1190.0130              1200.3654              1211.7691
 Red. masses --      2.1621                 2.8287                 1.7011
 Frc consts  --      1.8040                 2.4014                 1.4717
 IR Inten    --     10.8273                13.7949                 4.5389

                     43                     44                     45
                      A                      A                      A
 Frequencies --   1244.3828              1269.5384              1281.6437
 Red. masses --      1.7790                 1.6534                 1.3956
 Frc consts  --      1.6230                 1.5701                 1.3507
 IR Inten    --      0.7724                 6.2606                 0.9938

                     46                     47                     48
                      A                      A                      A
 Frequencies --   1292.6917              1330.5129              1337.0423
 Red. masses --      1.3869                 1.2662                 1.3086
 Frc consts  --      1.3655                 1.3207                 1.3783
 IR Inten    --      0.6985                 9.5175                 4.3179

                     49                     50                     51
                      A                      A                      A
 Frequencies --   1368.2579              1371.4768              1397.1070
 Red. masses --      1.4175                 1.3555                 1.3071
 Frc consts  --      1.5635                 1.5022                 1.5032
 IR Inten    --      2.2456                 3.6426                12.2220

                     52                     53                     54
                      A                      A                      A
 Frequencies --   1407.0965              1414.9349              1420.1415
 Red. masses --      1.2950                 1.2217                 1.2645
 Frc consts  --      1.5106                 1.4410                 1.5025
 IR Inten    --      3.4843                 4.7208                34.6229

                     55                     56                     57
                      A                      A                      A
 Frequencies --   1453.9923              1472.3999              1475.0064
 Red. masses --      1.1522                 1.1957                 1.0890
 Frc consts  --      1.4352                 1.5273                 1.3959
 IR Inten    --      1.2151                 2.6371                 5.4760

                     58                     59                     60
                      A                      A                      A
 Frequencies --   1478.5601              1489.4123              1492.3873
 Red. masses --      1.1429                 1.0479                 1.0558
 Frc consts  --      1.4721                 1.3696                 1.3855
 IR Inten    --      3.5472                 3.0990                 2.2501

                     61                     62                     63
                      A                      A                      A
 Frequencies --   1494.8470              1503.7068              1504.9759
 Red. masses --      1.0621                 1.0480                 1.0521
 Frc consts  --      1.3983                 1.3961                 1.4040
 IR Inten    --      6.8834                 3.2538                 2.1216

                     64                     65                     66
                      A                      A                      A
 Frequencies --   1516.1383              1523.0512              2961.0616
 Red. masses --      1.0841                 1.0526                 1.0575
 Frc consts  --      1.4682                 1.4387                 5.4630
 IR Inten    --      1.0505                 6.0922                71.4850

                     67                     68                     69
                      A                      A                      A
 Frequencies --   2987.8187              3006.3343              3027.3027
 Red. masses --      1.0690                 1.0673                 1.0369
 Frc consts  --      5.6226                 5.6832                 5.5986
 IR Inten    --     33.3403                53.0440                19.9432

                     70                     71                     72
                      A                      A                      A
 Frequencies --   3030.9046              3041.3785              3057.6306
 Red. masses --      1.0392                 1.0848                 1.0773
 Frc consts  --      5.6247                 5.9122                 5.9340
 IR Inten    --     36.8629                14.4774                35.5651

                     73                     74                     75
                      A                      A                      A
 Frequencies --   3058.4863              3062.4666              3065.5412
 Red. masses --      1.0757                 1.0812                 1.0719
 Frc consts  --      5.9288                 5.9744                 5.9352
 IR Inten    --     29.6678                15.4088                16.3111

                     76                     77                     78
                      A                      A                      A
 Frequencies --   3083.1905              3089.0953              3089.9659
 Red. masses --      1.1000                 1.0961                 1.0997
 Frc consts  --      6.1608                 6.1625                 6.1863
 IR Inten    --     23.0976                21.4055                54.7493

                     79                     80                     81
                      A                      A                      A
 Frequencies --   3099.3127              3102.3012              3115.8254
 Red. masses --      1.1019                 1.0999                 1.0980
 Frc consts  --      6.2362                 6.2369                 6.2803
 IR Inten    --     32.3475                26.3991                20.8489

                     82                     83                     84
                      A                      A                      A
 Frequencies --   3119.3394              3496.6397              3812.6954
 Red. masses --      1.1049                 1.0735                 1.0661
 Frc consts  --      6.3343                 7.7329                 9.1309
 IR Inten    --     43.3376                 0.5368                14.7494

 - Thermochemistry -
 -------------------
 Temperature   298.150 Kelvin.  Pressure   1.00000 Atm.
 Atom     1 has atomic number  6 and mass  12.00000

 Molecular mass:   157.14666 amu.
 Principal axes and moments of inertia in atomic units:
                           1         2         3
     Eigenvalues --  1792.147731871.640742739.80728
           X            0.78130  -0.62415  -0.00088
           Y            0.62406   0.78116   0.01852
           Z           -0.01087  -0.01501   0.99983
 This molecule is an asymmetric top.
 Rotational symmetry number  1.
 Warning -- assumption of classical behavior for rotation
           may cause significant error
 Rotational temperatures (Kelvin)      0.04833     0.04628     0.03161
 Rotational constants (GHZ):           1.00703     0.96426     0.65871
 Zero-point vibrational energy     716084.1 (Joules/Mol)
                                  171.14821 (Kcal/Mol)
 Warning -- explicit consideration of  19 degrees of freedom as
           vibrations may cause significant error
 Vibrational temperatures:     64.63   123.58   148.94   158.32   238.17
          (Kelvin)            257.10   300.79   312.05   319.80   347.91
                              389.04   418.96   444.18   506.04   517.35
                              591.73   603.26   742.37   775.71   926.71
                             1058.63  1081.21  1112.45  1126.23  1230.65
                             1288.86  1325.79  1364.53  1427.59  1466.19
                             1478.92  1515.52  1535.68  1555.49  1568.76
                             1608.28  1639.84  1669.13  1680.41  1712.16
                             1727.06  1743.47  1790.39  1826.58  1844.00
                             1859.89  1914.31  1923.71  1968.62  1973.25
                             2010.13  2024.50  2035.78  2043.27  2091.97
                             2118.45  2122.21  2127.32  2142.93  2147.21
                             2150.75  2163.50  2165.32  2181.38  2191.33
                             4260.31  4298.80  4325.44  4355.61  4360.80
                             4375.87  4399.25  4400.48  4406.21  4410.63
                             4436.02  4444.52  4445.77  4459.22  4463.52
                             4482.98  4488.03  5030.88  5485.62

 Zero-point correction=                           0.272742 (Hartree/Particle)
 Thermal correction to Energy=                    0.286186
 Thermal correction to Enthalpy=                  0.287130
 Thermal correction to Gibbs Free Energy=         0.233630
 Sum of electronic and zero-point Energies=           -484.091599
 Sum of electronic and thermal Energies=              -484.078155
 Sum of electronic and thermal Enthalpies=            -484.077211
 Sum of electronic and thermal Free Energies=         -484.130711

                     E (Thermal)             CV                S
                      KCal/Mol        Cal/Mol-Kelvin    Cal/Mol-Kelvin
 Total                  179.585             50.316            112.601
 Electronic               0.000              0.000              0.000
 Translational            0.889              2.981             41.065
 Rotational               0.889              2.981             30.598
 Vibrational            177.807             44.354             40.938
 Vibration     1          0.595              1.979              5.029
 Vibration     2          0.601              1.959              3.752
 Vibration     3          0.605              1.946              3.387
 Vibration     4          0.606              1.941              3.268
 Vibration     5          0.624              1.885              2.486
 Vibration     6          0.629              1.869              2.342
 Vibration     7          0.642              1.827              2.052
 Vibration     8          0.646              1.815              1.985
 Vibration     9          0.648              1.807              1.941
 Vibration    10          0.658              1.776              1.790
 Vibration    11          0.674              1.728              1.594
 Vibration    12          0.687              1.690              1.467
 Vibration    13          0.698              1.657              1.369
 Vibration    14          0.728              1.572              1.158
 Vibration    15          0.734              1.556              1.124
 Vibration    16          0.775              1.446              0.922
 Vibration    17          0.782              1.428              0.894
 Vibration    18          0.871              1.215              0.619
 Vibration    19          0.894              1.163              0.567

                           ! Non-Optimized Parameters !
 Normal termination of Gaussian 16 at Mon May 22 20:00:05 2023.
