 Gaussian 16, Revision A.03,
 Gaussian 16:  ES64L-G16RevA.03 25-Dec-2016

 -----------------------------
 # opt freq b3lyp/6-31g(2df,p)
 -----------------------------

 -------------------
 Title Card Required
 -------------------
 Symbolic Z-matrix:
 Charge =  0 Multiplicity = 1

 SCF Done:  E(RB3LYP) =  -673.657261728     A.U. after   12 cycles
 SCF Done:  E(RB3LYP) =  -673.675193403     A.U. after   11 cycles
 SCF Done:  E(RB3LYP) =  -673.680681817     A.U. after   11 cycles
 SCF Done:  E(RB3LYP) =  -673.686281521     A.U. after   10 cycles
 SCF Done:  E(RB3LYP) =  -673.687878206     A.U. after   10 cycles
 SCF Done:  E(RB3LYP) =  -673.688828380     A.U. after   10 cycles
 SCF Done:  E(RB3LYP) =  -673.689976213     A.U. after   11 cycles
 SCF Done:  E(RB3LYP) =  -673.689066061     A.U. after   12 cycles
 SCF Done:  E(RB3LYP) =  -673.692708658     A.U. after   10 cycles
 SCF Done:  E(RB3LYP) =  -673.694253526     A.U. after   10 cycles
 SCF Done:  E(RB3LYP) =  -673.698329828     A.U. after   10 cycles
 SCF Done:  E(RB3LYP) =  -673.698399491     A.U. after    9 cycles
 SCF Done:  E(RB3LYP) =  -673.698454941     A.U. after    9 cycles
 SCF Done:  E(RB3LYP) =  -673.698480673     A.U. after    9 cycles
 SCF Done:  E(RB3LYP) =  -673.698493301     A.U. after    8 cycles
 SCF Done:  E(RB3LYP) =  -673.698502009     A.U. after    8 cycles
 SCF Done:  E(RB3LYP) =  -673.698505003     A.U. after    8 cycles
 SCF Done:  E(RB3LYP) =  -673.698506110     A.U. after    7 cycles
 SCF Done:  E(RB3LYP) =  -673.698506323     A.U. after    6 cycles
 Optimization completed.
    -- Stationary point found.
 Normal termination of Gaussian 16 at Tue May 23 20:16:21 2023.

 ----------------------------------------------------------------------
 #N Geom=AllCheck Guess=TCheck SCRF=Check GenChk RB3LYP/6-31G(2df,p) Fr
 eq
 ----------------------------------------------------------------------

 Structure from the checkpoint file:  "CNCCCqOrCC1CC1qCNrCNC.chk"
 -------------------
 Title Card Required
 -------------------
 Charge =  0 Multiplicity = 1

                         Standard orientation:
 ---------------------------------------------------------------------
 Center     Atomic      Atomic             Coordinates (Angstroms)
 Number     Number       Type             X           Y           Z
 ---------------------------------------------------------------------
      1          6           0       -5.721818   -0.798137    0.705372
      2          7           0       -4.770018    0.087192    0.049559
      3          6           0       -3.384295   -0.332488    0.219650
      4          6           0       -2.423977    0.636167   -0.469304
      5          6           0       -0.961654    0.184173   -0.418998
      6          8           0       -0.796765   -1.102449   -1.032489
      7          6           0       -0.008748    1.235416   -1.013102
      8          6           0        1.406242    0.716973   -1.158556
      9          6           0        2.630800    1.598248   -1.096070
     10          6           0        2.391228    0.568952   -0.013317
     11          6           0        2.080161    1.011494    1.417536
     12          7           0        1.593935    2.393426    1.524710
     13          6           0        3.202230   -0.714485   -0.059468
     14          7           0        2.418279   -1.821019    0.479133
     15          6           0        3.101317   -3.102514    0.415729
     16          1           0       -6.735414   -0.402020    0.590769
     17          1           0       -5.532224   -0.952327    1.783763
     18          1           0       -5.693170   -1.783340    0.225618
     19          1           0       -4.880770    1.027581    0.416615
     20          1           0       -3.269671   -1.326581   -0.227721
     21          1           0       -3.096045   -0.440704    1.284544
     22          1           0       -2.499253    1.629928   -0.006306
     23          1           0       -2.733639    0.760445   -1.516356
     24          1           0       -0.678177    0.006581    0.625054
     25          1           0       -1.016808   -1.010387   -1.966887
     26          1           0       -0.023743    2.120508   -0.371979
     27          1           0       -0.385193    1.540217   -2.002010
     28          1           0        1.478633   -0.093450   -1.879430
     29          1           0        2.469089    2.639282   -0.839166
     30          1           0        3.432546    1.432426   -1.809129
     31          1           0        2.989778    0.833513    2.016368
     32          1           0        1.317839    0.349673    1.839681
     33          1           0        2.368495    3.040012    1.409256
     34          1           0        1.236857    2.550485    2.461847
     35          1           0        4.113684   -0.615260    0.548523
     36          1           0        3.542411   -0.895778   -1.098187
     37          1           0        1.535808   -1.870199   -0.023646
     38          1           0        3.980686   -3.086303    1.071024
     39          1           0        3.452297   -3.380612   -0.595971
     40          1           0        2.435809   -3.894091    0.772974
 ---------------------------------------------------------------------

 SCF Done:  E(RB3LYP) =  -673.698506323     A.U. after    1 cycles

 The electronic state is 1-A.
 Alpha  occ. eigenvalues --  -19.13457 -14.30935 -14.30518 -14.29703 -10.22330
 Alpha  occ. eigenvalues --  -10.19913 -10.19368 -10.19332 -10.19307 -10.18853
 Alpha  occ. eigenvalues --  -10.18374 -10.17672 -10.17384 -10.17250 -10.16815
 Alpha  occ. eigenvalues --   -1.01268  -0.89550  -0.89198  -0.87669  -0.84011
 Alpha  occ. eigenvalues --   -0.77279  -0.72588  -0.69929  -0.66216  -0.65661
 Alpha  occ. eigenvalues --   -0.61792  -0.61030  -0.58947  -0.57056  -0.52663
 Alpha  occ. eigenvalues --   -0.49529  -0.48701  -0.48049  -0.46651  -0.45764
 Alpha  occ. eigenvalues --   -0.45382  -0.44276  -0.43679  -0.42574  -0.41924
 Alpha  occ. eigenvalues --   -0.41609  -0.40457  -0.39397  -0.38993  -0.38316
 Alpha  occ. eigenvalues --   -0.36894  -0.36547  -0.35672  -0.35334  -0.34673
 Alpha  occ. eigenvalues --   -0.33358  -0.33097  -0.32202  -0.31413  -0.27777
 Alpha  occ. eigenvalues --   -0.26283  -0.25677  -0.23280  -0.21432  -0.20796
 Alpha virt. eigenvalues --    0.07032   0.07903   0.09207   0.09833   0.10427
 Alpha virt. eigenvalues --    0.11895   0.12521   0.13146   0.13529   0.14152
 Alpha virt. eigenvalues --    0.14816   0.15397   0.15746   0.16277   0.16887

 Mulliken charges:
               1
     1  C   -0.307447
     2  N   -0.280813
     3  C   -0.123524
     4  C   -0.215143
     5  C    0.125087
     6  O   -0.430945
     7  C   -0.277365
     8  C    0.000050
     9  C   -0.390865
    10  C    0.338231
    11  C   -0.232717
    12  N   -0.515226
    13  C   -0.211105
    14  N   -0.288349
    15  C   -0.303605
    16  H    0.113261
    17  H    0.089861
    18  H    0.120488
    19  H    0.210207
    20  H    0.111259
    21  H    0.069276
    22  H    0.092116
    23  H    0.094377
    24  H    0.092634
    25  H    0.277066
    26  H    0.128999
    27  H    0.075894
    28  H    0.072068
    29  H    0.108088
    30  H    0.099623
    31  H    0.080861
    32  H    0.120337
    33  H    0.227669
    34  H    0.227306
    35  H    0.088110
    36  H    0.065377
    37  H    0.233557
    38  H    0.113949
    39  H    0.086162
    40  H    0.115192
 Sum of Mulliken charges =  -0.00000

 Dipole moment (field-independent basis, Debye):
    X=              0.2751    Y=              1.3535    Z=              0.4770  Tot=              1.4612
 Quadrupole moment (field-independent basis, Debye-Ang):
   XX=            -93.4984   YY=            -93.2007   ZZ=            -90.1779
   XY=              1.0893   XZ=             -2.0875   YZ=              5.6672

  Exact polarizability: 167.629   0.017 144.446  -2.235  -1.488 129.720
 Approx polarizability: 203.174   0.465 202.409   0.764  -1.530 199.558

                      1                      2                      3
                      A                      A                      A
 Frequencies --     34.7889                36.6419                37.6168
 Red. masses --      3.5085                 3.1597                 3.9289
 Frc consts  --      0.0025                 0.0025                 0.0033
 IR Inten    --      0.2318                 1.5805                 0.3437

                      4                      5                      6
                      A                      A                      A
 Frequencies --     71.3399                75.8743                94.0439
 Red. masses --      2.3489                 3.0657                 2.8286
 Frc consts  --      0.0070                 0.0104                 0.0147
 IR Inten    --      0.2378                 0.2612                 2.3047

                      7                      8                      9
                      A                      A                      A
 Frequencies --    103.8098               118.3739               147.8731
 Red. masses --      2.6488                 2.6097                 2.4457
 Frc consts  --      0.0168                 0.0215                 0.0315
 IR Inten    --      1.3566                 2.5780                 1.4700

                     10                     11                     12
                      A                      A                      A
 Frequencies --    151.9297               180.5562               220.5033
 Red. masses --      1.7934                 3.4256                 2.5264
 Frc consts  --      0.0244                 0.0658                 0.0724
 IR Inten    --      0.5201                 0.8633                 3.5463

                     13                     14                     15
                      A                      A                      A
 Frequencies --    237.7611               243.3492               250.6294
 Red. masses --      2.1242                 1.7781                 1.1992
 Frc consts  --      0.0708                 0.0620                 0.0444
 IR Inten    --      1.8572                 1.9452                 1.9051

                     16                     17                     18
                      A                      A                      A
 Frequencies --    272.4813               282.0526               301.6575
 Red. masses --      1.6077                 1.5320                 2.6361
 Frc consts  --      0.0703                 0.0718                 0.1413
 IR Inten    --      9.5410                11.9961                11.8992

                     19                     20                     21
                      A                      A                      A
 Frequencies --    315.3022               333.5255               359.3062
 Red. masses --      1.7296                 2.0058                 3.3230
 Frc consts  --      0.1013                 0.1315                 0.2528
 IR Inten    --     21.7252                68.8485                32.8658

                     22                     23                     24
                      A                      A                      A
 Frequencies --    373.7367               418.2199               445.4081
 Red. masses --      2.2339                 2.4899                 2.3431
 Frc consts  --      0.1838                 0.2566                 0.2739
 IR Inten    --      1.2008                 0.8472                 2.2832

                     25                     26                     27
                      A                      A                      A
 Frequencies --    474.3619               504.6217               553.2643
 Red. masses --      2.5623                 2.2061                 3.3596
 Frc consts  --      0.3397                 0.3310                 0.6059
 IR Inten    --     10.5057                 2.0166                10.0837

                     28                     29                     30
                      A                      A                      A
 Frequencies --    623.6295               701.6431               779.5776
 Red. masses --      3.3416                 3.0551                 1.2725
 Frc consts  --      0.7657                 0.8862                 0.4557
 IR Inten    --     22.8439                 8.8584                51.2084

                     31                     32                     33
                      A                      A                      A
 Frequencies --    795.0967               798.1262               830.1015
 Red. masses --      1.6670                 1.5378                 1.3260
 Frc consts  --      0.6209                 0.5772                 0.5383
 IR Inten    --     20.7546                 8.2712                90.2623

                     34                     35                     36
                      A                      A                      A
 Frequencies --    845.9909               869.3742               899.7240
 Red. masses --      1.9888                 1.3592                 2.1268
 Frc consts  --      0.8387                 0.6053                 1.0144
 IR Inten    --      6.1360                64.7165                12.4929

                     37                     38                     39
                      A                      A                      A
 Frequencies --    927.8645               948.7060               966.9847
 Red. masses --      1.4908                 1.8088                 2.1664
 Frc consts  --      0.7562                 0.9592                 1.1935
 IR Inten    --     16.4900                 5.1908                 8.7762

                     40                     41                     42
                      A                      A                      A
 Frequencies --    985.3526               994.6415              1004.8135
 Red. masses --      1.8622                 1.7796                 1.7707
 Frc consts  --      1.0653                 1.0373                 1.0533
 IR Inten    --      4.4052                18.9896                 8.4519

                     43                     44                     45
                      A                      A                      A
 Frequencies --   1020.1039              1052.1367              1056.4429
 Red. masses --      1.9509                 2.4803                 1.7928
 Frc consts  --      1.1961                 1.6177                 1.1789
 IR Inten    --      3.9877                 5.1289                15.7856

                     46                     47                     48
                      A                      A                      A
 Frequencies --   1070.7845              1080.1833              1086.1358
 Red. masses --      1.3695                 1.5968                 2.3886
 Frc consts  --      0.9251                 1.0977                 1.6602
 IR Inten    --      9.2703                 5.6247                15.5222

                     49                     50                     51
                      A                      A                      A
 Frequencies --   1107.9359              1110.9669              1136.6466
 Red. masses --      1.8425                 2.8934                 1.4201
 Frc consts  --      1.3325                 2.1040                 1.0810
 IR Inten    --      2.3175                13.5239                10.6436

                     52                     53                     54
                      A                      A                      A
 Frequencies --   1139.8283              1146.3702              1152.8075
 Red. masses --      1.5984                 1.6082                 2.7710
 Frc consts  --      1.2235                 1.2452                 2.1697
 IR Inten    --      6.1270                47.5895                61.1585

                     55                     56                     57
                      A                      A                      A
 Frequencies --   1169.1406              1183.9662              1192.5605
 Red. masses --      1.8871                 1.6115                 1.8698
 Frc consts  --      1.5198                 1.3309                 1.5668
 IR Inten    --     24.0452                20.2796                 3.1539

                     58                     59                     60
                      A                      A                      A
 Frequencies --   1211.4335              1226.7163              1236.7684
 Red. masses --      1.5494                 1.5938                 1.5150
 Frc consts  --      1.3397                 1.4131                 1.3654
 IR Inten    --      0.8176                 2.3887                 2.8047

                     61                     62                     63
                      A                      A                      A
 Frequencies --   1255.1317              1270.3245              1288.9515
 Red. masses --      1.7209                 1.4896                 1.3184
 Frc consts  --      1.5973                 1.4163                 1.2906
 IR Inten    --      0.4623                10.1636                 0.1629

                     64                     65                     66
                      A                      A                      A
 Frequencies --   1303.2419              1332.8555              1334.0283
 Red. masses --      1.2072                 1.3296                 1.3401
 Frc consts  --      1.2080                 1.3917                 1.4051
 IR Inten    --      6.5300                 3.5842                 0.5755

                     67                     68                     69
                      A                      A                      A
 Frequencies --   1349.8591              1358.9371              1379.5648
 Red. masses --      1.3448                 1.4773                 1.4041
 Frc consts  --      1.4437                 1.6074                 1.5744
 IR Inten    --      3.1307                 4.0226                 1.2296

                     70                     71                     72
                      A                      A                      A
 Frequencies --   1387.8939              1406.1312              1421.4712
 Red. masses --      1.4218                 1.5346                 1.3464
 Frc consts  --      1.6137                 1.7877                 1.6029
 IR Inten    --     16.3709                19.8653                24.2968

                     73                     74                     75
                      A                      A                      A
 Frequencies --   1422.3371              1439.4680              1458.7363
 Red. masses --      1.3539                 1.4083                 1.1808
 Frc consts  --      1.6138                 1.7193                 1.4804
 IR Inten    --     14.5795                 3.8030                 2.8842

                     76                     77                     78
                      A                      A                      A
 Frequencies --   1459.4303              1472.9634              1482.7920
 Red. masses --      1.1813                 1.1003                 1.1653
 Frc consts  --      1.4825                 1.4065                 1.5095
 IR Inten    --      1.3520                 1.8371                 3.0221

                     79                     80                     81
                      A                      A                      A
 Frequencies --   1484.7722              1486.7537              1491.2101
 Red. masses --      1.1125                 1.0727                 1.2091
 Frc consts  --      1.4450                 1.3971                 1.5841
 IR Inten    --     16.5055                12.0935                 4.1082

                     82                     83                     84
                      A                      A                      A
 Frequencies --   1492.1253              1501.2812              1507.5347
 Red. masses --      1.2549                 1.1130                 1.1522
 Frc consts  --      1.6462                 1.4780                 1.5428
 IR Inten    --      1.7399                 2.7848                 1.0704

                     85                     86                     87
                      A                      A                      A
 Frequencies --   1516.8779              1517.1969              1524.8854
 Red. masses --      1.0956                 1.0648                 1.1062
 Frc consts  --      1.4853                 1.4441                 1.5155
 IR Inten    --     12.1839                10.7861                15.8699

                     88                     89                     90
                      A                      A                      A
 Frequencies --   1525.2146              1657.1788              2899.9026
 Red. masses --      1.0814                 1.0881                 1.0732
 Frc consts  --      1.4822                 1.7607                 5.3174
 IR Inten    --      1.3028                28.2661                51.1706

                     91                     92                     93
                      A                      A                      A
 Frequencies --   2900.5342              2927.5437              2934.9343
 Red. masses --      1.0727                 1.0612                 1.0603
 Frc consts  --      5.3171                 5.3586                 5.3810
 IR Inten    --     69.7019               118.9330               100.8720

                     94                     95                     96
                      A                      A                      A
 Frequencies --   2947.1387              2986.3554              3004.3815
 Red. masses --      1.0744                 1.0705                 1.0854
 Frc consts  --      5.4980                 5.6248                 5.7722
 IR Inten    --     74.3864                37.7678                60.1578

                     97                     98                     99
                      A                      A                      A
 Frequencies --   3007.2321              3035.8775              3044.6691
 Red. masses --      1.0592                 1.0924                 1.0729
 Frc consts  --      5.6438                 5.9319                 5.8599
 IR Inten    --     24.7068                 2.4958                47.4967

                    100                    101                    102
                      A                      A                      A
 Frequencies --   3051.0623              3052.2732              3063.1157
 Red. masses --      1.0743                 1.0836                 1.0923
 Frc consts  --      5.8921                 5.9478                 6.0383
 IR Inten    --     49.2276                20.3758                51.6164

                    103                    104                    105
                      A                      A                      A
 Frequencies --   3074.0750              3097.8696              3098.6106
 Red. masses --      1.0862                 1.0996                 1.0896
 Frc consts  --      6.0475                 6.2174                 6.1640
 IR Inten    --     22.7449                29.8578                 4.0184

                    106                    107                    108
                      A                      A                      A
 Frequencies --   3098.7682              3124.1961              3131.5920
 Red. masses --      1.1011                 1.0558                 1.0861
 Frc consts  --      6.2296                 6.0719                 6.2758
 IR Inten    --     32.6910                20.4537                18.6531

                    109                    110                    111
                      A                      A                      A
 Frequencies --   3211.4181              3494.2910              3499.1900
 Red. masses --      1.1144                 1.0497                 1.0744
 Frc consts  --      6.7715                 7.5512                 7.7506
 IR Inten    --     10.7333                 0.2476                14.4533

                    112                    113                    114
                      A                      A                      A
 Frequencies --   3504.7616              3570.0440              3788.0482
 Red. masses --      1.0735                 1.0921                 1.0658
 Frc consts  --      7.7690                 8.2008                 9.0107
 IR Inten    --      0.5829                 0.4817                13.7856

 - Thermochemistry -
 -------------------
 Temperature   298.150 Kelvin.  Pressure   1.00000 Atm.
 Atom     1 has atomic number  6 and mass  12.00000

 Molecular mass:   215.19976 amu.
 Principal axes and moments of inertia in atomic units:
                           1         2         3
     Eigenvalues --  2196.326397047.893937985.31933
           X            0.99998  -0.00319  -0.00472
           Y            0.00318   0.99999  -0.00218
           Z            0.00473   0.00217   0.99999
 This molecule is an asymmetric top.
 Rotational symmetry number  1.
 Warning -- assumption of classical behavior for rotation
           may cause significant error
 Rotational temperatures (Kelvin)      0.03944     0.01229     0.01085
 Rotational constants (GHZ):           0.82171     0.25607     0.22601
 Zero-point vibrational energy     957422.9 (Joules/Mol)
                                  228.82958 (Kcal/Mol)
 Warning -- explicit consideration of  27 degrees of freedom as
           vibrations may cause significant error
 Vibrational temperatures:     50.05    52.72    54.12   102.64   109.17
          (Kelvin)            135.31   149.36   170.31   212.76   218.59
                              259.78   317.26   342.09   350.13   360.60
                              392.04   405.81   434.02   453.65   479.87
                              516.96   537.72   601.73   640.84   682.50
                              726.04   796.02   897.26  1009.51  1121.64
                             1143.97  1148.33  1194.33  1217.19  1250.84
                             1294.50  1334.99  1364.98  1391.28  1417.70
                             1431.07  1445.70  1467.70  1513.79  1519.99
                             1540.62  1554.14  1562.71  1594.07  1598.43
                             1635.38  1639.96  1649.37  1658.63  1682.13
                             1703.46  1715.83  1742.98  1764.97  1779.43
                             1805.85  1827.71  1854.51  1875.07  1917.68
                             1919.37  1942.15  1955.21  1984.89  1996.87
                             2023.11  2045.18  2046.43  2071.07  2098.80
                             2099.79  2119.27  2133.41  2136.26  2139.11
                             2145.52  2146.84  2160.01  2169.01  2182.45
                             2182.91  2193.97  2194.44  2384.31  4172.31
                             4173.22  4212.08  4222.72  4240.28  4296.70
                             4322.63  4326.74  4367.95  4380.60  4389.80
                             4391.54  4407.14  4422.91  4457.14  4458.21
                             4458.44  4495.02  4505.66  4620.51  5027.51
                             5034.55  5042.57  5136.50  5450.16

 Zero-point correction=                           0.364663 (Hartree/Particle)
 Thermal correction to Energy=                    0.383335
 Thermal correction to Enthalpy=                  0.384279
 Thermal correction to Gibbs Free Energy=         0.316943
 Sum of electronic and zero-point Energies=           -673.333843
 Sum of electronic and thermal Energies=              -673.315172
 Sum of electronic and thermal Enthalpies=            -673.314227
 Sum of electronic and thermal Free Energies=         -673.381563

                     E (Thermal)             CV                S
                      KCal/Mol        Cal/Mol-Kelvin    Cal/Mol-Kelvin
 Total                  240.546             68.402            141.719
 Electronic               0.000              0.000              0.000
 Translational            0.889              2.981             42.002
 Rotational               0.889              2.981             33.180
 Vibrational            238.769             62.440             66.537
 Vibration     1          0.594              1.983              5.536
 Vibration     2          0.594              1.982              5.433
 Vibration     3          0.594              1.982              5.381
 Vibration     4          0.598              1.968              4.116
 Vibration     5          0.599              1.965              3.995
 Vibration     6          0.603              1.953              3.574
 Vibration     7          0.605              1.946              3.381
 Vibration     8          0.609              1.934              3.127
 Vibration     9          0.617              1.905              2.699
 Vibration    10          0.619              1.901              2.648
 Vibration    11          0.630              1.866              2.323
 Vibration    12          0.647              1.810              1.955
 Vibration    13          0.656              1.783              1.820
 Vibration    14          0.659              1.774              1.778
 Vibration    15          0.663              1.762              1.726
 Vibration    16          0.675              1.724              1.580
 Vibration    17          0.681              1.707              1.521
 Vibration    18          0.694              1.671              1.408
 Vibration    19          0.703              1.644              1.334
 Vibration    20          0.715              1.609              1.243
 Vibration    21          0.734              1.556              1.125
 Vibration    22          0.745              1.526              1.064
 Vibration    23          0.781              1.431              0.898
 Vibration    24          0.805              1.371              0.810
 Vibration    25          0.831              1.307              0.725
 Vibration    26          0.860              1.240              0.647
 Vibration    27          0.909              1.133              0.537

                           ! Non-Optimized Parameters !
 Normal termination of Gaussian 16 at Tue May 23 23:28:47 2023.
