 Gaussian 16, Revision A.03,
 Gaussian 16:  ES64L-G16RevA.03 25-Dec-2016

 -----------------------------
 # opt freq b3lyp/6-31g(2df,p)
 -----------------------------

 -------------------
 Title Card Required
 -------------------
 Symbolic Z-matrix:
 Charge =  0 Multiplicity = 1

 SCF Done:  E(RB3LYP) =  -649.543202105     A.U. after   14 cycles
 SCF Done:  E(RB3LYP) =  -649.550065806     A.U. after   13 cycles
 SCF Done:  E(RB3LYP) =  -649.552398057     A.U. after   13 cycles
 SCF Done:  E(RB3LYP) =  -649.553283760     A.U. after   13 cycles
 SCF Done:  E(RB3LYP) =  -649.552767770     A.U. after   13 cycles
 SCF Done:  E(RB3LYP) =  -649.553860246     A.U. after   12 cycles
 SCF Done:  E(RB3LYP) =  -649.554271873     A.U. after   12 cycles
 SCF Done:  E(RB3LYP) =  -649.555064875     A.U. after   14 cycles
 SCF Done:  E(RB3LYP) =  -649.555381360     A.U. after   13 cycles
 SCF Done:  E(RB3LYP) =  -649.554471134     A.U. after   14 cycles
 SCF Done:  E(RB3LYP) =  -649.559862783     A.U. after   12 cycles
 SCF Done:  E(RB3LYP) =  -649.559910830     A.U. after   11 cycles
 SCF Done:  E(RB3LYP) =  -649.560018595     A.U. after   12 cycles
 SCF Done:  E(RB3LYP) =  -649.560130140     A.U. after   12 cycles
 SCF Done:  E(RB3LYP) =  -649.560139886     A.U. after   10 cycles
 SCF Done:  E(RB3LYP) =  -649.560141689     A.U. after   10 cycles
 SCF Done:  E(RB3LYP) =  -649.560141910     A.U. after    8 cycles
 SCF Done:  E(RB3LYP) =  -649.560141953     A.U. after    7 cycles
 SCF Done:  E(RB3LYP) =  -649.560141962     A.U. after    6 cycles
 Optimization completed.
    -- Stationary point found.
 Normal termination of Gaussian 16 at Mon May 22 03:37:49 2023.

 ----------------------------------------------------------------------
 #N Geom=AllCheck Guess=TCheck SCRF=Check GenChk RB3LYP/6-31G(2df,p) Fr
 eq
 ----------------------------------------------------------------------

 Structure from the checkpoint file:  "CNdCCqCNCCCdOrOOC.chk"
 -------------------
 Title Card Required
 -------------------
 Charge =  0 Multiplicity = 1

                         Standard orientation:
 ---------------------------------------------------------------------
 Center     Atomic      Atomic             Coordinates (Angstroms)
 Number     Number       Type             X           Y           Z
 ---------------------------------------------------------------------
      1          6           0       -1.237233    3.766623    0.235585
      2          7           0       -0.940263    2.349321    0.163449
      3          6           0       -1.841062    1.566930   -0.253497
      4          6           0       -1.619560    0.078717   -0.400536
      5          6           0       -0.391340   -0.473627    0.326442
      6          7           0        0.836881   -0.027043   -0.318558
      7          6           0        2.032698   -0.646602    0.233809
      8          6           0        3.288062   -0.113149   -0.469640
      9          6           0        4.527941   -0.882770   -0.082545
     10          8           0        5.539311   -0.397596    0.354798
     11          8           0       -2.829292   -0.499777    0.080891
     12          8           0       -2.900681   -1.832705   -0.502334
     13          6           0       -3.624762   -2.607577    0.427331
     14          1           0       -1.069296    4.115776    1.260158
     15          1           0       -2.266210    4.016717   -0.063953
     16          1           0       -0.538171    4.315015   -0.405488
     17          1           0       -2.844103    1.911136   -0.548887
     18          1           0       -1.528378   -0.143744   -1.474696
     19          1           0       -0.444991   -1.565795    0.261552
     20          1           0       -0.457068   -0.198774    1.393544
     21          1           0        0.888176    0.981856   -0.202986
     22          1           0        1.960264   -1.731718    0.075345
     23          1           0        2.135512   -0.498986    1.325581
     24          1           0        3.451622    0.947441   -0.255453
     25          1           0        3.140221   -0.227998   -1.552614
     26          1           0        4.445141   -1.985575   -0.236526
     27          1           0       -3.704541   -3.595131   -0.036795
     28          1           0       -4.629529   -2.199601    0.592466
     29          1           0       -3.098132   -2.687198    1.385995
 ---------------------------------------------------------------------

 SCF Done:  E(RB3LYP) =  -649.560141962     A.U. after    1 cycles

 The electronic state is 1-A.
 Alpha  occ. eigenvalues --  -19.19722 -19.19630 -19.13545 -14.33957 -14.30960
 Alpha  occ. eigenvalues --  -10.26789 -10.24275 -10.23594 -10.23404 -10.21443
 Alpha  occ. eigenvalues --  -10.21379 -10.20336 -10.18969  -1.12100  -1.04211
 Alpha  occ. eigenvalues --   -0.94784  -0.92362  -0.90208  -0.77987  -0.74442
 Alpha  occ. eigenvalues --   -0.69733  -0.67653  -0.63842  -0.61778  -0.57380
 Alpha  occ. eigenvalues --   -0.55375  -0.52343  -0.51115  -0.48538  -0.48227
 Alpha  occ. eigenvalues --   -0.46785  -0.46248  -0.45044  -0.44512  -0.44115
 Alpha  occ. eigenvalues --   -0.42459  -0.41465  -0.41131  -0.39625  -0.39385
 Alpha  occ. eigenvalues --   -0.38446  -0.36521  -0.35459  -0.34697  -0.34023
 Alpha  occ. eigenvalues --   -0.32539  -0.30176  -0.26571  -0.24848  -0.24232
 Alpha  occ. eigenvalues --   -0.22448
 Alpha virt. eigenvalues --   -0.02252  -0.01762   0.03736   0.09188   0.10305
 Alpha virt. eigenvalues --    0.10565   0.11406   0.11971   0.13080   0.13446
 Alpha virt. eigenvalues --    0.14386   0.15164   0.15574   0.15976   0.16278

 Mulliken charges:
               1
     1  C   -0.321141
     2  N   -0.148434
     3  C    0.013187
     4  C    0.090737
     5  C   -0.157794
     6  N   -0.309015
     7  C   -0.127030
     8  C   -0.283712
     9  C    0.158348
    10  O   -0.237283
    11  O   -0.215810
    12  O   -0.165870
    13  C   -0.204576
    14  H    0.137443
    15  H    0.107858
    16  H    0.136703
    17  H    0.097694
    18  H    0.111802
    19  H    0.109464
    20  H    0.087044
    21  H    0.229677
    22  H    0.101938
    23  H    0.090687
    24  H    0.119057
    25  H    0.129315
    26  H    0.069104
    27  H    0.136352
    28  H    0.124680
    29  H    0.119577
 Sum of Mulliken charges =  -0.00000

 Dipole moment (field-independent basis, Debye):
    X=             -3.6323    Y=              0.0386    Z=             -0.0906  Tot=              3.6336
 Quadrupole moment (field-independent basis, Debye-Ang):
   XX=            -97.4353   YY=            -65.8709   ZZ=            -78.7016
   XY=             -0.5615   XZ=             -5.5538   YZ=             -1.8379

  Exact polarizability: 136.867   9.503 135.611   4.124   2.603  85.217
 Approx polarizability: 172.265  18.303 180.135  11.059  10.820 136.484

                      1                      2                      3
                      A                      A                      A
 Frequencies --     26.6880                33.1540                49.4108
 Red. masses --      3.0359                 5.3043                 3.8552
 Frc consts  --      0.0013                 0.0034                 0.0055
 IR Inten    --      2.4949                 1.0274                 5.2694

                      4                      5                      6
                      A                      A                      A
 Frequencies --     61.9108                66.7549                92.5042
 Red. masses --      2.6784                 2.7702                 2.4920
 Frc consts  --      0.0060                 0.0073                 0.0126
 IR Inten    --      0.7892                 0.1139                 9.7356

                      7                      8                      9
                      A                      A                      A
 Frequencies --     96.7292               113.3752               138.9941
 Red. masses --      3.5279                 2.7289                 2.3861
 Frc consts  --      0.0194                 0.0207                 0.0272
 IR Inten    --      0.2997                 3.7066                 1.5876

                     10                     11                     12
                      A                      A                      A
 Frequencies --    174.6661               208.9761               214.4130
 Red. masses --      2.4475                 2.0288                 1.7775
 Frc consts  --      0.0440                 0.0522                 0.0481
 IR Inten    --      0.9003                 1.5452                 6.8397

                     13                     14                     15
                      A                      A                      A
 Frequencies --    231.9563               239.4896               246.9255
 Red. masses --      1.4319                 2.9029                 3.4705
 Frc consts  --      0.0454                 0.0981                 0.1247
 IR Inten    --      3.1729                 3.7905                 3.3437

                     16                     17                     18
                      A                      A                      A
 Frequencies --    326.1416               359.3792               369.4421
 Red. masses --      3.8199                 3.8090                 4.9118
 Frc consts  --      0.2394                 0.2898                 0.3950
 IR Inten    --      1.2909                 5.2576                 1.3562

                     19                     20                     21
                      A                      A                      A
 Frequencies --    433.9657               468.2419               532.2995
 Red. masses --      3.5385                 3.5464                 2.8027
 Frc consts  --      0.3926                 0.4581                 0.4679
 IR Inten    --      1.3176                18.4024                 4.3667

                     22                     23                     24
                      A                      A                      A
 Frequencies --    560.7975               662.1411               784.1751
 Red. masses --      3.2757                 2.7019                 1.3058
 Frc consts  --      0.6070                 0.6980                 0.4731
 IR Inten    --      2.9560                 0.6168                 1.5249

                     25                     26                     27
                      A                      A                      A
 Frequencies --    855.1450               864.9501               894.8606
 Red. masses --      1.2856                 1.4234                 4.4086
 Frc consts  --      0.5539                 0.6274                 2.0800
 IR Inten    --     52.9916                 6.1069                 7.9191

                     28                     29                     30
                      A                      A                      A
 Frequencies --    901.6665               935.9454              1002.0118
 Red. masses --      2.3279                 1.4817                 3.3641
 Frc consts  --      1.1151                 0.7647                 1.9900
 IR Inten    --      6.7419                 5.4774                37.5388

                     31                     32                     33
                      A                      A                      A
 Frequencies --   1018.3453              1041.3257              1056.3125
 Red. masses --      3.1025                 3.1532                 3.8567
 Frc consts  --      1.8957                 2.0145                 2.5354
 IR Inten    --      7.8266                 3.1991                91.9516

                     34                     35                     36
                      A                      A                      A
 Frequencies --   1069.5188              1077.1834              1109.0782
 Red. masses --      3.5371                 2.7047                 2.1629
 Frc consts  --      2.3838                 1.8490                 1.5675
 IR Inten    --      1.9703                50.1948                 4.9967

                     37                     38                     39
                      A                      A                      A
 Frequencies --   1134.4261              1143.8341              1151.4196
 Red. masses --      2.0494                 1.4172                 1.8786
 Frc consts  --      1.5539                 1.0925                 1.4674
 IR Inten    --     25.7815                 0.1231                41.8002

                     40                     41                     42
                      A                      A                      A
 Frequencies --   1161.1661              1174.5530              1180.6263
 Red. masses --      2.9829                 1.7497                 1.2802
 Frc consts  --      2.3696                 1.4222                 1.0514
 IR Inten    --     23.8030                 3.1314                 0.8847

                     43                     44                     45
                      A                      A                      A
 Frequencies --   1204.4034              1227.2606              1251.5759
 Red. masses --      1.3555                 1.7478                 1.3510
 Frc consts  --      1.1585                 1.5510                 1.2469
 IR Inten    --      7.7515                 1.3473                14.5400

                     46                     47                     48
                      A                      A                      A
 Frequencies --   1291.1461              1305.8109              1320.3093
 Red. masses --      1.3477                 1.2773                 1.1649
 Frc consts  --      1.3237                 1.2833                 1.1965
 IR Inten    --     12.4738                 7.7439                 5.7088

                     49                     50                     51
                      A                      A                      A
 Frequencies --   1345.1663              1374.8029              1387.6107
 Red. masses --      1.2946                 1.6820                 1.3801
 Frc consts  --      1.3802                 1.8731                 1.5656
 IR Inten    --     23.4058                 8.4891                 2.1401

                     52                     53                     54
                      A                      A                      A
 Frequencies --   1422.2454              1430.7462              1440.0769
 Red. masses --      1.4714                 1.1970                 1.1743
 Frc consts  --      1.7536                 1.4437                 1.4349
 IR Inten    --     27.5941                 9.5467                 6.7615

                     55                     56                     57
                      A                      A                      A
 Frequencies --   1449.2462              1458.8110              1466.2675
 Red. masses --      1.1426                 1.0502                 1.0898
 Frc consts  --      1.4140                 1.3168                 1.3805
 IR Inten    --      4.6662                 4.6750                 4.1476

                     58                     59                     60
                      A                      A                      A
 Frequencies --   1478.4333              1494.0081              1496.0334
 Red. masses --      1.0429                 1.1279                 1.0811
 Frc consts  --      1.3431                 1.4833                 1.4256
 IR Inten    --      4.3519                10.3761                11.2021

                     61                     62                     63
                      A                      A                      A
 Frequencies --   1509.9308              1516.2408              1522.4121
 Red. masses --      1.1234                 1.0608                 1.0973
 Frc consts  --      1.5090                 1.4369                 1.4984
 IR Inten    --     73.0576                12.1782                 4.2118

                     64                     65                     66
                      A                      A                      A
 Frequencies --   1765.4868              1836.2616              2844.7629
 Red. masses --      8.6900                10.1267                 1.0812
 Frc consts  --     15.9587                20.1181                 5.1551
 IR Inten    --     40.3402               193.9687               110.7309

                     67                     68                     69
                      A                      A                      A
 Frequencies --   2922.2225              2953.6960              2985.9579
 Red. masses --      1.0720                 1.0700                 1.0443
 Frc consts  --      5.3937                 5.5001                 5.4857
 IR Inten    --     60.7761                52.0168                54.7955

                     70                     71                     72
                      A                      A                      A
 Frequencies --   2998.1642              3005.7709              3009.3875
 Red. masses --      1.0803                 1.0838                 1.0314
 Frc consts  --      5.7215                 5.7692                 5.5035
 IR Inten    --     29.6360                60.4137                46.7212

                     73                     74                     75
                      A                      A                      A
 Frequencies --   3019.1108              3022.5100              3068.0126
 Red. masses --      1.0840                 1.0640                 1.0897
 Frc consts  --      5.8213                 5.7270                 6.0432
 IR Inten    --     26.9304                10.5397                20.6744

                     76                     77                     78
                      A                      A                      A
 Frequencies --   3073.3827              3075.0546              3089.7798
 Red. masses --      1.0908                 1.1061                 1.1008
 Frc consts  --      6.0706                 6.1623                 6.1920
 IR Inten    --     22.0850                41.4551                14.6200

                     79                     80                     81
                      A                      A                      A
 Frequencies --   3095.5987              3117.3143              3501.5565
 Red. masses --      1.0993                 1.1015                 1.0732
 Frc consts  --      6.2065                 6.3067                 7.7526
 IR Inten    --     18.5974                13.2277                31.9110

 - Thermochemistry -
 -------------------
 Temperature   298.150 Kelvin.  Pressure   1.00000 Atm.
 Atom     1 has atomic number  6 and mass  12.00000

 Molecular mass:   188.11609 amu.
 Principal axes and moments of inertia in atomic units:
                           1         2         3
     Eigenvalues --  1999.252875698.349587475.97970
           X            0.99998   0.00157  -0.00574
           Y           -0.00162   0.99997  -0.00726
           Z            0.00572   0.00727   0.99996
 This molecule is an asymmetric top.
 Rotational symmetry number  1.
 Warning -- assumption of classical behavior for rotation
           may cause significant error
 Rotational temperatures (Kelvin)      0.04332     0.01520     0.01159
 Rotational constants (GHZ):           0.90271     0.31671     0.24141
 Zero-point vibrational energy     640250.2 (Joules/Mol)
                                  153.02346 (Kcal/Mol)
 Warning -- explicit consideration of  22 degrees of freedom as
           vibrations may cause significant error
 Vibrational temperatures:     38.40    47.70    71.09    89.08    96.05
          (Kelvin)            133.09   139.17   163.12   199.98   251.31
                              300.67   308.49   333.73   344.57   355.27
                              469.25   517.07   531.54   624.38   673.70
                              765.86   806.86   952.67  1128.25  1230.36
                             1244.47  1287.50  1297.30  1346.62  1441.67
                             1465.17  1498.24  1519.80  1538.80  1549.83
                             1595.72  1632.19  1645.72  1656.64  1670.66
                             1689.92  1698.66  1732.87  1765.75  1800.74
                             1857.67  1878.77  1899.63  1935.39  1978.03
                             1996.46  2046.29  2058.52  2071.95  2085.14
                             2098.90  2109.63  2127.14  2149.54  2152.46
                             2172.45  2181.53  2190.41  2540.14  2641.97
                             4092.98  4204.43  4249.71  4296.13  4313.69
                             4324.63  4329.84  4343.83  4348.72  4414.19
                             4421.91  4424.32  4445.50  4453.88  4485.12
                             5037.96

 Zero-point correction=                           0.243858 (Hartree/Particle)
 Thermal correction to Energy=                    0.259933
 Thermal correction to Enthalpy=                  0.260877
 Thermal correction to Gibbs Free Energy=         0.197525
 Sum of electronic and zero-point Energies=           -649.316284
 Sum of electronic and thermal Energies=              -649.300209
 Sum of electronic and thermal Enthalpies=            -649.299265
 Sum of electronic and thermal Free Energies=         -649.362617

                     E (Thermal)             CV                S
                      KCal/Mol        Cal/Mol-Kelvin    Cal/Mol-Kelvin
 Total                  163.110             54.415            133.336
 Electronic               0.000              0.000              0.000
 Translational            0.889              2.981             41.602
 Rotational               0.889              2.981             32.810
 Vibrational            161.333             48.454             58.925
 Vibration     1          0.593              1.984              6.062
 Vibration     2          0.594              1.983              5.631
 Vibration     3          0.595              1.978              4.841
 Vibration     4          0.597              1.972              4.395
 Vibration     5          0.598              1.970              4.247
 Vibration     6          0.602              1.955              3.606
 Vibration     7          0.603              1.952              3.519
 Vibration     8          0.607              1.938              3.210
 Vibration     9          0.615              1.914              2.818
 Vibration    10          0.627              1.874              2.385
 Vibration    11          0.642              1.827              2.053
 Vibration    12          0.644              1.819              2.006
 Vibration    13          0.653              1.792              1.864
 Vibration    14          0.657              1.780              1.807
 Vibration    15          0.661              1.768              1.752
 Vibration    16          0.710              1.623              1.279
 Vibration    17          0.734              1.556              1.125
 Vibration    18          0.742              1.535              1.082
 Vibration    19          0.795              1.396              0.846
 Vibration    20          0.825              1.321              0.742
 Vibration    21          0.887              1.179              0.582
 Vibration    22          0.916              1.116              0.522

 Optimization completed.
    -- Stationary point found.
 Normal termination of Gaussian 16 at Mon May 22 04:47:21 2023.
