 Gaussian 16, Revision A.03,
 Gaussian 16:  ES64L-G16RevA.03 25-Dec-2016

 -----------------------------
 # opt freq b3lyp/6-31g(2df,p)
 -----------------------------

 -------------------
 Title Card Required
 -------------------
 Symbolic Z-matrix:
 Charge =  0 Multiplicity = 1

 SCF Done:  E(RB3LYP) =  -592.637479642     A.U. after   15 cycles
 SCF Done:  E(RB3LYP) =  -592.643714726     A.U. after   12 cycles
 SCF Done:  E(RB3LYP) =  -592.644875544     A.U. after   12 cycles
 SCF Done:  E(RB3LYP) =  -592.646165242     A.U. after   13 cycles
 SCF Done:  E(RB3LYP) =  -592.648128363     A.U. after   12 cycles
 SCF Done:  E(RB3LYP) =  -592.651495259     A.U. after   14 cycles
 SCF Done:  E(RB3LYP) =  -592.653478673     A.U. after   12 cycles
 SCF Done:  E(RB3LYP) =  -592.656135369     A.U. after   12 cycles
 SCF Done:  E(RB3LYP) =  -592.657782910     A.U. after   12 cycles
 SCF Done:  E(RB3LYP) =  -592.658316814     A.U. after   12 cycles
 SCF Done:  E(RB3LYP) =  -592.658909748     A.U. after   11 cycles
 SCF Done:  E(RB3LYP) =  -592.658960140     A.U. after   10 cycles
 SCF Done:  E(RB3LYP) =  -592.659006127     A.U. after   10 cycles
 SCF Done:  E(RB3LYP) =  -592.658983005     A.U. after   10 cycles
 SCF Done:  E(RB3LYP) =  -592.659019438     A.U. after   10 cycles
 SCF Done:  E(RB3LYP) =  -592.659018610     A.U. after    8 cycles
 SCF Done:  E(RB3LYP) =  -592.659020014     A.U. after    8 cycles
 SCF Done:  E(RB3LYP) =  -592.659019986     A.U. after    7 cycles
 SCF Done:  E(RB3LYP) =  -592.659020149     A.U. after    7 cycles
 Optimization completed.
    -- Stationary point found.
 Normal termination of Gaussian 16 at Tue May 23 20:44:33 2023.

 ----------------------------------------------------------------------
 #N Geom=AllCheck Guess=TCheck SCRF=Check GenChk RB3LYP/6-31G(2df,p) Fr
 eq
 ----------------------------------------------------------------------

 Structure from the checkpoint file:  "CNNCqdOrCdCCdCCqCrNC.chk"
 -------------------
 Title Card Required
 -------------------
 Charge =  0 Multiplicity = 1

                         Standard orientation:
 ---------------------------------------------------------------------
 Center     Atomic      Atomic             Coordinates (Angstroms)
 Number     Number       Type             X           Y           Z
 ---------------------------------------------------------------------
      1          6           0       -5.756374   -0.914648    0.086444
      2          7           0       -5.074922    0.342858   -0.250627
      3          7           0       -3.777005    0.098693   -0.741593
      4          6           0       -2.699510    0.162502    0.111652
      5          8           0       -2.851034    0.245791    1.323431
      6          6           0       -1.383268    0.115935   -0.563002
      7          6           0       -0.244538    0.188614    0.144432
      8          6           0        1.087915    0.143791   -0.415536
      9          6           0        2.207066    0.224269    0.318105
     10          6           0        3.606165    0.197881   -0.228188
     11          6           0        4.296361    1.550900    0.019583
     12          7           0        4.340135   -0.885752    0.438807
     13          6           0        5.638419   -1.197793   -0.148830
     14          1           0       -6.722814   -0.662696    0.533145
     15          1           0       -5.189066   -1.540983    0.787195
     16          1           0       -5.940635   -1.483909   -0.829111
     17          1           0       -4.935671    0.863395    0.614703
     18          1           0       -3.647479    0.344219   -1.711873
     19          1           0       -1.360868    0.013626   -1.645747
     20          1           0       -0.338473    0.287076    1.224193
     21          1           0        1.166447    0.041104   -1.497490
     22          1           0        2.133077    0.319072    1.401073
     23          1           0        3.552496    0.039996   -1.322841
     24          1           0        4.373856    1.745191    1.093642
     25          1           0        3.723834    2.358331   -0.444918
     26          1           0        5.304035    1.566848   -0.405041
     27          1           0        3.761894   -1.718979    0.414762
     28          1           0        6.357432   -0.400688    0.063440
     29          1           0        5.614055   -1.343917   -1.244179
     30          1           0        6.025277   -2.113319    0.307529
 ---------------------------------------------------------------------

 SCF Done:  E(RB3LYP) =  -592.659020149     A.U. after    1 cycles

 The electronic state is 1-A.
 Alpha  occ. eigenvalues --  -19.09896 -14.36973 -14.34781 -14.31547 -10.27431
 Alpha  occ. eigenvalues --  -10.21897 -10.20185 -10.20042 -10.19837 -10.19566
 Alpha  occ. eigenvalues --  -10.19475 -10.19153 -10.17687  -1.03617  -0.96647
 Alpha  occ. eigenvalues --   -0.90633  -0.82766  -0.81300  -0.77184  -0.72724
 Alpha  occ. eigenvalues --   -0.67785  -0.66560  -0.62828  -0.59538  -0.56793
 Alpha  occ. eigenvalues --   -0.55896  -0.51395  -0.50563  -0.49461  -0.46178
 Alpha  occ. eigenvalues --   -0.45927  -0.44193  -0.43235  -0.42203  -0.41319
 Alpha  occ. eigenvalues --   -0.40689  -0.39282  -0.38889  -0.38696  -0.37666
 Alpha  occ. eigenvalues --   -0.36677  -0.36061  -0.35701  -0.33637  -0.32114
 Alpha  occ. eigenvalues --   -0.27893  -0.25192  -0.23726  -0.22766  -0.22610
 Alpha virt. eigenvalues --   -0.05423   0.04468   0.08318   0.08458   0.09982
 Alpha virt. eigenvalues --    0.10507   0.11763   0.12473   0.13647   0.14132
 Alpha virt. eigenvalues --    0.14688   0.15145   0.16089   0.16254   0.16822

 Mulliken charges:
               1
     1  C   -0.288029
     2  N   -0.262817
     3  N   -0.321697
     4  C    0.439923
     5  O   -0.402923
     6  C   -0.238557
     7  C   -0.027273
     8  C   -0.089088
     9  C   -0.059788
    10  C    0.004087
    11  C   -0.376805
    12  N   -0.289554
    13  C   -0.315045
    14  H    0.120667
    15  H    0.125720
    16  H    0.121221
    17  H    0.241968
    18  H    0.252422
    19  H    0.082114
    20  H    0.122208
    21  H    0.085257
    22  H    0.103920
    23  H    0.052678
    24  H    0.125328
    25  H    0.119003
    26  H    0.117440
    27  H    0.217864
    28  H    0.126813
    29  H    0.092762
    30  H    0.120179
 Sum of Mulliken charges =  -0.00000

 Dipole moment (field-independent basis, Debye):
    X=              1.4642    Y=             -0.6404    Z=             -2.8454  Tot=              3.2635
 Quadrupole moment (field-independent basis, Debye-Ang):
   XX=            -75.0944   YY=            -78.3838   ZZ=            -79.5415
   XY=              1.0334   XZ=              1.6938   YZ=              0.3034

  Exact polarizability: 245.042   3.522  89.059   9.832   2.035 106.761
 Approx polarizability: 294.506   4.311 128.325  29.790   4.281 183.042

                      1                      2                      3
                      A                      A                      A
 Frequencies --     25.8515                46.4560                48.8568
 Red. masses --      3.9770                 2.8991                 3.9554
 Frc consts  --      0.0016                 0.0037                 0.0056
 IR Inten    --      0.3018                 0.4130                 0.8457

                      4                      5                      6
                      A                      A                      A
 Frequencies --     62.6013                75.7298                96.4947
 Red. masses --      3.6937                 2.9741                 2.5194
 Frc consts  --      0.0085                 0.0100                 0.0138
 IR Inten    --      0.2995                 2.9824                 5.0547

                      7                      8                      9
                      A                      A                      A
 Frequencies --    131.6799               165.3926               208.4554
 Red. masses --      3.3960                 2.1217                 1.0677
 Frc consts  --      0.0347                 0.0342                 0.0273
 IR Inten    --      1.2881                 0.1598                 1.0246

                     10                     11                     12
                      A                      A                      A
 Frequencies --    209.8481               212.3076               217.7228
 Red. masses --      2.0058                 1.5812                 3.7766
 Frc consts  --      0.0520                 0.0420                 0.1055
 IR Inten    --      2.3821                 4.5537                 0.4096

                     13                     14                     15
                      A                      A                      A
 Frequencies --    258.9861               272.1738               295.0179
 Red. masses --      1.5640                 2.6541                 2.0011
 Frc consts  --      0.0618                 0.1158                 0.1026
 IR Inten    --      1.2120                 3.9535                 6.2550

                     16                     17                     18
                      A                      A                      A
 Frequencies --    316.5425               402.4100               413.5832
 Red. masses --      3.1172                 3.3273                 3.5318
 Frc consts  --      0.1840                 0.3175                 0.3559
 IR Inten    --     32.4674                14.4377                 1.9296

                     19                     20                     21
                      A                      A                      A
 Frequencies --    443.3756               481.5876               504.6008
 Red. masses --      2.2654                 1.5075                 2.9586
 Frc consts  --      0.2624                 0.2060                 0.4439
 IR Inten    --     18.0249                65.7703                26.0580

                     22                     23                     24
                      A                      A                      A
 Frequencies --    526.6735               569.1140               732.3846
 Red. masses --      3.0505                 3.1468                 3.6854
 Frc consts  --      0.4985                 0.6005                 1.1647
 IR Inten    --     31.9743                 5.6452                 1.7589

                     25                     26                     27
                      A                      A                      A
 Frequencies --    770.9984               785.3953               822.4495
 Red. masses --      3.4898                 1.4666                 1.8056
 Frc consts  --      1.2222                 0.5330                 0.7196
 IR Inten    --     18.2936                67.8057                71.8313

                     28                     29                     30
                      A                      A                      A
 Frequencies --    856.5979               861.9733               911.5622
 Red. masses --      1.8919                 2.1295                 1.9189
 Frc consts  --      0.8179                 0.9322                 0.9394
 IR Inten    --     14.3067                 9.9097                 4.5025

                     31                     32                     33
                      A                      A                      A
 Frequencies --    941.3794               989.8195               999.6991
 Red. masses --      1.6602                 1.7422                 1.1861
 Frc consts  --      0.8669                 1.0057                 0.6984
 IR Inten    --      3.3913                 3.7219                 3.7142

                     34                     35                     36
                      A                      A                      A
 Frequencies --   1008.9371              1042.0024              1055.9986
 Red. masses --      3.9291                 1.9108                 1.1719
 Frc consts  --      2.3565                 1.2224                 0.7700
 IR Inten    --     10.4276                18.4709                37.6445

                     37                     38                     39
                      A                      A                      A
 Frequencies --   1066.1935              1105.8821              1118.3369
 Red. masses --      1.7232                 3.9050                 2.1369
 Frc consts  --      1.1541                 2.8138                 1.5746
 IR Inten    --     15.7802                69.0120                24.3436

                     40                     41                     42
                      A                      A                      A
 Frequencies --   1148.4729              1159.8765              1173.1568
 Red. masses --      1.5967                 1.4986                 2.6039
 Frc consts  --      1.2409                 1.1878                 2.1115
 IR Inten    --      1.6008                 1.0554                44.3878

                     43                     44                     45
                      A                      A                      A
 Frequencies --   1181.9456              1200.8069              1221.4380
 Red. masses --      2.3917                 1.5564                 1.7765
 Frc consts  --      1.9686                 1.3223                 1.5616
 IR Inten    --     27.0871                 1.1031                11.9738

                     46                     47                     48
                      A                      A                      A
 Frequencies --   1244.4389              1269.8080              1307.2873
 Red. masses --      1.6042                 1.7709                 1.4655
 Frc consts  --      1.4638                 1.6824                 1.4756
 IR Inten    --     14.5404                67.5116               104.4925

                     49                     50                     51
                      A                      A                      A
 Frequencies --   1322.9695              1343.7679              1353.4746
 Red. masses --      1.3469                 1.5129                 1.2886
 Frc consts  --      1.3889                 1.6095                 1.3908
 IR Inten    --      6.4449                60.8133                23.3022

                     52                     53                     54
                      A                      A                      A
 Frequencies --   1386.0548              1398.5999              1443.5823
 Red. masses --      1.4443                 1.2413                 1.1880
 Frc consts  --      1.6349                 1.4306                 1.4586
 IR Inten    --      1.2900                 7.8784                 0.1676

                     55                     56                     57
                      A                      A                      A
 Frequencies --   1458.1779              1475.6886              1482.3852
 Red. masses --      1.1711                 1.5855                 1.1409
 Frc consts  --      1.4671                 2.0343                 1.4771
 IR Inten    --      2.1194               242.9867                 9.1381

                     58                     59                     60
                      A                      A                      A
 Frequencies --   1483.6271              1485.5552              1501.9436
 Red. masses --      1.0755                 1.0522                 1.0490
 Frc consts  --      1.3948                 1.3681                 1.3943
 IR Inten    --      3.3815                 3.7448                 2.2340

                     61                     62                     63
                      A                      A                      A
 Frequencies --   1502.9540              1506.4615              1520.4324
 Red. masses --      1.1181                 1.0576                 1.0641
 Frc consts  --      1.4881                 1.4142                 1.4493
 IR Inten    --      2.0049                 5.7031                19.2862

                     64                     65                     66
                      A                      A                      A
 Frequencies --   1564.6447              1674.8368              1703.1676
 Red. masses --      1.1285                 6.5173                 6.2270
 Frc consts  --      1.6277                10.7712                10.6425
 IR Inten    --     15.6719               127.4519                67.1182

                     67                     68                     69
                      A                      A                      A
 Frequencies --   1751.3915              2905.5151              2939.8257
 Red. masses --      8.0976                 1.0809                 1.0602
 Frc consts  --     14.6344                 5.3762                 5.3985
 IR Inten    --    113.7902                49.6217                95.4474

                     70                     71                     72
                      A                      A                      A
 Frequencies --   3013.6632              3041.7992              3068.4616
 Red. masses --      1.0386                 1.0346                 1.0718
 Frc consts  --      5.5577                 5.6402                 5.9455
 IR Inten    --     47.1181                17.9848                44.2338

                     73                     74                     75
                      A                      A                      A
 Frequencies --   3089.1053              3107.7341              3116.2613
 Red. masses --      1.0962                 1.1019                 1.1032
 Frc consts  --      6.1633                 6.2702                 6.3120
 IR Inten    --     38.8956                29.9925                25.3157

                     76                     77                     78
                      A                      A                      A
 Frequencies --   3116.8846              3121.0794              3130.8771
 Red. masses --      1.1013                 1.1023                 1.0893
 Frc consts  --      6.3038                 6.3265                 6.2913
 IR Inten    --     29.3449                19.5206                 8.0520

                     79                     80                     81
                      A                      A                      A
 Frequencies --   3140.4230              3149.1584              3162.4730
 Red. masses --      1.0870                 1.0902                 1.0867
 Frc consts  --      6.3160                 6.3699                 6.4036
 IR Inten    --     15.0341                11.2811                 5.3447

                     82                     83                     84
                      A                      A                      A
 Frequencies --   3469.2064              3519.6529              3603.7223
 Red. masses --      1.0722                 1.0742                 1.0778
 Frc consts  --      7.6032                 7.8401                 8.2471
 IR Inten    --      8.7378                 0.0681                42.0963

 - Thermochemistry -
 -------------------
 Temperature   298.150 Kelvin.  Pressure   1.00000 Atm.
 Atom     1 has atomic number  6 and mass  12.00000

 Molecular mass:   183.13716 amu.
 Principal axes and moments of inertia in atomic units:
                           1         2         3
     Eigenvalues --   589.380099684.049549799.99115
           X            0.99999   0.00464  -0.00127
           Y           -0.00461   0.99970   0.02405
           Z            0.00138  -0.02404   0.99971
 This molecule is an asymmetric top.
 Rotational symmetry number  1.
 Warning -- assumption of classical behavior for rotation
           may cause significant error
 Rotational temperatures (Kelvin)      0.14696     0.00894     0.00884
 Rotational constants (GHZ):           3.06210     0.18636     0.18416
 Zero-point vibrational energy     681978.2 (Joules/Mol)
                                  162.99671 (Kcal/Mol)
 Warning -- explicit consideration of  23 degrees of freedom as
           vibrations may cause significant error
 Vibrational temperatures:     37.19    66.84    70.29    90.07   108.96
          (Kelvin)            138.83   189.46   237.96   299.92   301.92
                              305.46   313.25   372.62   391.60   424.46
                              455.43   578.98   595.05   637.92   692.90
                              726.01   757.77   818.83  1053.74  1109.29
                             1130.01  1183.32  1232.45  1240.19  1311.53
                             1354.43  1424.13  1438.34  1451.64  1499.21
                             1519.35  1534.01  1591.12  1609.04  1652.40
                             1668.80  1687.91  1700.56  1727.69  1757.38
                             1790.47  1826.97  1880.89  1903.46  1933.38
                             1947.35  1994.22  2012.27  2076.99  2097.99
                             2123.19  2132.82  2134.61  2137.38  2160.96
                             2162.42  2167.46  2187.56  2251.17  2409.72
                             2450.48  2519.86  4180.39  4229.75  4335.99
                             4376.47  4414.83  4444.53  4471.34  4483.60
                             4484.50  4490.54  4504.63  4518.37  4530.94
                             4550.09  4991.41  5064.00  5184.95

 Zero-point correction=                           0.259752 (Hartree/Particle)
 Thermal correction to Energy=                    0.275481
 Thermal correction to Enthalpy=                  0.276425
 Thermal correction to Gibbs Free Energy=         0.215054
 Sum of electronic and zero-point Energies=           -592.399268
 Sum of electronic and thermal Energies=              -592.383539
 Sum of electronic and thermal Enthalpies=            -592.382595
 Sum of electronic and thermal Free Energies=         -592.443966

                     E (Thermal)             CV                S
                      KCal/Mol        Cal/Mol-Kelvin    Cal/Mol-Kelvin
 Total                  172.867             55.586            129.167
 Electronic               0.000              0.000              0.000
 Translational            0.889              2.981             41.522
 Rotational               0.889              2.981             32.392
 Vibrational            171.090             49.624             55.254
 Vibration     1          0.593              1.985              6.125
 Vibration     2          0.595              1.979              4.963
 Vibration     3          0.595              1.978              4.863
 Vibration     4          0.597              1.972              4.373
 Vibration     5          0.599              1.965              3.999
 Vibration     6          0.603              1.952              3.524
 Vibration     7          0.612              1.922              2.921
 Vibration     8          0.624              1.885              2.487
 Vibration     9          0.642              1.828              2.057
 Vibration    10          0.642              1.826              2.045
 Vibration    11          0.643              1.822              2.024
 Vibration    12          0.646              1.814              1.978
 Vibration    13          0.668              1.748              1.669
 Vibration    14          0.675              1.725              1.582
 Vibration    15          0.689              1.683              1.445
 Vibration    16          0.703              1.642              1.328
 Vibration    17          0.768              1.465              0.954
 Vibration    18          0.777              1.441              0.914
 Vibration    19          0.803              1.376              0.816
 Vibration    20          0.838              1.291              0.706
 Vibration    21          0.860              1.240              0.647
 Vibration    22          0.882              1.191              0.595
 Vibration    23          0.925              1.098              0.506

 Optimization completed.
    -- Stationary point found.
 Normal termination of Gaussian 16 at Tue May 23 21:47:22 2023.
