 Gaussian 16, Revision A.03,
 Gaussian 16:  ES64L-G16RevA.03 25-Dec-2016

 -----------------------------
 # opt freq b3lyp/6-31g(2df,p)
 -----------------------------

 -------------------
 Title Card Required
 -------------------
 Symbolic Z-matrix:
 Charge =  0 Multiplicity = 1

 SCF Done:  E(RB3LYP) =  -606.644047578     A.U. after   25 cycles
 SCF Done:  E(RB3LYP) =  -606.768251019     A.U. after   17 cycles
 SCF Done:  E(RB3LYP) =  -606.530226749     A.U. after   19 cycles
 SCF Done:  E(RB3LYP) =  -606.898511492     A.U. after   16 cycles
 SCF Done:  E(RB3LYP) =  -606.987757202     A.U. after   15 cycles
 SCF Done:  E(RB3LYP) =  -607.076462262     A.U. after   14 cycles
 SCF Done:  E(RB3LYP) =  -607.074092960     A.U. after   14 cycles
 SCF Done:  E(RB3LYP) =  -607.173161358     A.U. after   13 cycles
 SCF Done:  E(RB3LYP) =  -607.251165386     A.U. after   13 cycles
 SCF Done:  E(RB3LYP) =  -607.287881894     A.U. after   13 cycles
 SCF Done:  E(RB3LYP) =  -607.461340639     A.U. after    9 cycles
 SCF Done:  E(RB3LYP) =  -607.461349756     A.U. after    8 cycles
 SCF Done:  E(RB3LYP) =  -607.461356107     A.U. after    8 cycles
 SCF Done:  E(RB3LYP) =  -607.461367135     A.U. after    8 cycles
 SCF Done:  E(RB3LYP) =  -607.461382955     A.U. after    9 cycles
 SCF Done:  E(RB3LYP) =  -607.461391179     A.U. after    8 cycles
 SCF Done:  E(RB3LYP) =  -607.461392677     A.U. after    7 cycles
 SCF Done:  E(RB3LYP) =  -607.461393304     A.U. after    7 cycles
 SCF Done:  E(RB3LYP) =  -607.461393555     A.U. after    7 cycles
 Optimization completed.
    -- Stationary point found.
 Normal termination of Gaussian 16 at Mon May 29 10:56:22 2023.

 ----------------------------------------------------------------------
 #N Geom=AllCheck Guess=TCheck SCRF=Check GenChk RB3LYP/6-31G(2df,p) Fr
 eq
 ----------------------------------------------------------------------

 Structure from the checkpoint file:  "CNNCC1dCNCqdOrCNdCC1.chk"
 -------------------
 Title Card Required
 -------------------
 Charge =  0 Multiplicity = 1

                         Standard orientation:
 ---------------------------------------------------------------------
 Center     Atomic      Atomic             Coordinates (Angstroms)
 Number     Number       Type             X           Y           Z
 ---------------------------------------------------------------------
      1          6           0       -4.569910    0.504295   -0.752062
      2          7           0       -3.837041   -0.410694    0.117006
      3          7           0       -2.431023   -0.423511   -0.098809
      4          6           0       -1.742660    0.587028    0.710122
      5          6           0       -0.247240    0.405209    0.615251
      6          6           0        0.496031    1.392317    0.099224
      7          7           0        1.879851    1.446978   -0.081669
      8          6           0        2.862339    0.472776   -0.172856
      9          8           0        4.030586    0.814616   -0.194933
     10          6           0        2.501547   -0.971914   -0.313687
     11          7           0        1.373296   -1.463391   -1.145745
     12          6           0        1.311495   -1.627704    0.303542
     13          6           0        0.302315   -0.889888    1.168721
     14          1           0       -5.643470    0.363682   -0.592193
     15          1           0       -4.358957    0.359844   -1.827325
     16          1           0       -4.326948    1.540353   -0.495543
     17          1           0       -4.164133   -1.359126   -0.030009
     18          1           0       -2.214934   -0.266035   -1.086014
     19          1           0       -2.079233    0.425740    1.741417
     20          1           0       -2.009943    1.623322    0.444571
     21          1           0        0.008854    2.312115   -0.213245
     22          1           0        2.289960    2.369493   -0.129943
     23          1           0        0.783130   -0.678512   -1.417423
     24          1           0        3.409984   -1.554642   -0.424862
     25          1           0        1.469327   -2.658034    0.618792
     26          1           0        0.758149   -0.711780    2.154417
     27          1           0       -0.545559   -1.561740    1.331798
 ---------------------------------------------------------------------

 SCF Done:  E(RB3LYP) =  -607.461393555     A.U. after    1 cycles

 The electronic state is 1-A.
 Alpha  occ. eigenvalues --  -19.10882 -14.37032 -14.34470 -14.34448 -14.33364
 Alpha  occ. eigenvalues --  -10.28810 -10.23218 -10.22645 -10.21978 -10.21398
 Alpha  occ. eigenvalues --  -10.20961 -10.19657 -10.19629  -1.04166  -0.97213
 Alpha  occ. eigenvalues --   -0.96563  -0.93395  -0.83330  -0.78283  -0.72737
 Alpha  occ. eigenvalues --   -0.69373  -0.68133  -0.65151  -0.63236  -0.58223
 Alpha  occ. eigenvalues --   -0.55732  -0.52480  -0.50988  -0.48054  -0.47594
 Alpha  occ. eigenvalues --   -0.47296  -0.46317  -0.45060  -0.43325  -0.41736
 Alpha  occ. eigenvalues --   -0.41144  -0.40711  -0.39345  -0.38771  -0.37489
 Alpha  occ. eigenvalues --   -0.36506  -0.33810  -0.33775  -0.31548  -0.25561
 Alpha  occ. eigenvalues --   -0.25027  -0.24398  -0.23688  -0.22425
 Alpha virt. eigenvalues --   -0.01587   0.03702   0.07036   0.07565   0.09727
 Alpha virt. eigenvalues --    0.10662   0.11066   0.12450   0.13258   0.14671
 Alpha virt. eigenvalues --    0.15037   0.15285   0.15681   0.16188   0.17782

 Mulliken charges:
               1
     1  C   -0.310364
     2  N   -0.245964
     3  N   -0.287763
     4  C   -0.206922
     5  C    0.209253
     6  C   -0.079463
     7  N   -0.355618
     8  C    0.392638
     9  O   -0.364189
    10  C   -0.106319
    11  N   -0.344851
    12  C   -0.010393
    13  C   -0.338633
    14  H    0.124894
    15  H    0.095751
    16  H    0.128602
    17  H    0.232553
    18  H    0.199987
    19  H    0.117913
    20  H    0.081068
    21  H    0.104267
    22  H    0.254605
    23  H    0.234483
    24  H    0.117880
    25  H    0.103206
    26  H    0.119945
    27  H    0.133434
 Sum of Mulliken charges =  -0.00000

 Dipole moment (field-independent basis, Debye):
    X=             -4.0982    Y=              1.3197    Z=              0.0999  Tot=              4.3066
 Quadrupole moment (field-independent basis, Debye-Ang):
   XX=            -89.0339   YY=            -72.5441   ZZ=            -78.1055
   XY=             -1.0801   XZ=              6.9471   YZ=             -3.9311

  Exact polarizability: 158.224   6.688 107.770  -4.756  -5.054  85.296
 Approx polarizability: 217.168  22.028 168.032 -12.250 -11.044 139.264

                      1                      2                      3
                      A                      A                      A
 Frequencies --     38.5483                45.0027                58.1771
 Red. masses --      4.2429                 4.2615                 3.0205
 Frc consts  --      0.0037                 0.0051                 0.0060
 IR Inten    --      1.0673                 0.7934                 1.5668

                      4                      5                      6
                      A                      A                      A
 Frequencies --     99.1505               133.2899               175.1652
 Red. masses --      4.4812                 3.3635                 2.4326
 Frc consts  --      0.0260                 0.0352                 0.0440
 IR Inten    --      2.3312                 0.5887                 0.7373

                      7                      8                      9
                      A                      A                      A
 Frequencies --    218.8318               237.6984               277.5310
 Red. masses --      1.4218                 2.9019                 3.1381
 Frc consts  --      0.0401                 0.0966                 0.1424
 IR Inten    --      0.6507                 1.1747                 1.3787

                     10                     11                     12
                      A                      A                      A
 Frequencies --    321.6924               344.4689               362.9207
 Red. masses --      3.6286                 2.6344                 4.3713
 Frc consts  --      0.2212                 0.1842                 0.3392
 IR Inten    --      1.1736                 6.3653                 4.7928

                     13                     14                     15
                      A                      A                      A
 Frequencies --    410.2589               449.1225               455.5646
 Red. masses --      3.3453                 2.9020                 3.8991
 Frc consts  --      0.3317                 0.3449                 0.4768
 IR Inten    --      3.9798                 6.6857                20.8248

                     16                     17                     18
                      A                      A                      A
 Frequencies --    483.0310               557.5709               603.3120
 Red. masses --      5.9413                 3.0482                 1.5238
 Frc consts  --      0.8167                 0.5583                 0.3268
 IR Inten    --      1.8455                12.2800                30.7288

                     19                     20                     21
                      A                      A                      A
 Frequencies --    643.6275               729.2670               756.6091
 Red. masses --      2.3365                 4.0728                 3.7745
 Frc consts  --      0.5703                 1.2762                 1.2731
 IR Inten    --     56.0452                20.0525                13.4214

                     22                     23                     24
                      A                      A                      A
 Frequencies --    768.5938               783.6277               828.3680
 Red. masses --      1.9479                 4.1791                 4.2582
 Frc consts  --      0.6780                 1.5120                 1.7215
 IR Inten    --     65.3222                 1.0358                 8.4333

                     25                     26                     27
                      A                      A                      A
 Frequencies --    842.5920               867.6468               905.0865
 Red. masses --      3.7064                 1.4205                 1.8444
 Frc consts  --      1.5504                 0.6301                 0.8902
 IR Inten    --     20.2156                78.0766                 5.5771

                     28                     29                     30
                      A                      A                      A
 Frequencies --    909.1654               937.8613               962.0830
 Red. masses --      1.9978                 1.9838                 1.9406
 Frc consts  --      0.9730                 1.0281                 1.0583
 IR Inten    --     12.5093                24.9499                15.0535

                     31                     32                     33
                      A                      A                      A
 Frequencies --    986.7075              1026.3598              1085.1847
 Red. masses --      2.6218                 2.0185                 1.6888
 Frc consts  --      1.5039                 1.2528                 1.1717
 IR Inten    --     12.8196                 7.0254                 2.4951

                     34                     35                     36
                      A                      A                      A
 Frequencies --   1092.3222              1105.9812              1129.8766
 Red. masses --      1.5634                 1.3935                 3.0641
 Frc consts  --      1.0991                 1.0043                 2.3047
 IR Inten    --     11.7462                10.2663                 8.7678

                     37                     38                     39
                      A                      A                      A
 Frequencies --   1155.0483              1168.9933              1192.1121
 Red. masses --      1.6038                 1.7233                 1.7066
 Frc consts  --      1.2607                 1.3875                 1.4289
 IR Inten    --      9.0402                31.6138                16.2159

                     40                     41                     42
                      A                      A                      A
 Frequencies --   1200.0700              1206.9827              1233.3155
 Red. masses --      1.3678                 1.5097                 1.8880
 Frc consts  --      1.1606                 1.2958                 1.6920
 IR Inten    --     47.6301                38.5276                 3.2627

                     43                     44                     45
                      A                      A                      A
 Frequencies --   1262.8555              1278.4494              1298.0714
 Red. masses --      1.3056                 1.2780                 1.4960
 Frc consts  --      1.2268                 1.2307                 1.4852
 IR Inten    --      6.9456                 6.1266                19.9508

                     46                     47                     48
                      A                      A                      A
 Frequencies --   1331.7321              1369.8626              1377.2943
 Red. masses --      1.5358                 1.4305                 1.8318
 Frc consts  --      1.6047                 1.5815                 2.0473
 IR Inten    --     98.6152                 7.7312                 1.5103

                     49                     50                     51
                      A                      A                      A
 Frequencies --   1392.4725              1421.2400              1440.5171
 Red. masses --      2.3619                 1.6230                 1.6950
 Frc consts  --      2.6983                 1.9316                 2.0723
 IR Inten    --     57.0870                52.7878                10.3832

                     52                     53                     54
                      A                      A                      A
 Frequencies --   1447.7736              1472.6647              1476.0632
 Red. masses --      1.2275                 1.1021                 1.0927
 Frc consts  --      1.5159                 1.4083                 1.4027
 IR Inten    --      0.5665                 2.6773                 5.0894

                     55                     56                     57
                      A                      A                      A
 Frequencies --   1489.0566              1493.3111              1496.6839
 Red. masses --      1.7250                 1.1166                 1.1263
 Frc consts  --      2.2535                 1.4671                 1.4865
 IR Inten    --     65.8616                 6.1293                 0.7246

                     58                     59                     60
                      A                      A                      A
 Frequencies --   1504.9221              1528.0642              1738.0769
 Red. masses --      1.0800                 1.1099                 6.8500
 Frc consts  --      1.4411                 1.5270                12.1921
 IR Inten    --      0.6160                 7.3099               109.9812

                     61                     62                     63
                      A                      A                      A
 Frequencies --   1768.4251              2941.7552              2959.2251
 Red. masses --      7.6343                 1.0582                 1.0698
 Frc consts  --     14.0667                 5.3956                 5.5197
 IR Inten    --    386.3610                73.3200                53.7559

                     64                     65                     66
                      A                      A                      A
 Frequencies --   2995.4220              3047.7578              3064.9874
 Red. masses --      1.0700                 1.0897                 1.0734
 Frc consts  --      5.6566                 5.9638                 5.9409
 IR Inten    --     23.8871                17.4998                34.9578

                     67                     68                     69
                      A                      A                      A
 Frequencies --   3080.0379              3107.2555              3116.5839
 Red. masses --      1.0900                 1.1027                 1.0880
 Frc consts  --      6.0926                 6.2728                 6.2264
 IR Inten    --      4.9847                26.5304                28.5648

                     70                     71                     72
                      A                      A                      A
 Frequencies --   3159.5523              3169.6621              3385.8234
 Red. masses --      1.0891                 1.0893                 1.0732
 Frc consts  --      6.4055                 6.4481                 7.2485
 IR Inten    --     15.9191                10.2851                11.0316

                     73                     74                     75
                      A                      A                      A
 Frequencies --   3482.7731              3518.8346              3597.4098
 Red. masses --      1.0740                 1.0753                 1.0753
 Frc consts  --      7.6752                 7.8447                 8.1991
 IR Inten    --      4.0918                 1.6212                41.1620

 - Thermochemistry -
 -------------------
 Temperature   298.150 Kelvin.  Pressure   1.00000 Atm.
 Atom     1 has atomic number  6 and mass  12.00000

 Molecular mass:   182.11676 amu.
 Principal axes and moments of inertia in atomic units:
                           1         2         3
     Eigenvalues --   954.315834657.242325088.54799
           X            0.99989  -0.01128   0.00930
           Y            0.01161   0.99928  -0.03612
           Z           -0.00889   0.03622   0.99930
 This molecule is an asymmetric top.
 Rotational symmetry number  1.
 Warning -- assumption of classical behavior for rotation
           may cause significant error
 Rotational temperatures (Kelvin)      0.09076     0.01860     0.01702
 Rotational constants (GHZ):           1.89114     0.38751     0.35467
 Zero-point vibrational energy     604134.7 (Joules/Mol)
                                  144.39166 (Kcal/Mol)
 Warning -- explicit consideration of  18 degrees of freedom as
           vibrations may cause significant error
 Vibrational temperatures:     55.46    64.75    83.70   142.66   191.77
          (Kelvin)            252.02   314.85   341.99   399.31   462.84
                              495.61   522.16   590.27   646.19   655.46
                              694.97   802.22   868.03   926.04  1049.25
                             1088.59  1105.84  1127.47  1191.84  1212.30
                             1248.35  1302.22  1308.09  1349.37  1384.22
                             1419.65  1476.70  1561.34  1571.61  1591.26
                             1625.64  1661.86  1681.92  1715.18  1726.63
                             1736.58  1774.47  1816.97  1839.40  1867.64
                             1916.07  1970.93  1981.62  2003.46  2044.85
                             2072.58  2083.02  2118.84  2123.73  2142.42
                             2148.54  2153.39  2165.25  2198.54  2500.71
                             2544.37  4232.53  4257.66  4309.74  4385.04
                             4409.83  4431.49  4470.65  4484.07  4545.89
                             4560.44  4871.44  5010.93  5062.82  5175.87

 Zero-point correction=                           0.230103 (Hartree/Particle)
 Thermal correction to Energy=                    0.242762
 Thermal correction to Enthalpy=                  0.243706
 Thermal correction to Gibbs Free Energy=         0.189963
 Sum of electronic and zero-point Energies=           -607.231291
 Sum of electronic and thermal Energies=              -607.218631
 Sum of electronic and thermal Enthalpies=            -607.217687
 Sum of electronic and thermal Free Energies=         -607.271430

                     E (Thermal)             CV                S
                      KCal/Mol        Cal/Mol-Kelvin    Cal/Mol-Kelvin
 Total                  152.336             47.659            113.112
 Electronic               0.000              0.000              0.000
 Translational            0.889              2.981             41.505
 Rotational               0.889              2.981             31.492
 Vibrational            150.558             41.697             40.114
 Vibration     1          0.594              1.981              5.332
 Vibration     2          0.595              1.979              5.026
 Vibration     3          0.596              1.974              4.518
 Vibration     4          0.604              1.950              3.471
 Vibration     5          0.613              1.920              2.898
 Vibration     6          0.627              1.873              2.379
 Vibration     7          0.647              1.812              1.969
 Vibration     8          0.656              1.783              1.820
 Vibration     9          0.679              1.715              1.549
 Vibration    10          0.707              1.632              1.301
 Vibration    11          0.723              1.587              1.191
 Vibration    12          0.737              1.549              1.110
 Vibration    13          0.774              1.448              0.926
 Vibration    14          0.808              1.363              0.798
 Vibration    15          0.814              1.349              0.779
 Vibration    16          0.839              1.288              0.702
 Vibration    17          0.913              1.123              0.529
 Vibration    18          0.962              1.025              0.444

                           ! Non-Optimized Parameters !
 Normal termination of Gaussian 16 at Mon May 29 12:11:16 2023.
