 Gaussian 16, Revision A.03,
 Gaussian 16:  ES64L-G16RevA.03 25-Dec-2016

 -----------------------------
 # opt freq b3lyp/6-31g(2df,p)
 -----------------------------

 -------------------
 Title Card Required
 -------------------
 Symbolic Z-matrix:
 Charge =  0 Multiplicity = 1

 SCF Done:  E(RB3LYP) =  -1023.72265936     A.U. after   16 cycles
 SCF Done:  E(RB3LYP) =  -1023.74502847     A.U. after   15 cycles
 SCF Done:  E(RB3LYP) =  -1023.75801460     A.U. after   14 cycles
 SCF Done:  E(RB3LYP) =  -1023.76415831     A.U. after   14 cycles
 SCF Done:  E(RB3LYP) =  -1023.76954237     A.U. after   14 cycles
 SCF Done:  E(RB3LYP) =  -1023.78005789     A.U. after   16 cycles
 SCF Done:  E(RB3LYP) =  -1023.78774410     A.U. after   14 cycles
 SCF Done:  E(RB3LYP) =  -1023.79318957     A.U. after   14 cycles
 SCF Done:  E(RB3LYP) =  -1023.79448259     A.U. after   13 cycles
 SCF Done:  E(RB3LYP) =  -1023.79552223     A.U. after   12 cycles
 SCF Done:  E(RB3LYP) =  -1023.80240913     A.U. after   14 cycles
 SCF Done:  E(RB3LYP) =  -1023.80268454     A.U. after   14 cycles
 SCF Done:  E(RB3LYP) =  -1023.80278480     A.U. after   11 cycles
 SCF Done:  E(RB3LYP) =  -1023.80284873     A.U. after   13 cycles
 SCF Done:  E(RB3LYP) =  -1023.80285882     A.U. after   10 cycles
 SCF Done:  E(RB3LYP) =  -1023.80286496     A.U. after   11 cycles
 SCF Done:  E(RB3LYP) =  -1023.80286567     A.U. after    8 cycles
 SCF Done:  E(RB3LYP) =  -1023.80286589     A.U. after    8 cycles
 SCF Done:  E(RB3LYP) =  -1023.80286600     A.U. after    8 cycles
 Optimization completed.
    -- Stationary point found.
 Normal termination of Gaussian 16 at Mon May 29 16:59:41 2023.

 ----------------------------------------------------------------------
 #N Geom=AllCheck Guess=TCheck SCRF=Check GenChk RB3LYP/6-31G(2df,p) Fr
 eq
 ----------------------------------------------------------------------

 Structure from the checkpoint file:  "CNqCrCC1dCqCCNdNrSCdCNdN1.chk"
 -------------------
 Title Card Required
 -------------------
 Charge =  0 Multiplicity = 1

                         Standard orientation:
 ---------------------------------------------------------------------
 Center     Atomic      Atomic             Coordinates (Angstroms)
 Number     Number       Type             X           Y           Z
 ---------------------------------------------------------------------
      1          6           0        2.701430    3.110678   -0.284696
      2          7           0        2.119440    1.844183    0.129189
      3          6           0        1.869667    1.809967    1.561479
      4          6           0        0.933143    1.506541   -0.654423
      5          6           0        0.627526    0.025365   -0.567334
      6          6           0       -0.480564   -0.522802   -0.035691
      7          6           0       -1.664299    0.219516    0.528468
      8          6           0       -2.914919    0.089066   -0.362890
      9          7           0       -4.054235    0.700730    0.333014
     10          7           0       -4.545545    1.647280   -0.300980
     11         16           0       -0.648073   -2.318123    0.007225
     12          6           0        0.876020   -2.690035    0.827444
     13          6           0        2.058996   -2.250855    0.376319
     14          7           0        2.277600   -1.653452   -0.876638
     15          7           0        1.612801   -0.692525   -1.314022
     16          1           0        3.624093    3.289845    0.275995
     17          1           0        2.031557    3.976440   -0.116945
     18          1           0        2.952190    3.075135   -1.349019
     19          1           0        2.807290    1.971700    2.102071
     20          1           0        1.475763    0.831516    1.849705
     21          1           0        1.148209    2.582426    1.894006
     22          1           0        1.157234    1.719188   -1.704937
     23          1           0        0.059093    2.118242   -0.375613
     24          1           0       -1.435001    1.279836    0.655845
     25          1           0       -1.904388   -0.183921    1.518329
     26          1           0       -3.165176   -0.970893   -0.492851
     27          1           0       -2.758831    0.550750   -1.344832
     28          1           0       -5.327856    2.010747    0.272143
     29          1           0        0.811755   -3.336234    1.697203
     30          1           0        2.980820   -2.532971    0.877282
 ---------------------------------------------------------------------

 SCF Done:  E(RB3LYP) =  -1023.80286600     A.U. after    1 cycles

 The electronic state is 1-A.
 Alpha  occ. eigenvalues --  -88.89439 -14.38939 -14.38751 -14.38646 -14.37879
 Alpha  occ. eigenvalues --  -14.32776 -10.23535 -10.23065 -10.23032 -10.22859
 Alpha  occ. eigenvalues --  -10.22006 -10.21934 -10.20876 -10.20387 -10.20372
 Alpha  occ. eigenvalues --   -7.95619  -5.92104  -5.91748  -5.91198  -1.03792
 Alpha  occ. eigenvalues --   -1.03437  -0.92838  -0.85339  -0.83205  -0.79862
 Alpha  occ. eigenvalues --   -0.74211  -0.72444  -0.70850  -0.68055  -0.66272
 Alpha  occ. eigenvalues --   -0.60172  -0.59767  -0.57987  -0.53214  -0.50781
 Alpha  occ. eigenvalues --   -0.50392  -0.48453  -0.47933  -0.47306  -0.46575
 Alpha  occ. eigenvalues --   -0.44033  -0.43271  -0.42466  -0.42102  -0.41563
 Alpha  occ. eigenvalues --   -0.39603  -0.38513  -0.38200  -0.37193  -0.37023
 Alpha  occ. eigenvalues --   -0.36742  -0.35784  -0.35205  -0.33328  -0.29855
 Alpha  occ. eigenvalues --   -0.28380  -0.23670  -0.22625  -0.22377  -0.21886
 Alpha virt. eigenvalues --   -0.07257  -0.04726  -0.02003   0.00757   0.05977
 Alpha virt. eigenvalues --    0.07550   0.07936   0.09941   0.10627   0.11389
 Alpha virt. eigenvalues --    0.12570   0.13111   0.13635   0.14312   0.15135

 Mulliken charges:
               1
     1  C   -0.316308
     2  N   -0.047864
     3  C   -0.321500
     4  C   -0.247965
     5  C    0.223892
     6  C    0.125129
     7  C   -0.299211
     8  C   -0.116203
     9  N   -0.110311
    10  N   -0.277395
    11  S   -0.142768
    12  C   -0.120281
    13  C    0.008539
    14  N   -0.117608
    15  N   -0.154189
    16  H    0.120093
    17  H    0.091079
    18  H    0.125407
    19  H    0.120742
    20  H    0.121717
    21  H    0.088361
    22  H    0.131204
    23  H    0.092524
    24  H    0.123678
    25  H    0.138573
    26  H    0.140056
    27  H    0.115396
    28  H    0.245732
    29  H    0.131465
    30  H    0.128018
 Sum of Mulliken charges =  -0.00000

 Dipole moment (field-independent basis, Debye):
    X=             -0.3871    Y=              1.3852    Z=              2.7895  Tot=              3.1385
 Quadrupole moment (field-independent basis, Debye-Ang):
   XX=            -96.1767   YY=            -92.0687   ZZ=            -98.9475
   XY=              0.1485   XZ=              4.8671   YZ=             -4.1128

  Exact polarizability: 183.413  -7.793 160.908  -4.935 -12.269 113.753
 Approx polarizability: 280.715  -7.851 243.723 -20.000 -31.508 199.461

                      1                      2                      3
                      A                      A                      A
 Frequencies --     32.3175                36.7867                48.0274
 Red. masses --      5.0458                 3.0415                 6.0250
 Frc consts  --      0.0031                 0.0024                 0.0082
 IR Inten    --      0.1514                 0.2057                 0.9696

                      4                      5                      6
                      A                      A                      A
 Frequencies --     65.6975                72.3979                79.7855
 Red. masses --      3.1462                 4.1766                 3.3691
 Frc consts  --      0.0080                 0.0129                 0.0126
 IR Inten    --      0.4838                 0.2840                 0.2113

                      7                      8                      9
                      A                      A                      A
 Frequencies --    101.8193               165.5626               186.3433
 Red. masses --      4.9361                 4.9556                 4.2985
 Frc consts  --      0.0302                 0.0800                 0.0879
 IR Inten    --      0.1172                 0.8221                 4.5372

                     10                     11                     12
                      A                      A                      A
 Frequencies --    233.6575               245.3127               262.2310
 Red. masses --      1.8227                 2.2255                 1.2205
 Frc consts  --      0.0586                 0.0789                 0.0494
 IR Inten    --      0.0736                 0.7785                 0.1210

                     13                     14                     15
                      A                      A                      A
 Frequencies --    275.6241               288.6050               316.1075
 Red. masses --      2.9045                 3.1110                 4.3033
 Frc consts  --      0.1300                 0.1527                 0.2533
 IR Inten    --      1.1304                 1.2182                 3.5796

                     16                     17                     18
                      A                      A                      A
 Frequencies --    338.2994               361.7161               386.4547
 Red. masses --      3.0446                 3.5466                 3.9315
 Frc consts  --      0.2053                 0.2734                 0.3459
 IR Inten    --      3.7672                 1.9056                 4.6123

                     19                     20                     21
                      A                      A                      A
 Frequencies --    425.6184               433.1332               482.0322
 Red. masses --      2.1799                 2.4330                 4.2827
 Frc consts  --      0.2327                 0.2689                 0.5863
 IR Inten    --      0.5705                 0.2978                 0.2466

                     22                     23                     24
                      A                      A                      A
 Frequencies --    528.8620               583.6585               618.6810
 Red. masses --      3.7623                 3.4825                 4.1166
 Frc consts  --      0.6200                 0.6990                 0.9284
 IR Inten    --      5.6708                27.0519                18.8119

                     25                     26                     27
                      A                      A                      A
 Frequencies --    648.3176               685.9741               728.3585
 Red. masses --      5.5108                 3.3009                 3.4478
 Frc consts  --      1.3647                 0.9152                 1.0777
 IR Inten    --      1.9295                 6.4179                18.6804

                     28                     29                     30
                      A                      A                      A
 Frequencies --    752.6351               788.7350               830.8752
 Red. masses --      2.6742                 1.9854                 2.2721
 Frc consts  --      0.8925                 0.7277                 0.9242
 IR Inten    --     12.2206                 2.1131                 6.1314

                     31                     32                     33
                      A                      A                      A
 Frequencies --    860.3114               893.1839               898.5035
 Red. masses --      3.4660                 1.6895                 3.2815
 Frc consts  --      1.5114                 0.7941                 1.5608
 IR Inten    --     20.7931                22.0134                 1.0832

                     34                     35                     36
                      A                      A                      A
 Frequencies --    946.7921               957.1899               968.2739
 Red. masses --      1.4149                 2.9462                 3.5938
 Frc consts  --      0.7473                 1.5904                 1.9852
 IR Inten    --      3.6847                20.2926                 5.8391

                     37                     38                     39
                      A                      A                      A
 Frequencies --    991.1606              1049.2014              1064.5710
 Red. masses --      2.4483                 2.2624                 2.5228
 Frc consts  --      1.4171                 1.4673                 1.6846
 IR Inten    --      4.5675                55.2773                29.5041

                     40                     41                     42
                      A                      A                      A
 Frequencies --   1068.2778              1079.5662              1107.7813
 Red. masses --      1.6400                 2.9301                 1.9362
 Frc consts  --      1.1027                 2.0120                 1.3999
 IR Inten    --     12.1287                 6.1527                10.3389

                     43                     44                     45
                      A                      A                      A
 Frequencies --   1123.1434              1167.4546              1191.8069
 Red. masses --      1.2821                 2.0228                 1.8389
 Frc consts  --      0.9529                 1.6244                 1.5389
 IR Inten    --      9.6573                 8.5801                18.0661

                     46                     47                     48
                      A                      A                      A
 Frequencies --   1210.0533              1215.4746              1225.7936
 Red. masses --      1.7996                 1.1953                 1.4504
 Frc consts  --      1.5525                 1.0405                 1.2840
 IR Inten    --      5.7082                 4.8327                 1.8892

                     49                     50                     51
                      A                      A                      A
 Frequencies --   1291.6357              1301.0633              1305.6998
 Red. masses --      1.2529                 2.1672                 1.2223
 Frc consts  --      1.2315                 2.1615                 1.2277
 IR Inten    --      2.2970                16.0376                11.6778

                     52                     53                     54
                      A                      A                      A
 Frequencies --   1313.1786              1354.0936              1364.4293
 Red. masses --      1.4807                 1.3690                 1.3856
 Frc consts  --      1.5044                 1.4790                 1.5199
 IR Inten    --      8.3069                 8.7767                 0.5910

                     55                     56                     57
                      A                      A                      A
 Frequencies --   1386.8028              1442.5014              1458.6478
 Red. masses --      1.4270                 1.1536                 1.1017
 Frc consts  --      1.6170                 1.4143                 1.3810
 IR Inten    --     30.1144                 2.3447                 3.6032

                     58                     59                     60
                      A                      A                      A
 Frequencies --   1471.7459              1479.8685              1482.3955
 Red. masses --      1.1177                 1.1234                 1.0551
 Frc consts  --      1.4263                 1.4496                 1.3661
 IR Inten    --      0.8865                 3.6569                 8.0428

                     61                     62                     63
                      A                      A                      A
 Frequencies --   1488.8439              1495.3701              1499.4892
 Red. masses --      1.1008                 1.2568                 1.0598
 Frc consts  --      1.4377                 1.6558                 1.4039
 IR Inten    --      6.6458                29.1811                10.1526

                     64                     65                     66
                      A                      A                      A
 Frequencies --   1500.6590              1512.7000              1576.3281
 Red. masses --      1.0724                 1.0525                10.5166
 Frc consts  --      1.4229                 1.4189                15.3964
 IR Inten    --      5.6231                 3.9682                 8.7468

                     67                     68                     69
                      A                      A                      A
 Frequencies --   1623.5332              1652.5153              1655.1377
 Red. masses --      7.4666                 9.7710                 9.6016
 Frc consts  --     11.5957                15.7211                15.4975
 IR Inten    --     15.6498                 8.6593                 5.2931

                     70                     71                     72
                      A                      A                      A
 Frequencies --   2911.5496              2921.8411              2963.2616
 Red. masses --      1.0611                 1.0616                 1.0694
 Frc consts  --      5.2997                 5.3397                 5.5325
 IR Inten    --     40.4601               110.2976                65.8447

                     73                     74                     75
                      A                      A                      A
 Frequencies --   3023.1163              3050.8283              3061.9361
 Red. masses --      1.0550                 1.0627                 1.0701
 Frc consts  --      5.6809                 5.8274                 5.9112
 IR Inten    --      9.2808                 7.5984                26.7877

                     76                     77                     78
                      A                      A                      A
 Frequencies --   3066.3486              3070.5407              3079.8991
 Red. masses --      1.0704                 1.0876                 1.1047
 Frc consts  --      5.9298                 6.0417                 6.1739
 IR Inten    --     27.3132                10.7645                 7.6213

                     79                     80                     81
                      A                      A                      A
 Frequencies --   3107.6647              3111.0375              3112.8147
 Red. masses --      1.1031                 1.1006                 1.1024
 Frc consts  --      6.2769                 6.2764                 6.2934
 IR Inten    --     19.1120                19.8266                23.5211

                     82                     83                     84
                      A                      A                      A
 Frequencies --   3164.4951              3185.7553              3244.2981
 Red. masses --      1.0828                 1.0975                 1.0737
 Frc consts  --      6.3888                 6.5626                 6.6585
 IR Inten    --      0.7865                13.8935                31.3546

 - Thermochemistry -
 -------------------
 Temperature   298.150 Kelvin.  Pressure   1.00000 Atm.
 Atom     1 has atomic number  6 and mass  12.00000

 Molecular mass:   225.10482 amu.
 Principal axes and moments of inertia in atomic units:
                           1         2         3
     Eigenvalues --  2993.593374521.901646680.36709
           X            0.99883   0.04750   0.00922
           Y           -0.04745   0.99886  -0.00541
           Z           -0.00947   0.00497   0.99994
 This molecule is an asymmetric top.
 Rotational symmetry number  1.
 Warning -- assumption of classical behavior for rotation
           may cause significant error
 Rotational temperatures (Kelvin)      0.02893     0.01915     0.01297
 Rotational constants (GHZ):           0.60287     0.39911     0.27016
 Zero-point vibrational energy     638531.9 (Joules/Mol)
                                  152.61278 (Kcal/Mol)
 Warning -- explicit consideration of  24 degrees of freedom as
           vibrations may cause significant error
 Vibrational temperatures:     46.50    52.93    69.10    94.52   104.16
          (Kelvin)            114.79   146.50   238.21   268.11   336.18
                              352.95   377.29   396.56   415.24   454.81
                              486.74   520.43   556.02   612.37   623.18
                              693.54   760.91   839.75   890.14   932.78
                              986.96  1047.95  1082.87  1134.81  1195.44
                             1237.80  1285.09  1292.75  1362.22  1377.18
                             1393.13  1426.06  1509.57  1531.68  1537.01
                             1553.25  1593.85  1615.95  1679.71  1714.74
                             1741.00  1748.80  1763.64  1858.38  1871.94
                             1878.61  1889.37  1948.24  1963.11  1995.30
                             2075.44  2098.67  2117.51  2129.20  2132.84
                             2142.11  2151.50  2157.43  2159.11  2176.44
                             2267.98  2335.90  2377.60  2381.37  4189.07
                             4203.88  4263.47  4349.59  4389.46  4405.44
                             4411.79  4417.82  4431.29  4471.24  4476.09
                             4478.65  4553.00  4583.59  4667.82

 Zero-point correction=                           0.243204 (Hartree/Particle)
 Thermal correction to Energy=                    0.259355
 Thermal correction to Enthalpy=                  0.260300
 Thermal correction to Gibbs Free Energy=         0.197692
 Sum of electronic and zero-point Energies=          -1023.559662
 Sum of electronic and thermal Energies=             -1023.543511
 Sum of electronic and thermal Enthalpies=           -1023.542566
 Sum of electronic and thermal Free Energies=        -1023.605174

                     E (Thermal)             CV                S
                      KCal/Mol        Cal/Mol-Kelvin    Cal/Mol-Kelvin
 Total                  162.748             58.381            131.769
 Electronic               0.000              0.000              0.000
 Translational            0.889              2.981             42.137
 Rotational               0.889              2.981             32.869
 Vibrational            160.971             52.419             56.763
 Vibration     1          0.594              1.983              5.682
 Vibration     2          0.594              1.982              5.425
 Vibration     3          0.595              1.978              4.897
 Vibration     4          0.597              1.971              4.278
 Vibration     5          0.598              1.967              4.087
 Vibration     6          0.600              1.963              3.896
 Vibration     7          0.604              1.948              3.419
 Vibration     8          0.624              1.885              2.485
 Vibration     9          0.632              1.859              2.264
 Vibration    10          0.654              1.789              1.851
 Vibration    11          0.660              1.771              1.764
 Vibration    12          0.670              1.742              1.647
 Vibration    13          0.677              1.718              1.561
 Vibration    14          0.685              1.695              1.482
 Vibration    15          0.703              1.643              1.330
 Vibration    16          0.719              1.599              1.220
 Vibration    17          0.736              1.551              1.115
 Vibration    18          0.755              1.499              1.014
 Vibration    19          0.787              1.415              0.873
 Vibration    20          0.794              1.398              0.848
 Vibration    21          0.838              1.290              0.705
 Vibration    22          0.884              1.186              0.590
 Vibration    23          0.941              1.067              0.479
 Vibration    24          0.979              0.992              0.419

 Optimization completed.
    -- Stationary point found.
 Normal termination of Gaussian 16 at Mon May 29 19:02:50 2023.
