 Gaussian 16, Revision A.03,
 Gaussian 16:  ES64L-G16RevA.03 25-Dec-2016

 -----------------------------
 # opt freq b3lyp/6-31g(2df,p)
 -----------------------------

 -------------------
 Title Card Required
 -------------------
 Symbolic Z-matrix:
 Charge =  0 Multiplicity = 1

 SCF Done:  E(RB3LYP) =  -1259.20576491     A.U. after   15 cycles
 SCF Done:  E(RB3LYP) =  -1259.22400096     A.U. after   14 cycles
 SCF Done:  E(RB3LYP) =  -1259.22556694     A.U. after   14 cycles
 SCF Done:  E(RB3LYP) =  -1259.23144714     A.U. after   15 cycles
 SCF Done:  E(RB3LYP) =  -1259.22780969     A.U. after   13 cycles
 SCF Done:  E(RB3LYP) =  -1259.23269122     A.U. after   13 cycles
 SCF Done:  E(RB3LYP) =  -1259.23305537     A.U. after   13 cycles
 SCF Done:  E(RB3LYP) =  -1259.23315880     A.U. after   12 cycles
 SCF Done:  E(RB3LYP) =  -1259.23318939     A.U. after   11 cycles
 SCF Done:  E(RB3LYP) =  -1259.23319613     A.U. after   11 cycles
 SCF Done:  E(RB3LYP) =  -1259.23320129     A.U. after   11 cycles
 SCF Done:  E(RB3LYP) =  -1259.23320182     A.U. after    9 cycles
 SCF Done:  E(RB3LYP) =  -1259.23320198     A.U. after    8 cycles
 SCF Done:  E(RB3LYP) =  -1259.23320201     A.U. after    8 cycles
 Optimization completed.
    -- Stationary point found.
 Normal termination of Gaussian 16 at Wed May 24 00:30:17 2023.

 ----------------------------------------------------------------------
 #N Geom=AllCheck Guess=TCheck SCRF=Check GenChk RB3LYP/6-31G(2df,p) Fr
 eq
 ----------------------------------------------------------------------

 Structure from the checkpoint file:  "CNqCrCCqCdOrCSCCPdO.chk"
 -------------------
 Title Card Required
 -------------------
 Charge =  0 Multiplicity = 1

                         Standard orientation:
 ---------------------------------------------------------------------
 Center     Atomic      Atomic             Coordinates (Angstroms)
 Number     Number       Type             X           Y           Z
 ---------------------------------------------------------------------
      1          6           0       -5.038492   -1.859738   -0.070367
      2          7           0       -4.151710   -0.750302   -0.386880
      3          6           0       -4.865344    0.520366   -0.349713
      4          6           0       -2.960584   -0.777158    0.449469
      5          6           0       -1.820742    0.150706   -0.059588
      6          6           0       -1.864537    1.493454    0.657818
      7          8           0       -2.258865    2.526443    0.184654
      8          6           0       -0.459283   -0.515023    0.191509
      9         16           0        0.900050    0.534170   -0.445794
     10          6           0        2.338754   -0.432644    0.134306
     11          6           0        3.634695    0.255728   -0.295355
     12         15           0        5.153115   -0.678435    0.264959
     13          8           0        6.335915    0.080797   -0.212279
     14          1           0       -5.884661   -1.859457   -0.764082
     15          1           0       -5.445954   -1.816663    0.958399
     16          1           0       -4.506892   -2.810089   -0.183989
     17          1           0       -5.722307    0.469599   -1.027908
     18          1           0       -4.220659    1.337501   -0.677940
     19          1           0       -5.246007    0.769657    0.660024
     20          1           0       -2.587568   -1.807257    0.446160
     21          1           0       -3.184920   -0.538598    1.511356
     22          1           0       -1.966394    0.320907   -1.129901
     23          1           0       -1.511657    1.444694    1.715684
     24          1           0       -0.426064   -1.490357   -0.302429
     25          1           0       -0.309367   -0.671642    1.266972
     26          1           0        2.278406   -1.443186   -0.285742
     27          1           0        2.289759   -0.522393    1.225531
     28          1           0        3.707944    1.271967    0.113811
     29          1           0        3.697592    0.355163   -1.386942
 ---------------------------------------------------------------------

 SCF Done:  E(RB3LYP) =  -1259.23320201     A.U. after    1 cycles

 The electronic state is 1-A.
 Alpha  occ. eigenvalues --  -88.88194 -77.14482 -19.14628 -19.14550 -14.32920
 Alpha  occ. eigenvalues --  -10.27677 -10.23707 -10.23297 -10.22682 -10.21161
 Alpha  occ. eigenvalues --  -10.20650 -10.20611 -10.19872  -7.94507  -6.61077
 Alpha  occ. eigenvalues --   -5.90990  -5.90653  -5.90022  -4.77639  -4.77131
 Alpha  occ. eigenvalues --   -4.76778  -1.05347  -0.99671  -0.92923  -0.84004
 Alpha  occ. eigenvalues --   -0.80743  -0.74264  -0.70803  -0.68816  -0.65307
 Alpha  occ. eigenvalues --   -0.61231  -0.59228  -0.57880  -0.54266  -0.48974
 Alpha  occ. eigenvalues --   -0.48480  -0.48340  -0.47316  -0.46008  -0.45719
 Alpha  occ. eigenvalues --   -0.43496  -0.42684  -0.42055  -0.40601  -0.39603
 Alpha  occ. eigenvalues --   -0.39379  -0.39058  -0.38325  -0.37781  -0.36855
 Alpha  occ. eigenvalues --   -0.36076  -0.35695  -0.35484  -0.34100  -0.32385
 Alpha  occ. eigenvalues --   -0.25672  -0.24974  -0.23763  -0.22097
 Alpha virt. eigenvalues --   -0.10516  -0.02976   0.00920   0.04487   0.06088
 Alpha virt. eigenvalues --    0.07044   0.07864   0.09177   0.10301   0.11696
 Alpha virt. eigenvalues --    0.12227   0.13153   0.13339   0.14114   0.14372

 Mulliken charges:
               1
     1  C   -0.316553
     2  N   -0.050040
     3  C   -0.337755
     4  C   -0.168468
     5  C   -0.092000
     6  C    0.179536
     7  O   -0.250225
     8  C   -0.230826
     9  S   -0.128503
    10  C   -0.219097
    11  C   -0.280755
    12  P    0.209038
    13  O   -0.222528
    14  H    0.122387
    15  H    0.092357
    16  H    0.115705
    17  H    0.117656
    18  H    0.153254
    19  H    0.089225
    20  H    0.100769
    21  H    0.079917
    22  H    0.124122
    23  H    0.079149
    24  H    0.132746
    25  H    0.124771
    26  H    0.132277
    27  H    0.131275
    28  H    0.156426
    29  H    0.156140
 Sum of Mulliken charges =  -0.00000

 Dipole moment (field-independent basis, Debye):
    X=             -2.2265    Y=             -3.7729    Z=              1.7874  Tot=              4.7315
 Quadrupole moment (field-independent basis, Debye-Ang):
   XX=           -113.9709   YY=            -99.6481   ZZ=            -92.5172
   XY=              3.5306   XZ=              0.4429   YZ=              1.1405

  Exact polarizability: 204.791  -2.341 126.511   3.336  -4.018 108.754
 Approx polarizability: 245.039  -2.116 202.974   2.038 -10.133 183.839

                      1                      2                      3
                      A                      A                      A
 Frequencies --      5.6447                17.9385                37.0353
 Red. masses --     16.7142                 6.3792                 4.5564
 Frc consts  --      0.0003                 0.0012                 0.0037
 IR Inten    --      3.3211                 0.3624                 0.2326

                      4                      5                      6
                      A                      A                      A
 Frequencies --     44.2570                59.4989                76.2192
 Red. masses --      5.0779                 2.1680                 3.1117
 Frc consts  --      0.0059                 0.0045                 0.0107
 IR Inten    --      1.2058                 0.3834                 1.5910

                      7                      8                      9
                      A                      A                      A
 Frequencies --     85.5465                92.5742               117.7943
 Red. masses --      3.8925                 5.4420                 3.6137
 Frc consts  --      0.0168                 0.0275                 0.0295
 IR Inten    --      4.2807                 3.7109                 3.5758

                     10                     11                     12
                      A                      A                      A
 Frequencies --    140.7432               169.9315               198.6494
 Red. masses --      3.3886                 5.2164                 3.8546
 Frc consts  --      0.0395                 0.0888                 0.0896
 IR Inten    --      4.3422                 0.3265                 3.6514

                     13                     14                     15
                      A                      A                      A
 Frequencies --    248.0907               260.6426               277.3288
 Red. masses --      1.7573                 1.5707                 2.0530
 Frc consts  --      0.0637                 0.0629                 0.0930
 IR Inten    --      5.2831                 0.7294                 3.2165

                     16                     17                     18
                      A                      A                      A
 Frequencies --    295.7003               310.8352               342.9791
 Red. masses --      1.9678                 2.4237                 2.8377
 Frc consts  --      0.1014                 0.1380                 0.1967
 IR Inten    --      2.0105                 1.6672                12.4616

                     19                     20                     21
                      A                      A                      A
 Frequencies --    366.2110               386.5026               452.3084
 Red. masses --      1.9462                 5.1545                 2.3213
 Frc consts  --      0.1538                 0.4537                 0.2798
 IR Inten    --      3.2320                16.4155                 0.8778

                     22                     23                     24
                      A                      A                      A
 Frequencies --    512.7229               553.2822               613.3893
 Red. masses --      2.8175                 4.0719                 1.2017
 Frc consts  --      0.4364                 0.7344                 0.2664
 IR Inten    --      2.3613                 4.1181                 0.1913

                     25                     26                     27
                      A                      A                      A
 Frequencies --    679.6814               750.1376               783.1365
 Red. masses --      6.1553                 5.3479                 4.5424
 Frc consts  --      1.6754                 1.7730                 1.6414
 IR Inten    --     62.7341                 8.6614                29.0634

                     28                     29                     30
                      A                      A                      A
 Frequencies --    830.2462               853.6811               859.6896
 Red. masses --      1.4854                 1.4997                 2.9980
 Frc consts  --      0.6033                 0.6439                 1.3055
 IR Inten    --      4.6062                 6.1771                26.8964

                     31                     32                     33
                      A                      A                      A
 Frequencies --    922.4687               962.3107              1019.8570
 Red. masses --      1.6142                 2.4887                 3.4651
 Frc consts  --      0.8093                 1.3579                 2.1234
 IR Inten    --      7.8037                 0.4104                 0.2177

                     34                     35                     36
                      A                      A                      A
 Frequencies --   1041.8832              1058.5653              1063.9006
 Red. masses --      2.9943                 1.8560                 2.1109
 Frc consts  --      1.9150                 1.2253                 1.4077
 IR Inten    --      4.1708                 5.7243                43.3611

                     37                     38                     39
                      A                      A                      A
 Frequencies --   1070.7021              1074.3292              1107.5085
 Red. masses --      1.6353                 1.1647                 2.1662
 Frc consts  --      1.1046                 0.7921                 1.5654
 IR Inten    --     10.5686                 0.4320                 6.7024

                     40                     41                     42
                      A                      A                      A
 Frequencies --   1122.9461              1164.8799              1167.8680
 Red. masses --      1.2656                 1.3127                 1.3080
 Frc consts  --      0.9403                 1.0495                 1.0511
 IR Inten    --      4.3183                 2.3877                 4.2948

                     43                     44                     45
                      A                      A                      A
 Frequencies --   1188.9804              1218.6948              1231.8545
 Red. masses --      1.4937                 1.8461                 1.3461
 Frc consts  --      1.2441                 1.6155                 1.2035
 IR Inten    --     23.7192                13.5328                 2.5392

                     46                     47                     48
                      A                      A                      A
 Frequencies --   1235.2066              1274.5943              1280.9996
 Red. masses --      8.8702                 1.4714                 1.1679
 Frc consts  --      7.9738                 1.4084                 1.1292
 IR Inten    --    108.6723                42.9883                 0.1507

                     49                     50                     51
                      A                      A                      A
 Frequencies --   1303.6181              1309.0782              1335.3449
 Red. masses --      1.3625                 2.3701                 1.3233
 Frc consts  --      1.3642                 2.3930                 1.3902
 IR Inten    --     25.7660                17.1796                16.8300

                     52                     53                     54
                      A                      A                      A
 Frequencies --   1349.7779              1405.0891              1425.6260
 Red. masses --      1.3564                 1.2790                 1.0896
 Frc consts  --      1.4560                 1.4877                 1.3047
 IR Inten    --     14.1188                25.2487                 8.3121

                     55                     56                     57
                      A                      A                      A
 Frequencies --   1427.2474              1448.4358              1472.6466
 Red. masses --      1.2188                 1.1559                 1.1011
 Frc consts  --      1.4628                 1.4288                 1.4069
 IR Inten    --      0.4440                 1.3705                 5.2943

                     58                     59                     60
                      A                      A                      A
 Frequencies --   1478.5262              1483.8877              1485.4006
 Red. masses --      1.1143                 1.0766                 1.0803
 Frc consts  --      1.4352                 1.3967                 1.4044
 IR Inten    --      5.1565                 2.8050                 4.9776

                     61                     62                     63
                      A                      A                      A
 Frequencies --   1496.0200              1504.5866              1507.2616
 Red. masses --      1.0878                 1.0471                 1.0847
 Frc consts  --      1.4344                 1.3966                 1.4519
 IR Inten    --      5.2860                10.8730                 9.6325

                     64                     65                     66
                      A                      A                      A
 Frequencies --   1516.1126              1833.7969              2847.4974
 Red. masses --      1.0571                10.4804                 1.0807
 Frc consts  --      1.4316                20.7649                 5.1628
 IR Inten    --     11.4901               152.2538                49.2210

                     67                     68                     69
                      A                      A                      A
 Frequencies --   2872.2222              2916.8176              2926.3473
 Red. masses --      1.0733                 1.0606                 1.0616
 Frc consts  --      5.2171                 5.3162                 5.3562
 IR Inten    --     79.7999                36.5180               142.0405

                     70                     71                     72
                      A                      A                      A
 Frequencies --   3020.6778              3022.9897              3025.9018
 Red. masses --      1.0573                 1.0594                 1.0566
 Frc consts  --      5.6838                 5.7042                 5.6998
 IR Inten    --     20.2449                21.8281                 9.6502

                     73                     74                     75
                      A                      A                      A
 Frequencies --   3048.9385              3058.5143              3060.4925
 Red. masses --      1.0853                 1.0704                 1.1038
 Frc consts  --      5.9444                 5.8994                 6.0913
 IR Inten    --     18.4430                35.3461                 3.1762

                     76                     77                     78
                      A                      A                      A
 Frequencies --   3075.7697              3076.8058              3079.3546
 Red. masses --      1.0736                 1.0987                 1.0994
 Frc consts  --      5.9841                 6.1282                 6.1420
 IR Inten    --     31.0117                13.2567                 6.5440

                     79                     80                     81
                      A                      A                      A
 Frequencies --   3090.0347              3103.9484              3135.7340
 Red. masses --      1.0949                 1.1026                 1.0997
 Frc consts  --      6.1596                 6.2588                 6.3707
 IR Inten    --      9.7095                31.6007                 6.5114

 - Thermochemistry -
 -------------------
 Temperature   298.150 Kelvin.  Pressure   1.00000 Atm.
 Atom     1 has atomic number  6 and mass  12.00000

 Molecular mass:   221.06394 amu.
 Principal axes and moments of inertia in atomic units:
                           1         2         3
     Eigenvalues --  1023.03404********************
           X            0.99994   0.01119  -0.00185
           Y           -0.01120   0.99992  -0.00521
           Z            0.00179   0.00523   0.99998
 This molecule is an asymmetric top.
 Rotational symmetry number  1.
 Warning -- assumption of classical behavior for rotation
           may cause significant error
 Rotational temperatures (Kelvin)      0.08466     0.00789     0.00738
 Rotational constants (GHZ):           1.76411     0.16437     0.15387
 Zero-point vibrational energy     620709.1 (Joules/Mol)
                                  148.35302 (Kcal/Mol)
 Warning -- explicit consideration of  24 degrees of freedom as
           vibrations may cause significant error
 Vibrational temperatures:      8.12    25.81    53.29    63.68    85.61
          (Kelvin)            109.66   123.08   133.19   169.48   202.50
                              244.49   285.81   356.95   375.01   399.01
                              425.45   447.22   493.47   526.90   556.09
                              650.77   737.69   796.05   882.53   977.91
                             1079.28  1126.76  1194.54  1228.26  1236.90
                             1327.23  1384.55  1467.35  1499.04  1523.04
                             1530.72  1540.50  1545.72  1593.46  1615.67
                             1676.00  1680.30  1710.68  1753.43  1772.36
                             1777.19  1833.86  1843.07  1875.62  1883.47
                             1921.26  1942.03  2021.61  2051.16  2053.49
                             2083.98  2118.81  2127.27  2134.98  2137.16
                             2152.44  2164.76  2168.61  2181.35  2638.42
                             4096.91  4132.49  4196.65  4210.36  4346.08
                             4349.41  4353.60  4386.74  4400.52  4403.37
                             4425.35  4426.84  4430.50  4445.87  4465.89
                             4511.62

 Zero-point correction=                           0.236416 (Hartree/Particle)
 Thermal correction to Energy=                    0.253577
 Thermal correction to Enthalpy=                  0.254521
 Thermal correction to Gibbs Free Energy=         0.185976
 Sum of electronic and zero-point Energies=          -1258.996786
 Sum of electronic and thermal Energies=             -1258.979625
 Sum of electronic and thermal Enthalpies=           -1258.978681
 Sum of electronic and thermal Free Energies=        -1259.047226

                     E (Thermal)             CV                S
                      KCal/Mol        Cal/Mol-Kelvin    Cal/Mol-Kelvin
 Total                  159.122             57.706            144.265
 Electronic               0.000              0.000              0.000
 Translational            0.889              2.981             42.083
 Rotational               0.889              2.981             33.243
 Vibrational            157.344             51.744             68.939
 Vibration     1          0.593              1.987              9.147
 Vibration     2          0.593              1.986              6.850
 Vibration     3          0.594              1.982              5.412
 Vibration     4          0.595              1.980              5.059
 Vibration     5          0.597              1.974              4.474
 Vibration     6          0.599              1.965              3.986
 Vibration     7          0.601              1.959              3.759
 Vibration     8          0.602              1.954              3.605
 Vibration     9          0.608              1.935              3.136
 Vibration    10          0.615              1.913              2.794
 Vibration    11          0.625              1.879              2.436
 Vibration    12          0.637              1.842              2.146
 Vibration    13          0.662              1.766              1.744
 Vibration    14          0.669              1.745              1.657
 Vibration    15          0.678              1.715              1.550
 Vibration    16          0.690              1.682              1.441
 Vibration    17          0.700              1.653              1.358
 Vibration    18          0.722              1.590              1.198
 Vibration    19          0.739              1.542              1.096
 Vibration    20          0.755              1.499              1.014
 Vibration    21          0.811              1.356              0.789
 Vibration    22          0.868              1.222              0.627
 Vibration    23          0.909              1.133              0.537
 Vibration    24          0.973              1.004              0.427

                           ! Non-Optimized Parameters !
 Normal termination of Gaussian 16 at Wed May 24 01:41:45 2023.
