 Gaussian 16, Revision A.03,
 Gaussian 16:  ES64L-G16RevA.03 25-Dec-2016

 -----------------------------
 # opt freq b3lyp/6-31g(2df,p)
 -----------------------------

 -------------------
 Title Card Required
 -------------------
 Symbolic Z-matrix:
 Charge =  0 Multiplicity = 1

 SCF Done:  E(RB3LYP) =  -632.613164968     A.U. after   12 cycles
 SCF Done:  E(RB3LYP) =  -632.616095372     A.U. after   11 cycles
 SCF Done:  E(RB3LYP) =  -632.618761511     A.U. after   11 cycles
 SCF Done:  E(RB3LYP) =  -632.620710174     A.U. after   10 cycles
 SCF Done:  E(RB3LYP) =  -632.621155592     A.U. after   10 cycles
 SCF Done:  E(RB3LYP) =  -632.622307268     A.U. after   10 cycles
 SCF Done:  E(RB3LYP) =  -632.623331128     A.U. after   10 cycles
 SCF Done:  E(RB3LYP) =  -632.626019436     A.U. after   11 cycles
 SCF Done:  E(RB3LYP) =  -632.628102788     A.U. after   11 cycles
 SCF Done:  E(RB3LYP) =  -632.629727892     A.U. after   11 cycles
 SCF Done:  E(RB3LYP) =  -632.632303326     A.U. after   10 cycles
 SCF Done:  E(RB3LYP) =  -632.632339298     A.U. after    9 cycles
 SCF Done:  E(RB3LYP) =  -632.632350600     A.U. after    9 cycles
 SCF Done:  E(RB3LYP) =  -632.632360246     A.U. after    9 cycles
 SCF Done:  E(RB3LYP) =  -632.632362102     A.U. after    7 cycles
 SCF Done:  E(RB3LYP) =  -632.632363143     A.U. after    7 cycles
 SCF Done:  E(RB3LYP) =  -632.632363362     A.U. after    6 cycles
 SCF Done:  E(RB3LYP) =  -632.632363457     A.U. after    6 cycles
 SCF Done:  E(RB3LYP) =  -632.632363487     A.U. after    6 cycles
 Optimization completed.
    -- Stationary point found.
 Normal termination of Gaussian 16 at Tue May 23 23:57:05 2023.

 ----------------------------------------------------------------------
 #N Geom=AllCheck Guess=TCheck SCRF=Check GenChk RB3LYP/6-31G(2df,p) Fr
 eq
 ----------------------------------------------------------------------

 Structure from the checkpoint file:  "CNqCCOrCqOrCqCrqOrCO.chk"
 -------------------
 Title Card Required
 -------------------
 Charge =  0 Multiplicity = 1

                         Standard orientation:
 ---------------------------------------------------------------------
 Center     Atomic      Atomic             Coordinates (Angstroms)
 Number     Number       Type             X           Y           Z
 ---------------------------------------------------------------------
      1          6           0       -1.681376    2.144909   -0.371444
      2          7           0       -0.999624    0.909780    0.027096
      3          6           0       -1.735449   -0.266393   -0.450355
      4          6           0       -2.910144   -0.618279    0.470932
      5          8           0       -3.590340   -1.781629    0.027831
      6          6           0        0.426252    0.991811   -0.277578
      7          8           0        0.968204    2.081778    0.461035
      8          6           0        1.269051   -0.277150    0.019803
      9          6           0        1.017958   -0.849301    1.423532
     10          8           0        0.985845   -1.249128   -0.981259
     11          6           0        2.763821    0.106123   -0.143430
     12          8           0        3.555455   -1.070663   -0.317077
     13          1           0       -2.697507    2.157001    0.029228
     14          1           0       -1.746224    2.246119   -1.470296
     15          1           0       -1.147418    3.011143    0.018388
     16          1           0       -1.077717   -1.129903   -0.507408
     17          1           0       -2.118539   -0.102051   -1.476220
     18          1           0       -3.603335    0.229737    0.578911
     19          1           0       -2.530181   -0.849361    1.471201
     20          1           0       -3.951696   -1.596175   -0.844901
     21          1           0        0.609459    1.248274   -1.335904
     22          1           0        0.588441    2.007586    1.346040
     23          1           0        0.000632   -1.228451    1.524422
     24          1           0        1.184179   -0.094267    2.199109
     25          1           0        1.700294   -1.684633    1.617112
     26          1           0        1.804891   -1.758362   -1.076405
     27          1           0        3.115911    0.710704    0.696089
     28          1           0        2.891889    0.686636   -1.061166
     29          1           0        3.720306   -1.455643    0.549131
 ---------------------------------------------------------------------

 SCF Done:  E(RB3LYP) =  -632.632363487     A.U. after    1 cycles

 The electronic state is 1-A.
 Alpha  occ. eigenvalues --  -19.15711 -19.14282 -19.13046 -19.13039 -14.32617
 Alpha  occ. eigenvalues --  -10.25650 -10.23815 -10.23004 -10.21999 -10.19786
 Alpha  occ. eigenvalues --  -10.19534 -10.18057  -1.04529  -1.03285  -1.01135
 Alpha  occ. eigenvalues --   -1.00724  -0.90813  -0.77417  -0.73094  -0.69760
 Alpha  occ. eigenvalues --   -0.68936  -0.64046  -0.60163  -0.56961  -0.52996
 Alpha  occ. eigenvalues --   -0.51010  -0.49514  -0.49071  -0.48164  -0.47044
 Alpha  occ. eigenvalues --   -0.44987  -0.44585  -0.42006  -0.41046  -0.40081
 Alpha  occ. eigenvalues --   -0.39703  -0.38807  -0.38729  -0.36930  -0.36431
 Alpha  occ. eigenvalues --   -0.34445  -0.33898  -0.32842  -0.31572  -0.30607
 Alpha  occ. eigenvalues --   -0.27590  -0.26396  -0.26153  -0.22089
 Alpha virt. eigenvalues --    0.05090   0.07582   0.07821   0.09919   0.11319
 Alpha virt. eigenvalues --    0.11600   0.12397   0.13783   0.14844   0.15358
 Alpha virt. eigenvalues --    0.16210   0.17000   0.17462   0.18282   0.18992

 Mulliken charges:
               1
     1  C   -0.333943
     2  N   -0.116154
     3  C   -0.182612
     4  C   -0.064036
     5  O   -0.414269
     6  C    0.147106
     7  O   -0.429882
     8  C    0.266953
     9  C   -0.433577
    10  O   -0.464571
    11  C   -0.099877
    12  O   -0.431357
    13  H    0.117863
    14  H    0.097708
    15  H    0.133107
    16  H    0.157659
    17  H    0.064656
    18  H    0.083378
    19  H    0.112736
    20  H    0.282164
    21  H    0.077196
    22  H    0.276332
    23  H    0.142895
    24  H    0.105874
    25  H    0.096706
    26  H    0.285425
    27  H    0.109920
    28  H    0.119717
    29  H    0.292886
 Sum of Mulliken charges =  -0.00000

 Dipole moment (field-independent basis, Debye):
    X=              0.4965    Y=              0.7317    Z=              1.1334  Tot=              1.4375
 Quadrupole moment (field-independent basis, Debye-Ang):
   XX=            -72.4049   YY=            -77.9663   ZZ=            -70.4681
   XY=             -8.1055   XZ=              9.4708   YZ=              0.2252

  Exact polarizability: 114.257  -1.691  98.525   3.358  -0.845  89.993
 Approx polarizability: 142.666   0.110 141.227   4.039   2.554 140.305

                      1                      2                      3
                      A                      A                      A
 Frequencies --     47.6808                65.2901                71.0855
 Red. masses --      3.8193                 2.6094                 3.5205
 Frc consts  --      0.0051                 0.0066                 0.0105
 IR Inten    --      2.3202                 3.7695                 1.2411

                      4                      5                      6
                      A                      A                      A
 Frequencies --    104.6733               127.0436               159.4279
 Red. masses --      3.5361                 2.6407                 2.8340
 Frc consts  --      0.0228                 0.0251                 0.0424
 IR Inten    --      0.7757                 1.2474                 2.6962

                      7                      8                      9
                      A                      A                      A
 Frequencies --    182.1983               200.7750               221.9548
 Red. masses --      1.4650                 2.2503                 1.0907
 Frc consts  --      0.0287                 0.0534                 0.0317
 IR Inten    --      0.2981                 2.2294                 0.5601

                     10                     11                     12
                      A                      A                      A
 Frequencies --    261.2611               281.2944               291.0490
 Red. masses --      2.4955                 3.2649                 1.3683
 Frc consts  --      0.1004                 0.1522                 0.0683
 IR Inten    --      3.8116                15.9122                83.1913

                     13                     14                     15
                      A                      A                      A
 Frequencies --    321.5649               329.2639               342.0647
 Red. masses --      1.7607                 1.6385                 4.9837
 Frc consts  --      0.1073                 0.1047                 0.3436
 IR Inten    --     89.4595                19.0418                13.2097

                     16                     17                     18
                      A                      A                      A
 Frequencies --    362.6903               377.9877               395.7660
 Red. masses --      2.6740                 3.1731                 2.7377
 Frc consts  --      0.2072                 0.2671                 0.2527
 IR Inten    --      3.5974                 3.2986                 6.9893

                     19                     20                     21
                      A                      A                      A
 Frequencies --    419.2061               438.2698               448.8051
 Red. masses --      2.2637                 1.7430                 2.5912
 Frc consts  --      0.2344                 0.1973                 0.3075
 IR Inten    --     14.0204                72.6801                16.5052

                     22                     23                     24
                      A                      A                      A
 Frequencies --    511.9964               576.2992               615.3409
 Red. masses --      3.2376                 1.1521                 3.1287
 Frc consts  --      0.5000                 0.2254                 0.6980
 IR Inten    --      8.0418               105.9866                25.7740

                     25                     26                     27
                      A                      A                      A
 Frequencies --    681.4530               778.2417               795.9738
 Red. masses --      2.8640                 3.5921                 1.1470
 Frc consts  --      0.7836                 1.2818                 0.4282
 IR Inten    --     21.4454                 2.3752                 1.4579

                     28                     29                     30
                      A                      A                      A
 Frequencies --    862.7996               910.8667               952.0351
 Red. masses --      3.6915                 1.7225                 2.2737
 Frc consts  --      1.6191                 0.8420                 1.2142
 IR Inten    --     43.0990                14.4720                21.7506

                     31                     32                     33
                      A                      A                      A
 Frequencies --    964.8848              1019.5441              1037.7155
 Red. masses --      1.9408                 3.1080                 2.8369
 Frc consts  --      1.0646                 1.9035                 1.7999
 IR Inten    --     18.7332                57.3386               153.1369

                     34                     35                     36
                      A                      A                      A
 Frequencies --   1050.6309              1067.0224              1077.1152
 Red. masses --      2.9360                 3.7640                 1.8709
 Frc consts  --      1.9094                 2.5249                 1.2789
 IR Inten    --      2.5014                99.8100                 9.4102

                     37                     38                     39
                      A                      A                      A
 Frequencies --   1082.3002              1108.5393              1131.5460
 Red. masses --      3.5173                 2.0362                 1.5267
 Frc consts  --      2.4275                 1.4742                 1.1517
 IR Inten    --     75.0522                15.2485                24.8769

                     40                     41                     42
                      A                      A                      A
 Frequencies --   1145.2084              1153.1954              1199.7925
 Red. masses --      1.5132                 1.5908                 2.7061
 Frc consts  --      1.1693                 1.2464                 2.2951
 IR Inten    --     23.6357                44.0878                32.0517

                     43                     44                     45
                      A                      A                      A
 Frequencies --   1226.1621              1271.5252              1280.2355
 Red. masses --      1.6431                 2.0002                 2.3983
 Frc consts  --      1.4555                 1.9053                 2.3160
 IR Inten    --      5.9379                 4.4447                15.2035

                     46                     47                     48
                      A                      A                      A
 Frequencies --   1283.8068              1335.3894              1357.9202
 Red. masses --      1.4451                 1.1213                 1.2520
 Frc consts  --      1.4033                 1.1781                 1.3602
 IR Inten    --     26.6908                16.5445                55.7976

                     49                     50                     51
                      A                      A                      A
 Frequencies --   1362.7517              1365.1090              1392.8613
 Red. masses --      1.3087                 1.3311                 1.2127
 Frc consts  --      1.4320                 1.4615                 1.3862
 IR Inten    --      2.1183                32.4703                95.1207

                     52                     53                     54
                      A                      A                      A
 Frequencies --   1397.4862              1403.1330              1416.4319
 Red. masses --      1.2315                 1.2221                 1.3228
 Frc consts  --      1.4170                 1.4177                 1.5637
 IR Inten    --     30.4448                 3.9624                30.1632

                     55                     56                     57
                      A                      A                      A
 Frequencies --   1418.5966              1431.1036              1458.6469
 Red. masses --      1.3621                 1.3303                 1.1882
 Frc consts  --      1.6150                 1.6053                 1.4895
 IR Inten    --     11.4111                23.0188                 6.5239

                     58                     59                     60
                      A                      A                      A
 Frequencies --   1483.8629              1489.4908              1495.9515
 Red. masses --      1.0846                 1.0671                 1.0614
 Frc consts  --      1.4070                 1.3949                 1.3995
 IR Inten    --      3.7493                 1.6466                18.9245

                     61                     62                     63
                      A                      A                      A
 Frequencies --   1497.7422              1506.9872              1508.8127
 Red. masses --      1.0747                 1.0612                 1.0827
 Frc consts  --      1.4205                 1.4199                 1.4522
 IR Inten    --      1.0284                 4.8269                 0.4123

                     64                     65                     66
                      A                      A                      A
 Frequencies --   1524.4412              2914.0584              2942.3122
 Red. masses --      1.0919                 1.0737                 1.0638
 Frc consts  --      1.4951                 5.3718                 5.4263
 IR Inten    --      3.8414                58.5244                47.5816

                     67                     68                     69
                      A                      A                      A
 Frequencies --   2951.9924              2986.7533              3034.5438
 Red. masses --      1.0797                 1.0696                 1.0400
 Frc consts  --      5.5437                 5.6216                 5.6426
 IR Inten    --     91.1519                57.2783                21.7623

                     70                     71                     72
                      A                      A                      A
 Frequencies --   3060.1821              3077.1486              3093.1226
 Red. masses --      1.0572                 1.0923                 1.0992
 Frc consts  --      5.8331                 6.0941                 6.1961
 IR Inten    --     20.2806                34.1478                38.2408

                     73                     74                     75
                      A                      A                      A
 Frequencies --   3093.7378              3114.7316              3144.4055
 Red. masses --      1.0738                 1.1094                 1.0969
 Frc consts  --      6.0554                 6.3412                 6.3897
 IR Inten    --     30.7521                23.2418                14.4300

                     76                     77                     78
                      A                      A                      A
 Frequencies --   3149.4302              3169.5995              3706.9140
 Red. masses --      1.0995                 1.0870                 1.0648
 Frc consts  --      6.4256                 6.4340                 8.6205
 IR Inten    --     11.3613                 7.7706                88.8847

                     79                     80                     81
                      A                      A                      A
 Frequencies --   3772.5712              3813.3999              3827.2793
 Red. masses --      1.0647                 1.0660                 1.0663
 Frc consts  --      8.9282                 9.1338                 9.2022
 IR Inten    --     15.4252                15.8222                25.5046

 - Thermochemistry -
 -------------------
 Temperature   298.150 Kelvin.  Pressure   1.00000 Atm.
 Atom     1 has atomic number  6 and mass  12.00000

 Molecular mass:   179.11576 amu.
 Principal axes and moments of inertia in atomic units:
                           1         2         3
     Eigenvalues --  1334.734273287.114234072.71329
           X            0.99980  -0.01704   0.01084
           Y            0.01729   0.99958  -0.02344
           Z           -0.01044   0.02362   0.99967
 This molecule is an asymmetric top.
 Rotational symmetry number  1.
 Warning -- assumption of classical behavior for rotation
           may cause significant error
 Rotational temperatures (Kelvin)      0.06489     0.02635     0.02127
 Rotational constants (GHZ):           1.35214     0.54904     0.44313
 Zero-point vibrational energy     663523.6 (Joules/Mol)
                                  158.58595 (Kcal/Mol)
 Warning -- explicit consideration of  24 degrees of freedom as
           vibrations may cause significant error
 Vibrational temperatures:     68.60    93.94   102.28   150.60   182.79
          (Kelvin)            229.38   262.14   288.87   319.34   375.90
                              404.72   418.75   462.66   473.74   492.15
                              521.83   543.84   569.42   603.14   630.57
                              645.73   736.65   829.17   885.34   980.46
                             1119.72  1145.23  1241.38  1310.53  1369.77
                             1388.25  1466.90  1493.04  1511.62  1535.21
                             1549.73  1557.19  1594.94  1628.04  1647.70
                             1659.19  1726.23  1764.17  1829.44  1841.97
                             1847.11  1921.33  1953.74  1960.70  1964.09
                             2004.02  2010.67  2018.80  2037.93  2041.04
                             2059.04  2098.67  2134.95  2143.04  2152.34
                             2154.92  2168.22  2170.84  2193.33  4192.68
                             4233.33  4247.26  4297.27  4366.03  4402.92
                             4427.33  4450.31  4451.20  4481.40  4524.10
                             4531.33  4560.35  5333.42  5427.89  5486.63
                             5506.60

 Zero-point correction=                           0.252723 (Hartree/Particle)
 Thermal correction to Energy=                    0.267499
 Thermal correction to Enthalpy=                  0.268443
 Thermal correction to Gibbs Free Energy=         0.211735
 Sum of electronic and zero-point Energies=           -632.379641
 Sum of electronic and thermal Energies=              -632.364864
 Sum of electronic and thermal Enthalpies=            -632.363920
 Sum of electronic and thermal Free Energies=         -632.420628

                     E (Thermal)             CV                S
                      KCal/Mol        Cal/Mol-Kelvin    Cal/Mol-Kelvin
 Total                  167.858             54.784            119.352
 Electronic               0.000              0.000              0.000
 Translational            0.889              2.981             41.455
 Rotational               0.889              2.981             31.258
 Vibrational            166.081             48.823             46.638
 Vibration     1          0.595              1.978              4.911
 Vibration     2          0.597              1.971              4.291
 Vibration     3          0.598              1.968              4.123
 Vibration     4          0.605              1.945              3.365
 Vibration     5          0.611              1.926              2.990
 Vibration     6          0.621              1.892              2.557
 Vibration     7          0.630              1.864              2.306
 Vibration     8          0.638              1.839              2.126
 Vibration     9          0.648              1.808              1.943
 Vibration    10          0.669              1.744              1.653
 Vibration    11          0.681              1.708              1.526
 Vibration    12          0.687              1.690              1.468
 Vibration    13          0.707              1.632              1.302
 Vibration    14          0.712              1.617              1.264
 Vibration    15          0.721              1.591              1.203
 Vibration    16          0.737              1.549              1.111
 Vibration    17          0.748              1.517              1.047
 Vibration    18          0.762              1.479              0.978
 Vibration    19          0.782              1.429              0.895
 Vibration    20          0.798              1.387              0.832
 Vibration    21          0.808              1.364              0.799
 Vibration    22          0.867              1.223              0.629
 Vibration    23          0.933              1.083              0.492
 Vibration    24          0.975              0.999              0.424

 Optimization completed.
    -- Stationary point found.
 Normal termination of Gaussian 16 at Wed May 24 01:16:50 2023.
