 Gaussian 16, Revision A.03,
 Gaussian 16:  ES64L-G16RevA.03 25-Dec-2016

 -----------------------------
 # opt freq b3lyp/6-31g(2df,p)
 -----------------------------

 -------------------
 Title Card Required
 -------------------
 Symbolic Z-matrix:
 Charge =  0 Multiplicity = 1

 SCF Done:  E(RB3LYP) =  -1123.75433304     A.U. after   15 cycles
 SCF Done:  E(RB3LYP) =  -1123.76805509     A.U. after   15 cycles
 SCF Done:  E(RB3LYP) =  -1123.77141350     A.U. after   14 cycles
 SCF Done:  E(RB3LYP) =  -1123.77339090     A.U. after   13 cycles
 SCF Done:  E(RB3LYP) =  -1123.77648440     A.U. after   14 cycles
 SCF Done:  E(RB3LYP) =  -1123.77890543     A.U. after   14 cycles
 SCF Done:  E(RB3LYP) =  -1123.77990346     A.U. after   11 cycles
 SCF Done:  E(RB3LYP) =  -1123.78051030     A.U. after   12 cycles
 SCF Done:  E(RB3LYP) =  -1123.78068585     A.U. after   12 cycles
 SCF Done:  E(RB3LYP) =  -1123.78084225     A.U. after   13 cycles
 SCF Done:  E(RB3LYP) =  -1123.78727566     A.U. after    8 cycles
 SCF Done:  E(RB3LYP) =  -1123.78727579     A.U. after    8 cycles
 SCF Done:  E(RB3LYP) =  -1123.78727587     A.U. after    7 cycles
 SCF Done:  E(RB3LYP) =  -1123.78727595     A.U. after    7 cycles
 SCF Done:  E(RB3LYP) =  -1123.78727605     A.U. after    8 cycles
 SCF Done:  E(RB3LYP) =  -1123.78727612     A.U. after    8 cycles
 SCF Done:  E(RB3LYP) =  -1123.78727617     A.U. after    8 cycles
 SCF Done:  E(RB3LYP) =  -1123.78727619     A.U. after    8 cycles
 SCF Done:  E(RB3LYP) =  -1123.78727618     A.U. after    7 cycles
 Optimization completed.
    -- Stationary point found.
 Normal termination of Gaussian 16 at Sun May 28 23:18:00 2023.

 ----------------------------------------------------------------------
 #N Geom=AllCheck Guess=TCheck SCRF=Check GenChk RB3LYP/6-31G(2df,p) Fr
 eq
 ----------------------------------------------------------------------

 Structure from the checkpoint file:  "CNqCCCCCCSCqNrCOrNNdO.chk"
 -------------------
 Title Card Required
 -------------------
 Charge =  0 Multiplicity = 1

                         Standard orientation:
 ---------------------------------------------------------------------
 Center     Atomic      Atomic             Coordinates (Angstroms)
 Number     Number       Type             X           Y           Z
 ---------------------------------------------------------------------
      1          6           0        5.276738    1.953177   -0.062562
      2          7           0        5.040703    0.529044    0.164999
      3          6           0        3.841818   -0.012213   -0.492058
      4          6           0        2.540864    0.510193    0.120900
      5          6           0        1.308504   -0.194467   -0.458774
      6          6           0       -0.009875    0.317313    0.132533
      7          6           0       -1.240643   -0.390234   -0.448609
      8          6           0       -2.549248    0.123183    0.156234
      9         16           0       -3.980063   -0.748558   -0.583326
     10          6           0       -5.367169    0.056153    0.344958
     11          7           0       -5.628673    1.453594    0.034356
     12          6           0       -6.650609   -0.745208    0.079444
     13          8           0       -7.731167   -0.188391    0.791448
     14          7           0        6.163688   -0.212644   -0.150562
     15          7           0        6.808349   -0.878434    0.812710
     16          8           0        7.788423   -1.474253    0.403856
     17          1           0        4.426448    2.526532    0.311578
     18          1           0        5.418247    2.198040   -1.130344
     19          1           0        6.167101    2.256905    0.490848
     20          1           0        3.888174   -1.097884   -0.368524
     21          1           0        3.854766    0.193770   -1.579420
     22          1           0        2.445241    1.589713   -0.047695
     23          1           0        2.584570    0.362982    1.206552
     24          1           0        1.389791   -1.275320   -0.281778
     25          1           0        1.290787   -0.065481   -1.549684
     26          1           0       -0.092508    1.398691   -0.043743
     27          1           0        0.006683    0.186501    1.223008
     28          1           0       -1.161410   -1.470225   -0.274788
     29          1           0       -1.265052   -0.252594   -1.536727
     30          1           0       -2.651631    1.198601   -0.025913
     31          1           0       -2.558939   -0.041040    1.239344
     32          1           0       -5.132539   -0.009304    1.411752
     33          1           0       -5.619232    1.598075   -0.971850
     34          1           0       -4.927381    2.065447    0.435381
     35          1           0       -6.523382   -1.778653    0.412427
     36          1           0       -6.843329   -0.764743   -1.007754
     37          1           0       -7.628865    0.768976    0.690948
     38          1           0        6.564665   -0.259205   -1.095756
 ---------------------------------------------------------------------

 SCF Done:  E(RB3LYP) =  -1123.78727618     A.U. after    1 cycles

 The electronic state is 1-A.
 Alpha  occ. eigenvalues --  -88.86537 -19.15183 -19.12476 -14.45030 -14.41048
 Alpha  occ. eigenvalues --  -14.37954 -14.33734 -10.24613 -10.22780 -10.22571
 Alpha  occ. eigenvalues --  -10.22286 -10.22025 -10.19696 -10.19664 -10.19556
 Alpha  occ. eigenvalues --  -10.19508  -7.92918  -5.89375  -5.89058  -5.88456
 Alpha  occ. eigenvalues --   -1.14938  -1.01849  -1.01268  -0.90651  -0.86848
 Alpha  occ. eigenvalues --   -0.82573  -0.79654  -0.75966  -0.73047  -0.70796
 Alpha  occ. eigenvalues --   -0.68081  -0.64917  -0.62681  -0.60266  -0.59417
 Alpha  occ. eigenvalues --   -0.58860  -0.53950  -0.52969  -0.50852  -0.50076
 Alpha  occ. eigenvalues --   -0.49376  -0.47617  -0.47476  -0.46462  -0.44714
 Alpha  occ. eigenvalues --   -0.44694  -0.44049  -0.42459  -0.42045  -0.41592
 Alpha  occ. eigenvalues --   -0.40393  -0.39963  -0.38995  -0.38775  -0.38008
 Alpha  occ. eigenvalues --   -0.36776  -0.35073  -0.34649  -0.34482  -0.33869
 Alpha  occ. eigenvalues --   -0.32570  -0.31492  -0.27386  -0.27345  -0.25815
 Alpha  occ. eigenvalues --   -0.25519  -0.22746  -0.22599
 Alpha virt. eigenvalues --   -0.03344   0.02917   0.05277   0.06982   0.07307
 Alpha virt. eigenvalues --    0.08034   0.09250   0.09546   0.10275   0.11042
 Alpha virt. eigenvalues --    0.11780   0.12512   0.13529   0.13674   0.13995

 Mulliken charges:
               1
     1  C   -0.321392
     2  N   -0.045229
     3  C   -0.125300
     4  C   -0.207547
     5  C   -0.183240
     6  C   -0.193465
     7  C   -0.188964
     8  C   -0.196437
     9  S   -0.183539
    10  C    0.001949
    11  N   -0.516229
    12  C   -0.052601
    13  O   -0.426510
    14  N   -0.147471
    15  N    0.121707
    16  O   -0.316874
    17  H    0.138282
    18  H    0.101953
    19  H    0.143910
    20  H    0.122424
    21  H    0.082834
    22  H    0.099225
    23  H    0.116888
    24  H    0.103734
    25  H    0.098846
    26  H    0.094564
    27  H    0.100681
    28  H    0.118074
    29  H    0.114022
    30  H    0.107481
    31  H    0.121393
    32  H    0.115592
    33  H    0.242634
    34  H    0.240947
    35  H    0.123241
    36  H    0.090261
    37  H    0.285176
    38  H    0.218979
 Sum of Mulliken charges =  -0.00000

 Dipole moment (field-independent basis, Debye):
    X=             -0.3960    Y=              4.5406    Z=             -2.2183  Tot=              5.0690
 Quadrupole moment (field-independent basis, Debye-Ang):
   XX=           -167.8536   YY=           -104.0299   ZZ=           -106.8523
   XY=              7.0033   XZ=            -10.1462   YZ=              0.6229

  Exact polarizability: 225.028 -11.233 141.107   0.332   0.125 126.211
 Approx polarizability: 256.939 -24.138 222.134   1.894  -0.994 207.796

                      1                      2                      3
                      A                      A                      A
 Frequencies --     14.3876                15.9212                24.7436
 Red. masses --      6.8715                 5.8131                 4.1672
 Frc consts  --      0.0008                 0.0009                 0.0015
 IR Inten    --      1.0714                 1.0227                 0.7543

                      4                      5                      6
                      A                      A                      A
 Frequencies --     31.1218                41.2549                53.3559
 Red. masses --      4.9801                 4.0515                 2.1627
 Frc consts  --      0.0028                 0.0041                 0.0036
 IR Inten    --      0.6337                 1.0706                 0.7085

                      7                      8                      9
                      A                      A                      A
 Frequencies --     80.8966                88.1568               100.3233
 Red. masses --      4.2990                 3.1811                 2.1545
 Frc consts  --      0.0166                 0.0146                 0.0128
 IR Inten    --      1.0171                 0.3287                 0.8269

                     10                     11                     12
                      A                      A                      A
 Frequencies --    131.7954               139.5824               147.1299
 Red. masses --      4.3629                 3.0154                 2.3672
 Frc consts  --      0.0447                 0.0346                 0.0302
 IR Inten    --      2.6014                 7.7065                 0.7499

                     13                     14                     15
                      A                      A                      A
 Frequencies --    152.5494               175.0561               192.7288
 Red. masses --      2.1395                 4.1318                 1.9489
 Frc consts  --      0.0293                 0.0746                 0.0427
 IR Inten    --      0.4178                 2.5683                 5.3229

                     16                     17                     18
                      A                      A                      A
 Frequencies --    209.4382               251.1496               271.7554
 Red. masses --      2.0723                 2.6666                 2.9162
 Frc consts  --      0.0536                 0.0991                 0.1269
 IR Inten    --      5.7381                 2.2066                 1.3165

                     19                     20                     21
                      A                      A                      A
 Frequencies --    295.1848               310.1825               331.3323
 Red. masses --      2.1862                 1.4181                 4.0262
 Frc consts  --      0.1122                 0.0804                 0.2604
 IR Inten    --      2.7055                 4.8630                 2.6255

                     22                     23                     24
                      A                      A                      A
 Frequencies --    352.9137               404.2216               413.3860
 Red. masses --      3.2906                 3.4895                 4.8234
 Frc consts  --      0.2415                 0.3359                 0.4856
 IR Inten    --      9.0093                 6.6804                 6.2702

                     25                     26                     27
                      A                      A                      A
 Frequencies --    462.7190               468.8786               488.5740
 Red. masses --      2.9282                 3.7194                 2.4987
 Frc consts  --      0.3694                 0.4818                 0.3514
 IR Inten    --      4.5063                 7.8023                12.8868

                     28                     29                     30
                      A                      A                      A
 Frequencies --    518.7655               537.3589               586.6546
 Red. masses --      3.8437                 1.2256                 1.3705
 Frc consts  --      0.6095                 0.2085                 0.2779
 IR Inten    --      4.2123               125.9680                67.3095

                     31                     32                     33
                      A                      A                      A
 Frequencies --    657.7252               735.9984               741.9394
 Red. masses --      4.1067                 1.0928                 3.2493
 Frc consts  --      1.0467                 0.3488                 1.0538
 IR Inten    --      3.9437                 6.6579                10.1012

                     34                     35                     36
                      A                      A                      A
 Frequencies --    751.6262               761.4577               795.0322
 Red. masses --      1.1312                 5.3862                 1.1876
 Frc consts  --      0.3765                 1.8400                 0.4423
 IR Inten    --      0.7357                 4.8303                 1.5944

                     37                     38                     39
                      A                      A                      A
 Frequencies --    865.5371               875.6877               895.8493
 Red. masses --      2.0700                 1.3419                 1.8212
 Frc consts  --      0.9137                 0.6063                 0.8612
 IR Inten    --    272.9314                 6.8031                44.9633

                     40                     41                     42
                      A                      A                      A
 Frequencies --    913.4478               981.6683               993.7790
 Red. masses --      3.6073                 1.2926                 1.6777
 Frc consts  --      1.7734                 0.7339                 0.9762
 IR Inten    --     26.7653                 1.3357                 9.2393

                     43                     44                     45
                      A                      A                      A
 Frequencies --   1009.0211              1022.7736              1055.2242
 Red. masses --      3.3710                 3.6995                 2.6156
 Frc consts  --      2.0221                 2.2801                 1.7160
 IR Inten    --      3.5963                 0.2022                12.2523

                     46                     47                     48
                      A                      A                      A
 Frequencies --   1064.3933              1068.4519              1077.3292
 Red. masses --      2.3018                 2.0002                 1.2164
 Frc consts  --      1.5365                 1.3454                 0.8318
 IR Inten    --     10.1906                22.4945                 1.4077

                     49                     50                     51
                      A                      A                      A
 Frequencies --   1085.7920              1091.5903              1124.7014
 Red. masses --      3.8898                 4.1069                 2.2089
 Frc consts  --      2.7019                 2.8833                 1.6463
 IR Inten    --    141.5711                19.0319                38.9430

                     52                     53                     54
                      A                      A                      A
 Frequencies --   1125.7974              1145.2736              1171.1945
 Red. masses --      1.7273                 2.1229                 2.1901
 Frc consts  --      1.2899                 1.6406                 1.7700
 IR Inten    --     44.5641                57.1914                84.4115

                     55                     56                     57
                      A                      A                      A
 Frequencies --   1175.0638              1206.6068              1216.6994
 Red. masses --      1.5089                 1.3820                 1.7572
 Frc consts  --      1.2275                 1.1855                 1.5327
 IR Inten    --     15.2721                70.6349                 0.6136

                     58                     59                     60
                      A                      A                      A
 Frequencies --   1233.4153              1251.4231              1268.8468
 Red. masses --      1.3701                 1.7004                 1.8418
 Frc consts  --      1.2281                 1.5690                 1.7471
 IR Inten    --      2.4954                 7.9703                 4.2229

                     61                     62                     63
                      A                      A                      A
 Frequencies --   1279.5607              1282.8545              1305.1995
 Red. masses --      1.3792                 1.3308                 1.2643
 Frc consts  --      1.3305                 1.2904                 1.2690
 IR Inten    --      8.1260                14.0735                 6.6050

                     64                     65                     66
                      A                      A                      A
 Frequencies --   1325.7289              1331.6541              1337.0590
 Red. masses --      1.0613                 1.2057                 1.1339
 Frc consts  --      1.0989                 1.2597                 1.1943
 IR Inten    --      5.2449                 1.0620                 6.0165

                     67                     68                     69
                      A                      A                      A
 Frequencies --   1338.9862              1367.7208              1381.1061
 Red. masses --      1.2062                 1.2187                 1.4262
 Frc consts  --      1.2741                 1.3432                 1.6028
 IR Inten    --      1.4856                23.0773                 0.5020

                     70                     71                     72
                      A                      A                      A
 Frequencies --   1400.9761              1406.6608              1409.4650
 Red. masses --      1.5815                 1.5096                 1.2553
 Frc consts  --      1.8289                 1.7599                 1.4693
 IR Inten    --      0.0678                17.8594                 4.3700

                     73                     74                     75
                      A                      A                      A
 Frequencies --   1432.9919              1446.4083              1467.7653
 Red. masses --      1.3786                 1.2603                 1.3238
 Frc consts  --      1.6679                 1.5535                 1.6803
 IR Inten    --      2.0830               117.6919                 4.3915

                     76                     77                     78
                      A                      A                      A
 Frequencies --   1481.3828              1484.4945              1486.3736
 Red. masses --      1.0863                 1.0716                 1.0688
 Frc consts  --      1.4046                 1.3913                 1.3913
 IR Inten    --      2.4563                 1.6122                 0.4172

                     79                     80                     81
                      A                      A                      A
 Frequencies --   1489.6406              1497.5677              1499.8551
 Red. masses --      1.0766                 1.1077                 1.0606
 Frc consts  --      1.4075                 1.4637                 1.4057
 IR Inten    --      3.8030                 4.3879                 3.8457

                     82                     83                     84
                      A                      A                      A
 Frequencies --   1507.5479              1511.8962              1516.5396
 Red. masses --      1.1081                 1.0890                 1.1045
 Frc consts  --      1.4838                 1.4667                 1.4966
 IR Inten    --      0.4324                 0.1926                 4.9274

                     85                     86                     87
                      A                      A                      A
 Frequencies --   1592.4646              1656.9163              2925.4456
 Red. masses --      8.2133                 1.0910                 1.0718
 Frc consts  --     12.2718                 1.7648                 5.4044
 IR Inten    --    199.2793                22.6135                46.7778

                     88                     89                     90
                      A                      A                      A
 Frequencies --   2951.5981              2953.7081              3004.9242
 Red. masses --      1.0720                 1.0585                 1.0577
 Frc consts  --      5.5024                 5.4408                 5.6269
 IR Inten    --     48.1083                65.9536                 0.7345

                     91                     92                     93
                      A                      A                      A
 Frequencies --   3011.1454              3022.7183              3028.3344
 Red. masses --      1.0589                 1.0561                 1.0707
 Frc consts  --      5.6569                 5.6855                 5.7855
 IR Inten    --     18.4519                 4.9576                11.3463

                     94                     95                     96
                      A                      A                      A
 Frequencies --   3030.1683              3033.5751              3047.0751
 Red. masses --      1.0810                 1.0647                 1.1014
 Frc consts  --      5.8482                 5.7730                 6.0248
 IR Inten    --      3.4817                69.9912                 7.4930

                     97                     98                     99
                      A                      A                      A
 Frequencies --   3061.6357              3066.8236              3071.7363
 Red. masses --      1.1040                 1.0850                 1.0986
 Frc consts  --      6.0970                 6.0127                 6.1073
 IR Inten    --      1.9544                13.7709                19.1078

                    100                    101                    102
                      A                      A                      A
 Frequencies --   3085.2547              3090.7606              3095.0318
 Red. masses --      1.1067                 1.0951                 1.0907
 Frc consts  --      6.2066                 6.1635                 6.1559
 IR Inten    --     37.5913                56.2488                19.6167

                    103                    104                    105
                      A                      A                      A
 Frequencies --   3098.6276              3143.6037              3335.7549
 Red. masses --      1.0739                 1.1039                 1.0730
 Frc consts  --      6.0750                 6.4276                 7.0348
 IR Inten    --     22.7818                18.0798                12.8570

                    106                    107                    108
                      A                      A                      A
 Frequencies --   3498.1989              3589.4409              3728.9917
 Red. masses --      1.0503                 1.0918                 1.0647
 Frc consts  --      7.5730                 8.2881                 8.7229
 IR Inten    --      1.9273                 3.7612                45.7379

 - Thermochemistry -
 -------------------
 Temperature   298.150 Kelvin.  Pressure   1.00000 Atm.
 Atom     1 has atomic number  6 and mass  12.00000

 Molecular mass:   250.14635 amu.
 Principal axes and moments of inertia in atomic units:
                           1         2         3
     Eigenvalues --   925.99653********************
           X            0.99999   0.00406  -0.00333
           Y           -0.00403   0.99995   0.00917
           Z            0.00336  -0.00916   0.99995
 This molecule is an asymmetric top.
 Rotational symmetry number  1.
 Warning -- assumption of classical behavior for rotation
           may cause significant error
 Rotational temperatures (Kelvin)      0.09354     0.00374     0.00367
 Rotational constants (GHZ):           1.94897     0.07794     0.07637
 Zero-point vibrational energy     859925.0 (Joules/Mol)
                                  205.52701 (Kcal/Mol)
 Warning -- explicit consideration of  30 degrees of freedom as
           vibrations may cause significant error
 Vibrational temperatures:     20.70    22.91    35.60    44.78    59.36
          (Kelvin)             76.77   116.39   126.84   144.34   189.62
                              200.83   211.69   219.48   251.87   277.29
                              301.33   361.35   391.00   424.71   446.28
                              476.71   507.76   581.58   594.77   665.75
                              674.61   702.95   746.39   773.14   844.07
                              946.32  1058.94  1067.49  1081.42  1095.57
                             1143.87  1245.31  1259.92  1288.93  1314.25
                             1412.40  1429.83  1451.76  1471.54  1518.23
                             1531.42  1537.26  1550.04  1562.21  1570.56
                             1618.19  1619.77  1647.79  1685.09  1690.65
                             1736.04  1750.56  1774.61  1800.52  1825.59
                             1841.00  1845.74  1877.89  1907.43  1915.95
                             1923.73  1926.50  1967.85  1987.10  2015.69
                             2023.87  2027.91  2061.76  2081.06  2111.79
                             2131.38  2135.86  2138.56  2143.26  2154.67
                             2157.96  2169.03  2175.28  2181.96  2291.20
                             2383.93  4209.06  4246.69  4249.73  4323.42
                             4332.37  4349.02  4357.10  4359.74  4364.64
                             4384.06  4405.01  4412.48  4419.54  4438.99
                             4446.92  4453.06  4458.23  4522.94  4799.41
                             5033.13  5164.40  5365.19

 Zero-point correction=                           0.327528 (Hartree/Particle)
 Thermal correction to Energy=                    0.348148
 Thermal correction to Enthalpy=                  0.349092
 Thermal correction to Gibbs Free Energy=         0.273045
 Sum of electronic and zero-point Energies=          -1123.459748
 Sum of electronic and thermal Energies=             -1123.439128
 Sum of electronic and thermal Enthalpies=           -1123.438184
 Sum of electronic and thermal Free Energies=        -1123.514232

                     E (Thermal)             CV                S
                      KCal/Mol        Cal/Mol-Kelvin    Cal/Mol-Kelvin
 Total                  218.466             71.824            160.056
 Electronic               0.000              0.000              0.000
 Translational            0.889              2.981             42.451
 Rotational               0.889              2.981             34.582
 Vibrational            216.689             65.862             83.024
 Vibration     1          0.593              1.986              7.288
 Vibration     2          0.593              1.986              7.087
 Vibration     3          0.593              1.985              6.212
 Vibration     4          0.594              1.983              5.757
 Vibration     5          0.594              1.981              5.198
 Vibration     6          0.596              1.976              4.689
 Vibration     7          0.600              1.962              3.869
 Vibration     8          0.601              1.958              3.701
 Vibration     9          0.604              1.949              3.448
 Vibration    10          0.612              1.922              2.920
 Vibration    11          0.615              1.914              2.810
 Vibration    12          0.617              1.906              2.709
 Vibration    13          0.619              1.900              2.640
 Vibration    14          0.627              1.873              2.380
 Vibration    15          0.635              1.850              2.201
 Vibration    16          0.642              1.826              2.049
 Vibration    17          0.663              1.761              1.722
 Vibration    18          0.675              1.725              1.585
 Vibration    19          0.689              1.683              1.444
 Vibration    20          0.699              1.654              1.361
 Vibration    21          0.714              1.613              1.254
 Vibration    22          0.729              1.569              1.153
 Vibration    23          0.769              1.461              0.947
 Vibration    24          0.777              1.441              0.915
 Vibration    25          0.820              1.333              0.758
 Vibration    26          0.826              1.319              0.741
 Vibration    27          0.844              1.275              0.687
 Vibration    28          0.874              1.208              0.613
 Vibration    29          0.892              1.167              0.571
 Vibration    30          0.944              1.060              0.473

 Optimization completed.
    -- Stationary point found.
 Normal termination of Gaussian 16 at Mon May 29 01:40:48 2023.
