 Gaussian 16, Revision A.03,
 Gaussian 16:  ES64L-G16RevA.03 25-Dec-2016

 -----------------------------
 # opt freq b3lyp/6-31g(2df,p)
 -----------------------------

 -------------------
 Title Card Required
 -------------------
 Symbolic Z-matrix:
 Charge =  0 Multiplicity = 1

 SCF Done:  E(RB3LYP) =  -936.657406422     A.U. after   13 cycles
 SCF Done:  E(RB3LYP) =  -936.668401499     A.U. after   11 cycles
 SCF Done:  E(RB3LYP) =  -936.671704952     A.U. after   11 cycles
 SCF Done:  E(RB3LYP) =  -936.674727421     A.U. after   10 cycles
 SCF Done:  E(RB3LYP) =  -936.677804487     A.U. after   11 cycles
 SCF Done:  E(RB3LYP) =  -936.679201752     A.U. after   11 cycles
 SCF Done:  E(RB3LYP) =  -936.680326321     A.U. after   10 cycles
 SCF Done:  E(RB3LYP) =  -936.680891885     A.U. after   11 cycles
 SCF Done:  E(RB3LYP) =  -936.681043945     A.U. after   10 cycles
 SCF Done:  E(RB3LYP) =  -936.681169358     A.U. after   10 cycles
 SCF Done:  E(RB3LYP) =  -936.681682014     A.U. after   11 cycles
 SCF Done:  E(RB3LYP) =  -936.681758070     A.U. after   10 cycles
 SCF Done:  E(RB3LYP) =  -936.681770807     A.U. after    9 cycles
 SCF Done:  E(RB3LYP) =  -936.681775869     A.U. after    9 cycles
 SCF Done:  E(RB3LYP) =  -936.681777054     A.U. after    9 cycles
 SCF Done:  E(RB3LYP) =  -936.681776941     A.U. after    9 cycles
 SCF Done:  E(RB3LYP) =  -936.681777408     A.U. after    9 cycles
 SCF Done:  E(RB3LYP) =  -936.681777755     A.U. after    8 cycles
 SCF Done:  E(RB3LYP) =  -936.681777734     A.U. after    7 cycles
 Optimization completed.
    -- Stationary point found.
 Normal termination of Gaussian 16 at Tue May 23 11:39:21 2023.

 ----------------------------------------------------------------------
 #N Geom=AllCheck Guess=TCheck SCRF=Check GenChk RB3LYP/6-31G(2df,p) Fr
 eq
 ----------------------------------------------------------------------

 Structure from the checkpoint file:  "CNqNrCdC1CCqSrCC1CCO.chk"
 -------------------
 Title Card Required
 -------------------
 Charge =  0 Multiplicity = 1

                         Standard orientation:
 ---------------------------------------------------------------------
 Center     Atomic      Atomic             Coordinates (Angstroms)
 Number     Number       Type             X           Y           Z
 ---------------------------------------------------------------------
      1          6           0        0.254754   -3.497719    0.832912
      2          7           0        0.543780   -2.532786   -0.217481
      3          7           0        1.906980   -2.448425   -0.576314
      4          6           0       -0.174656   -1.333962   -0.175653
      5          6           0        0.102677   -0.104369   -0.629312
      6          6           0        1.361504    0.467832   -1.232594
      7          6           0        1.525399    1.815746   -0.488188
      8         16           0        2.641513    1.680151    0.976523
      9          6           0        0.079271    2.251798   -0.116184
     10          6           0       -0.855079    1.079824   -0.538241
     11          6           0       -2.107024    0.963545    0.341844
     12          6           0       -3.289061    0.247035   -0.318876
     13          8           0       -4.460249    0.271579    0.483995
     14          1           0        0.611294   -4.485854    0.524927
     15          1           0       -0.824353   -3.562871    0.996418
     16          1           0        0.737829   -3.240601    1.792361
     17          1           0        2.171215   -3.333787   -0.998726
     18          1           0        2.485988   -2.324906    0.259283
     19          1           0       -1.149947   -1.501282    0.270206
     20          1           0        1.186069    0.683700   -2.298737
     21          1           0        2.232089   -0.176390   -1.169439
     22          1           0        2.033728    2.559279   -1.105811
     23          1           0        1.932771    0.717855    1.600531
     24          1           0       -0.200319    3.186265   -0.612848
     25          1           0        0.000528    2.429855    0.959306
     26          1           0       -1.195459    1.296666   -1.564715
     27          1           0       -2.452961    1.968955    0.609754
     28          1           0       -1.847162    0.466547    1.287935
     29          1           0       -3.023113   -0.782294   -0.602949
     30          1           0       -3.558377    0.767874   -1.244608
     31          1           0       -4.264073   -0.193974    1.303109
 ---------------------------------------------------------------------

 SCF Done:  E(RB3LYP) =  -936.681777734     A.U. after    1 cycles

 The electronic state is 1-A.
 Alpha  occ. eigenvalues --  -88.85573 -19.13058 -14.37003 -14.35203 -10.22232
 Alpha  occ. eigenvalues --  -10.22046 -10.21232 -10.20472 -10.18731 -10.17838
 Alpha  occ. eigenvalues --  -10.17781 -10.17211 -10.17003  -7.92180  -5.88623
 Alpha  occ. eigenvalues --   -5.88292  -5.87704  -1.01124  -0.99219  -0.84827
 Alpha  occ. eigenvalues --   -0.81604  -0.77434  -0.74755  -0.71296  -0.69022
 Alpha  occ. eigenvalues --   -0.66330  -0.62429  -0.59990  -0.55642  -0.54254
 Alpha  occ. eigenvalues --   -0.51428  -0.50142  -0.49725  -0.47640  -0.45971
 Alpha  occ. eigenvalues --   -0.44780  -0.43371  -0.42634  -0.41432  -0.40798
 Alpha  occ. eigenvalues --   -0.40209  -0.38658  -0.37789  -0.36747  -0.34394
 Alpha  occ. eigenvalues --   -0.34119  -0.33496  -0.31619  -0.31545  -0.30050
 Alpha  occ. eigenvalues --   -0.29772  -0.26479  -0.26195  -0.22657  -0.19074
 Alpha virt. eigenvalues --    0.03112   0.03541   0.05798   0.07414   0.07917
 Alpha virt. eigenvalues --    0.10145   0.11516   0.12076   0.12519   0.13175
 Alpha virt. eigenvalues --    0.13854   0.14244   0.15282   0.15533   0.15732

 Mulliken charges:
               1
     1  C   -0.323618
     2  N   -0.086762
     3  N   -0.449668
     4  C   -0.085259
     5  C    0.223617
     6  C   -0.326289
     7  C    0.004200
     8  S   -0.307314
     9  C   -0.246855
    10  C   -0.030969
    11  C   -0.239571
    12  C   -0.064151
    13  O   -0.418288
    14  H    0.119918
    15  H    0.130988
    16  H    0.104885
    17  H    0.244617
    18  H    0.229245
    19  H    0.078502
    20  H    0.095844
    21  H    0.140981
    22  H    0.105769
    23  H    0.146183
    24  H    0.100127
    25  H    0.115292
    26  H    0.072921
    27  H    0.103955
    28  H    0.080893
    29  H    0.091534
    30  H    0.111068
    31  H    0.278204
 Sum of Mulliken charges =  -0.00000

 Dipole moment (field-independent basis, Debye):
    X=              0.4155    Y=             -3.2232    Z=              0.6147  Tot=              3.3074
 Quadrupole moment (field-independent basis, Debye-Ang):
   XX=           -102.2850   YY=            -78.7165   ZZ=            -85.5734
   XY=             -4.7812   XZ=             -4.2566   YZ=             -7.5253

  Exact polarizability: 142.363   0.288 153.883   0.955  -9.920 112.320
 Approx polarizability: 191.043   1.375 220.171   1.151 -20.427 184.461

                      1                      2                      3
                      A                      A                      A
 Frequencies --     18.5305                43.4076                59.5375
 Red. masses --      5.2656                 3.4952                 4.2783
 Frc consts  --      0.0011                 0.0039                 0.0089
 IR Inten    --      1.1682                 1.0661                 1.0306

                      4                      5                      6
                      A                      A                      A
 Frequencies --     64.9791               111.2259               119.7020
 Red. masses --      4.0981                 1.9685                 3.0180
 Frc consts  --      0.0102                 0.0143                 0.0255
 IR Inten    --      1.3275                 1.8809                 5.9563

                      7                      8                      9
                      A                      A                      A
 Frequencies --    164.2140               186.7610               236.6506
 Red. masses --      2.9259                 2.2945                 1.2573
 Frc consts  --      0.0465                 0.0472                 0.0415
 IR Inten    --      2.2584                10.6656                 5.2268

                     10                     11                     12
                      A                      A                      A
 Frequencies --    251.1737               268.0936               270.3910
 Red. masses --      1.2779                 2.4629                 2.8802
 Frc consts  --      0.0475                 0.1043                 0.1241
 IR Inten    --      2.5425                17.7962                 7.6468

                     13                     14                     15
                      A                      A                      A
 Frequencies --    294.2538               300.7728               332.1543
 Red. masses --      1.5000                 1.7900                 1.9145
 Frc consts  --      0.0765                 0.0954                 0.1244
 IR Inten    --     78.8949                11.0924                12.7765

                     16                     17                     18
                      A                      A                      A
 Frequencies --    351.9433               362.5886               392.9872
 Red. masses --      1.9752                 2.9892                 3.4596
 Frc consts  --      0.1441                 0.2315                 0.3148
 IR Inten    --      7.7680                 3.8621                 1.8330

                     19                     20                     21
                      A                      A                      A
 Frequencies --    412.6148               446.4088               530.6287
 Red. masses --      2.5435                 2.9255                 2.3759
 Frc consts  --      0.2551                 0.3435                 0.3941
 IR Inten    --      2.5724                14.9082                 1.5855

                     22                     23                     24
                      A                      A                      A
 Frequencies --    555.8865               580.8141               677.2749
 Red. masses --      2.9427                 3.3832                 3.6509
 Frc consts  --      0.5358                 0.6724                 0.9867
 IR Inten    --      6.4533                 7.1380                 0.6249

                     25                     26                     27
                      A                      A                      A
 Frequencies --    708.1587               782.0442               826.5617
 Red. masses --      3.8599                 1.2673                 3.0600
 Frc consts  --      1.1405                 0.4567                 1.2318
 IR Inten    --      3.1385                 3.0902                 6.7968

                     28                     29                     30
                      A                      A                      A
 Frequencies --    846.2031               867.6643               895.6577
 Red. masses --      3.0935                 1.4257                 1.8065
 Frc consts  --      1.3051                 0.6324                 0.8538
 IR Inten    --      7.9575                 1.5343                 5.5915

                     31                     32                     33
                      A                      A                      A
 Frequencies --    898.9100               927.2069               968.0982
 Red. masses --      1.5669                 2.2052                 2.3316
 Frc consts  --      0.7460                 1.1170                 1.2875
 IR Inten    --     16.3260                 2.0019                60.2246

                     34                     35                     36
                      A                      A                      A
 Frequencies --    988.5768              1000.6100              1023.6035
 Red. masses --      2.0250                 2.2074                 2.3420
 Frc consts  --      1.1660                 1.3021                 1.4458
 IR Inten    --     27.0495                52.7618                12.1884

                     37                     38                     39
                      A                      A                      A
 Frequencies --   1040.7849              1071.8615              1076.7973
 Red. masses --      1.6976                 2.2274                 3.8260
 Frc consts  --      1.0834                 1.5077                 2.6138
 IR Inten    --     10.2957                21.6438                99.1325

                     40                     41                     42
                      A                      A                      A
 Frequencies --   1088.9605              1116.3225              1138.7427
 Red. masses --      1.7992                 2.1644                 1.7852
 Frc consts  --      1.2570                 1.5892                 1.3639
 IR Inten    --     54.5564                 3.8694                30.4419

                     43                     44                     45
                      A                      A                      A
 Frequencies --   1145.4718              1158.1350              1173.8299
 Red. masses --      1.3637                 1.5481                 1.3541
 Frc consts  --      1.0542                 1.2234                 1.0993
 IR Inten    --      3.5968                 6.9260                12.9078

                     46                     47                     48
                      A                      A                      A
 Frequencies --   1194.5592              1220.0132              1232.4498
 Red. masses --      1.5201                 1.7005                 1.6402
 Frc consts  --      1.2780                 1.4912                 1.4678
 IR Inten    --      5.1651                14.4640                12.4581

                     49                     50                     51
                      A                      A                      A
 Frequencies --   1284.9137              1293.7449              1295.1692
 Red. masses --      1.2374                 1.3131                 1.2605
 Frc consts  --      1.2037                 1.2949                 1.2458
 IR Inten    --      1.1158                15.7343                10.4136

                     52                     53                     54
                      A                      A                      A
 Frequencies --   1308.6220              1320.6911              1326.2181
 Red. masses --      1.2505                 1.2675                 1.3055
 Frc consts  --      1.2618                 1.3026                 1.3529
 IR Inten    --     12.5574                 5.2401                 7.5359

                     55                     56                     57
                      A                      A                      A
 Frequencies --   1334.7781              1368.9840              1372.9166
 Red. masses --      1.3853                 2.1086                 1.5456
 Frc consts  --      1.4541                 2.3283                 1.7165
 IR Inten    --     15.5900                64.1845                 5.1741

                     58                     59                     60
                      A                      A                      A
 Frequencies --   1399.1166              1421.4471              1422.0656
 Red. masses --      1.3782                 1.2776                 1.3165
 Frc consts  --      1.5895                 1.5210                 1.5685
 IR Inten    --      6.3450                45.4507                 5.9344

                     61                     62                     63
                      A                      A                      A
 Frequencies --   1460.7004              1483.6825              1487.7993
 Red. masses --      1.1917                 1.0509                 1.0918
 Frc consts  --      1.4981                 1.3629                 1.4240
 IR Inten    --      3.3946                24.2476                 5.7065

                     64                     65                     66
                      A                      A                      A
 Frequencies --   1488.2223              1496.2197              1506.4533
 Red. masses --      1.0813                 1.0881                 1.0679
 Frc consts  --      1.4110                 1.4352                 1.4279
 IR Inten    --      3.6190                 0.7011                 3.9907

                     67                     68                     69
                      A                      A                      A
 Frequencies --   1516.0798              1671.7118              1757.5259
 Red. masses --      1.0919                 1.1724                 5.1590
 Frc consts  --      1.4787                 1.9305                 9.3889
 IR Inten    --      0.9136                 9.1494               118.1960

                     70                     71                     72
                      A                      A                      A
 Frequencies --   2656.2217              2948.1446              2949.4060
 Red. masses --      1.0381                 1.0636                 1.0740
 Frc consts  --      4.3154                 5.4468                 5.5044
 IR Inten    --      5.0032               121.2252                 2.5051

                     73                     74                     75
                      A                      A                      A
 Frequencies --   2976.0327              2991.2313              3004.5975
 Red. masses --      1.0741                 1.0687                 1.0654
 Frc consts  --      5.6047                 5.6341                 5.6666
 IR Inten    --     43.9921                45.7014                28.0578

                     76                     77                     78
                      A                      A                      A
 Frequencies --   3048.6736              3051.9565              3064.4053
 Red. masses --      1.0712                 1.0809                 1.0763
 Frc consts  --      5.8661                 5.9319                 5.9550
 IR Inten    --      8.2553                32.3112                35.8313

                     79                     80                     81
                      A                      A                      A
 Frequencies --   3071.5451              3082.7854              3098.1850
 Red. masses --      1.0995                 1.0877                 1.1013
 Frc consts  --      6.1118                 6.0902                 6.2283
 IR Inten    --     53.3655                14.5884                30.3113

                     82                     83                     84
                      A                      A                      A
 Frequencies --   3112.1606              3175.2030              3187.0723
 Red. masses --      1.1018                 1.0856                 1.0880
 Frc consts  --      6.2872                 6.4484                 6.5110
 IR Inten    --     18.5109                15.0191                 2.7006

                     85                     86                     87
                      A                      A                      A
 Frequencies --   3377.5186              3529.1651              3815.2857
 Red. masses --      1.0566                 1.0843                 1.0661
 Frc consts  --      7.1016                 7.9567                 9.1434
 IR Inten    --     13.7884                 1.2236                12.2106

 - Thermochemistry -
 -------------------
 Temperature   298.150 Kelvin.  Pressure   1.00000 Atm.
 Atom     1 has atomic number  6 and mass  12.00000

 Molecular mass:   202.11399 amu.
 Principal axes and moments of inertia in atomic units:
                           1         2         3
     Eigenvalues --  2717.378243662.382425625.28044
           X            0.99863  -0.05171  -0.00769
           Y            0.05152   0.99840  -0.02322
           Z            0.00888   0.02280   0.99970
 This molecule is an asymmetric top.
 Rotational symmetry number  1.
 Warning -- assumption of classical behavior for rotation
           may cause significant error
 Rotational temperatures (Kelvin)      0.03187     0.02365     0.01540
 Rotational constants (GHZ):           0.66415     0.49278     0.32083
 Zero-point vibrational energy     703289.8 (Joules/Mol)
                                  168.09029 (Kcal/Mol)
 Warning -- explicit consideration of  23 degrees of freedom as
           vibrations may cause significant error
 Vibrational temperatures:     26.66    62.45    85.66    93.49   160.03
          (Kelvin)            172.22   236.27   268.71   340.49   361.38
                              385.73   389.03   423.37   432.74   477.90
                              506.37   521.68   565.42   593.66   642.28
                              763.46   799.80   835.66   974.45  1018.88
                             1125.19  1189.24  1217.50  1248.38  1288.65
                             1293.33  1334.04  1392.88  1422.34  1439.65
                             1472.74  1497.46  1542.17  1549.27  1566.77
                             1606.14  1638.40  1648.08  1666.30  1688.88
                             1718.70  1755.33  1773.22  1848.70  1861.41
                             1863.46  1882.82  1900.18  1908.13  1920.45
                             1969.66  1975.32  2013.02  2045.15  2046.04
                             2101.62  2134.69  2140.61  2141.22  2152.73
                             2167.45  2181.30  2405.22  2528.69  3821.71
                             4241.72  4243.54  4281.85  4303.71  4322.95
                             4386.36  4391.08  4409.00  4419.27  4435.44
                             4457.60  4477.70  4568.41  4585.49  4859.50
                             5077.68  5489.35

 Zero-point correction=                           0.267869 (Hartree/Particle)
 Thermal correction to Energy=                    0.283207
 Thermal correction to Enthalpy=                  0.284152
 Thermal correction to Gibbs Free Energy=         0.223993
 Sum of electronic and zero-point Energies=           -936.413909
 Sum of electronic and thermal Energies=              -936.398570
 Sum of electronic and thermal Enthalpies=            -936.397626
 Sum of electronic and thermal Free Energies=         -936.457785

                     E (Thermal)             CV                S
                      KCal/Mol        Cal/Mol-Kelvin    Cal/Mol-Kelvin
 Total                  177.715             56.551            126.615
 Electronic               0.000              0.000              0.000
 Translational            0.889              2.981             41.815
 Rotational               0.889              2.981             32.393
 Vibrational            175.938             50.590             52.407
 Vibration     1          0.593              1.986              6.786
 Vibration     2          0.595              1.980              5.097
 Vibration     3          0.597              1.974              4.472
 Vibration     4          0.597              1.971              4.300
 Vibration     5          0.607              1.940              3.247
 Vibration     6          0.609              1.933              3.105
 Vibration     7          0.623              1.886              2.501
 Vibration     8          0.632              1.858              2.260
 Vibration     9          0.656              1.785              1.828
 Vibration    10          0.663              1.761              1.722
 Vibration    11          0.673              1.732              1.608
 Vibration    12          0.674              1.728              1.594
 Vibration    13          0.689              1.684              1.449
 Vibration    14          0.693              1.672              1.413
 Vibration    15          0.714              1.611              1.250
 Vibration    16          0.728              1.571              1.157
 Vibration    17          0.736              1.549              1.111
 Vibration    18          0.760              1.485              0.989
 Vibration    19          0.776              1.443              0.917
 Vibration    20          0.806              1.369              0.807
 Vibration    21          0.886              1.182              0.586
 Vibration    22          0.911              1.127              0.532
 Vibration    23          0.938              1.073              0.484

 Optimization completed.
    -- Stationary point found.
 Normal termination of Gaussian 16 at Tue May 23 13:24:58 2023.
