 Gaussian 16, Revision A.03,
 Gaussian 16:  ES64L-G16RevA.03 25-Dec-2016

 -----------------------------
 # opt freq b3lyp/6-31g(2df,p)
 -----------------------------

 -------------------
 Title Card Required
 -------------------
 Symbolic Z-matrix:
 Charge =  0 Multiplicity = 1

 SCF Done:  E(RB3LYP) =  -810.561371720     A.U. after   13 cycles
 SCF Done:  E(RB3LYP) =  -810.611601693     A.U. after   11 cycles
 SCF Done:  E(RB3LYP) =  -810.639656697     A.U. after   11 cycles
 SCF Done:  E(RB3LYP) =  -810.670340557     A.U. after   11 cycles
 SCF Done:  E(RB3LYP) =  -810.684536951     A.U. after   11 cycles
 SCF Done:  E(RB3LYP) =  -810.694291198     A.U. after   11 cycles
 SCF Done:  E(RB3LYP) =  -810.700682325     A.U. after   11 cycles
 SCF Done:  E(RB3LYP) =  -810.704185556     A.U. after   10 cycles
 SCF Done:  E(RB3LYP) =  -810.711093695     A.U. after   11 cycles
 SCF Done:  E(RB3LYP) =  -810.715402835     A.U. after   11 cycles
 SCF Done:  E(RB3LYP) =  -810.726043179     A.U. after   10 cycles
 SCF Done:  E(RB3LYP) =  -810.726765274     A.U. after   10 cycles
 SCF Done:  E(RB3LYP) =  -810.726772896     A.U. after    9 cycles
 SCF Done:  E(RB3LYP) =  -810.726778488     A.U. after    7 cycles
 SCF Done:  E(RB3LYP) =  -810.726782313     A.U. after    9 cycles
 SCF Done:  E(RB3LYP) =  -810.726785093     A.U. after    8 cycles
 SCF Done:  E(RB3LYP) =  -810.726785074     A.U. after    7 cycles
 SCF Done:  E(RB3LYP) =  -810.726786449     A.U. after    7 cycles
 SCF Done:  E(RB3LYP) =  -810.726786579     A.U. after    6 cycles
 Optimization completed.
    -- Stationary point found.
 Normal termination of Gaussian 16 at Wed May 24 00:17:02 2023.

 ----------------------------------------------------------------------
 #N Geom=AllCheck Guess=TCheck SCRF=Check GenChk RB3LYP/6-31G(2df,p) Fr
 eq
 ----------------------------------------------------------------------

 Structure from the checkpoint file:  "COC1OC2CqCrCOCqCrCCCOCC12.chk"
 -------------------
 Title Card Required
 -------------------
 Charge =  0 Multiplicity = 1

                         Standard orientation:
 ---------------------------------------------------------------------
 Center     Atomic      Atomic             Coordinates (Angstroms)
 Number     Number       Type             X           Y           Z
 ---------------------------------------------------------------------
      1          6           0        3.787193   -1.857161   -0.611525
      2          8           0        3.508361   -0.469792   -0.596843
      3          6           0        2.677673   -0.112456    0.460188
      4          8           0        2.525592    1.299814    0.501751
      5          6           0        1.075986    1.194119    0.554103
      6          6           0        0.372936    2.104021   -0.451745
      7          6           0        0.845590    3.555979   -0.298870
      8          6           0       -1.147485    2.020902   -0.290234
      9          8           0       -1.563593    0.672181   -0.405186
     10          6           0       -2.969649    0.436431   -0.397096
     11          6           0       -3.614350    0.772501    0.953418
     12          6           0       -3.193182   -1.029489   -0.809390
     13          6           0       -2.409649   -2.078386    0.007731
     14          6           0       -0.980605   -2.336530   -0.530550
     15          8           0        0.011451   -2.494794    0.475984
     16          6           0        0.369452   -1.295027    1.147848
     17          6           0        1.157389   -0.320708    0.275825
     18          1           0        4.415203   -2.048877   -1.483512
     19          1           0        2.868231   -2.456707   -0.688188
     20          1           0        4.328066   -2.169484    0.295259
     21          1           0        3.087675   -0.509441    1.409344
     22          1           0        0.723049    1.425594    1.572211
     23          1           0        0.634548    1.751829   -1.457602
     24          1           0        0.582885    3.957193    0.687162
     25          1           0        0.389867    4.201564   -1.056539
     26          1           0        1.930785    3.610216   -0.405554
     27          1           0       -1.640378    2.638296   -1.059100
     28          1           0       -1.428778    2.437232    0.689961
     29          1           0       -3.435266    1.079152   -1.163989
     30          1           0       -3.177152    0.181840    1.763927
     31          1           0       -4.687606    0.561659    0.915834
     32          1           0       -3.498117    1.829809    1.205022
     33          1           0       -2.938197   -1.136437   -1.870897
     34          1           0       -4.268927   -1.224262   -0.733859
     35          1           0       -2.966604   -3.020781    0.009554
     36          1           0       -2.347990   -1.774406    1.056662
     37          1           0       -0.705620   -1.530582   -1.219885
     38          1           0       -0.955089   -3.272864   -1.096437
     39          1           0        0.967084   -1.613166    2.009922
     40          1           0       -0.522464   -0.787207    1.536520
     41          1           0        0.962509   -0.514612   -0.779679
 ---------------------------------------------------------------------

 SCF Done:  E(RB3LYP) =  -810.726786579     A.U. after    1 cycles

 The electronic state is 1-A.
 Alpha  occ. eigenvalues --  -19.14513 -19.13858 -19.13338 -19.13181 -10.26884
 Alpha  occ. eigenvalues --  -10.23947 -10.23142 -10.22959 -10.22159 -10.22118
 Alpha  occ. eigenvalues --  -10.21776 -10.18838 -10.18558 -10.18098 -10.17963
 Alpha  occ. eigenvalues --  -10.17776 -10.17300  -1.06596  -1.03658  -1.02105
 Alpha  occ. eigenvalues --   -1.00969  -0.81563  -0.78734  -0.76719  -0.74109
 Alpha  occ. eigenvalues --   -0.70522  -0.69147  -0.67540  -0.65700  -0.63814
 Alpha  occ. eigenvalues --   -0.59431  -0.57819  -0.56734  -0.55760  -0.50895
 Alpha  occ. eigenvalues --   -0.50214  -0.49832  -0.48522  -0.47376  -0.47054
 Alpha  occ. eigenvalues --   -0.46290  -0.45239  -0.44353  -0.43191  -0.42226
 Alpha  occ. eigenvalues --   -0.41235  -0.40667  -0.39818  -0.39540  -0.38571
 Alpha  occ. eigenvalues --   -0.38524  -0.37306  -0.37121  -0.36133  -0.35582
 Alpha  occ. eigenvalues --   -0.34576  -0.33925  -0.33465  -0.32916  -0.32358
 Alpha  occ. eigenvalues --   -0.30862  -0.30255  -0.28561  -0.26320  -0.26263
 Alpha  occ. eigenvalues --   -0.24685  -0.23842
 Alpha virt. eigenvalues --    0.06746   0.08216   0.08589   0.09926   0.10523
 Alpha virt. eigenvalues --    0.10840   0.11117   0.11972   0.12707   0.13130
 Alpha virt. eigenvalues --    0.13922   0.14221   0.15029   0.15485   0.15693

 Mulliken charges:
               1
     1  C   -0.248773
     2  O   -0.226645
     3  C    0.210727
     4  O   -0.311723
     5  C    0.135449
     6  C   -0.043505
     7  C   -0.410812
     8  C   -0.069712
     9  O   -0.264275
    10  C    0.149210
    11  C   -0.408079
    12  C   -0.227428
    13  C   -0.202464
    14  C   -0.065315
    15  O   -0.253265
    16  C   -0.120068
    17  C   -0.087927
    18  H    0.130244
    19  H    0.125378
    20  H    0.108509
    21  H    0.050726
    22  H    0.062884
    23  H    0.084577
    24  H    0.112031
    25  H    0.110404
    26  H    0.147440
    27  H    0.088434
    28  H    0.089932
    29  H    0.064976
    30  H    0.125720
    31  H    0.118688
    32  H    0.120662
    33  H    0.100830
    34  H    0.095789
    35  H    0.097354
    36  H    0.110047
    37  H    0.105593
    38  H    0.099775
    39  H    0.100661
    40  H    0.093233
    41  H    0.100720
 Sum of Mulliken charges =  -0.00000

 Dipole moment (field-independent basis, Debye):
    X=             -3.1530    Y=              0.0079    Z=              0.0280  Tot=              3.1531
 Quadrupole moment (field-independent basis, Debye-Ang):
   XX=           -104.0547   YY=           -104.8701   ZZ=           -102.5782
   XY=             -7.0414   XZ=              1.5117   YZ=              1.6432

  Exact polarizability: 170.723  -3.189 161.068   1.141   2.212 126.515
 Approx polarizability: 216.404  -2.820 216.634   0.890   2.557 204.347

                      1                      2                      3
                      A                      A                      A
 Frequencies --     38.2092                51.1645                59.3411
 Red. masses --      3.7775                 3.6507                 3.7400
 Frc consts  --      0.0032                 0.0056                 0.0078
 IR Inten    --      0.1977                 1.4077                 0.7964

                      4                      5                      6
                      A                      A                      A
 Frequencies --     86.7200               101.7646               144.9150
 Red. masses --      3.1408                 3.0543                 2.7377
 Frc consts  --      0.0139                 0.0186                 0.0339
 IR Inten    --      1.8898                 1.8821                 2.0233

                      7                      8                      9
                      A                      A                      A
 Frequencies --    153.3072               163.6074               182.9880
 Red. masses --      2.8890                 2.6073                 2.9122
 Frc consts  --      0.0400                 0.0411                 0.0575
 IR Inten    --      3.2349                 0.7425                 1.7122

                     10                     11                     12
                      A                      A                      A
 Frequencies --    208.8827               220.1244               224.1588
 Red. masses --      1.1482                 1.1775                 1.2777
 Frc consts  --      0.0295                 0.0336                 0.0378
 IR Inten    --      0.7555                 0.4192                 0.5716

                     13                     14                     15
                      A                      A                      A
 Frequencies --    233.0487               241.4244               254.5543
 Red. masses --      2.5501                 2.4625                 3.1725
 Frc consts  --      0.0816                 0.0846                 0.1211
 IR Inten    --      0.3709                 1.3765                 0.5259

                     16                     17                     18
                      A                      A                      A
 Frequencies --    283.2238               292.6727               304.9301
 Red. masses --      2.9650                 3.4468                 3.0632
 Frc consts  --      0.1401                 0.1740                 0.1678
 IR Inten    --      3.5547                 0.0502                 0.3724

                     19                     20                     21
                      A                      A                      A
 Frequencies --    363.7102               371.4640               382.4502
 Red. masses --      2.8591                 2.1503                 2.5174
 Frc consts  --      0.2228                 0.1748                 0.2169
 IR Inten    --      2.1080                 0.7630                 1.4980

                     22                     23                     24
                      A                      A                      A
 Frequencies --    417.1729               437.5189               467.0573
 Red. masses --      3.0569                 2.7486                 3.4617
 Frc consts  --      0.3134                 0.3100                 0.4449
 IR Inten    --      2.7087                 4.6437                 4.0665

                     25                     26                     27
                      A                      A                      A
 Frequencies --    477.4593               500.6718               526.3461
 Red. masses --      3.1238                 3.9325                 3.9317
 Frc consts  --      0.4196                 0.5808                 0.6418
 IR Inten    --      5.6408                11.6212                 2.9575

                     28                     29                     30
                      A                      A                      A
 Frequencies --    562.9998               606.4128               746.1292
 Red. masses --      3.6330                 2.5069                 3.0584
 Frc consts  --      0.6785                 0.5431                 1.0031
 IR Inten    --      5.8229                 5.7132                 6.1017

                     31                     32                     33
                      A                      A                      A
 Frequencies --    753.7287               828.7222               850.6753
 Red. masses --      1.9943                 2.3784                 1.9486
 Frc consts  --      0.6675                 0.9624                 0.8308
 IR Inten    --      6.2531                 3.1093                 5.3065

                     34                     35                     36
                      A                      A                      A
 Frequencies --    860.6881               896.9122               919.7620
 Red. masses --      2.3015                 2.2549                 1.9441
 Frc consts  --      1.0045                 1.0688                 0.9690
 IR Inten    --      3.0221                 9.4611                14.8931

                     37                     38                     39
                      A                      A                      A
 Frequencies --    930.8553               959.2784               968.4662
 Red. masses --      1.6006                 1.8127                 2.2451
 Frc consts  --      0.8171                 0.9828                 1.2407
 IR Inten    --      4.5816                 8.9372                13.8925

                     40                     41                     42
                      A                      A                      A
 Frequencies --    973.6992              1000.5668              1010.8824
 Red. masses --      2.0076                 2.5426                 3.9899
 Frc consts  --      1.1214                 1.4997                 2.4022
 IR Inten    --      9.5045                56.0226                52.0267

                     43                     44                     45
                      A                      A                      A
 Frequencies --   1026.1784              1049.3738              1053.2802
 Red. masses --      2.9380                 3.9212                 1.8908
 Frc consts  --      1.8228                 2.5441                 1.2359
 IR Inten    --     59.0672                85.4086                 2.3630

                     46                     47                     48
                      A                      A                      A
 Frequencies --   1071.3723              1085.6421              1097.2510
 Red. masses --      3.3539                 3.0822                 2.7316
 Frc consts  --      2.2682                 2.1404                 1.9377
 IR Inten    --      7.5130                25.5676                60.8809

                     49                     50                     51
                      A                      A                      A
 Frequencies --   1107.8573              1117.6307              1128.4425
 Red. masses --      2.7245                 2.4836                 2.7115
 Frc consts  --      1.9702                 1.8278                 2.0343
 IR Inten    --     46.6926                22.8511                43.5246

                     52                     53                     54
                      A                      A                      A
 Frequencies --   1129.2593              1139.1309              1142.7467
 Red. masses --      3.0062                 2.6896                 2.5587
 Frc consts  --      2.2587                 2.0563                 1.9686
 IR Inten    --     33.7054                28.4466                89.3033

                     55                     56                     57
                      A                      A                      A
 Frequencies --   1159.3924              1163.8414              1176.1843
 Red. masses --      2.4965                 2.4418                 1.8124
 Frc consts  --      1.9772                 1.9487                 1.4772
 IR Inten    --     71.2030               109.9862                22.4871

                     58                     59                     60
                      A                      A                      A
 Frequencies --   1188.2132              1218.0308              1232.2730
 Red. masses --      1.3229                 1.5968                 1.3063
 Frc consts  --      1.1004                 1.3958                 1.1687
 IR Inten    --      6.8000                 7.5573                 2.7845

                     61                     62                     63
                      A                      A                      A
 Frequencies --   1242.0280              1259.0164              1269.0845
 Red. masses --      1.7718                 1.2202                 1.3158
 Frc consts  --      1.6104                 1.1396                 1.2486
 IR Inten    --     65.3026                 4.9880                26.5587

                     64                     65                     66
                      A                      A                      A
 Frequencies --   1279.1498              1288.3377              1310.2233
 Red. masses --      1.2890                 1.3697                 1.1283
 Frc consts  --      1.2427                 1.3395                 1.1412
 IR Inten    --      1.6188                 5.8862                 8.2936

                     67                     68                     69
                      A                      A                      A
 Frequencies --   1322.8462              1339.3047              1344.1315
 Red. masses --      1.2736                 1.2994                 1.3580
 Frc consts  --      1.3131                 1.3733                 1.4456
 IR Inten    --      8.2928                15.2789                 3.5757

                     70                     71                     72
                      A                      A                      A
 Frequencies --   1347.1529              1360.9864              1364.3659
 Red. masses --      1.2418                 1.3163                 1.4185
 Frc consts  --      1.3278                 1.4365                 1.5558
 IR Inten    --      1.2856                14.5510                13.4658

                     73                     74                     75
                      A                      A                      A
 Frequencies --   1379.8293              1385.4749              1392.2496
 Red. masses --      1.2912                 1.3297                 1.2664
 Frc consts  --      1.4484                 1.5039                 1.4463
 IR Inten    --     11.7221                 7.2381                36.5175

                     76                     77                     78
                      A                      A                      A
 Frequencies --   1404.4637              1408.3893              1415.2794
 Red. masses --      1.2508                 1.2946                 1.2712
 Frc consts  --      1.4537                 1.5129                 1.5002
 IR Inten    --      4.8020                33.6606                23.7820

                     79                     80                     81
                      A                      A                      A
 Frequencies --   1422.4701              1430.4936              1438.3818
 Red. masses --      1.3756                 1.2726                 1.4234
 Frc consts  --      1.6400                 1.5343                 1.7351
 IR Inten    --      2.2716                10.3048                 8.0978

                     82                     83                     84
                      A                      A                      A
 Frequencies --   1479.3520              1482.9635              1484.7527
 Red. masses --      1.0791                 1.0862                 1.1060
 Frc consts  --      1.3915                 1.4074                 1.4366
 IR Inten    --      1.8382                 7.8133                 6.2215

                     85                     86                     87
                      A                      A                      A
 Frequencies --   1490.8552              1492.3333              1494.8234
 Red. masses --      1.0671                 1.0914                 1.0561
 Frc consts  --      1.3974                 1.4321                 1.3904
 IR Inten    --      2.6279                 3.4194                 5.4925

                     88                     89                     90
                      A                      A                      A
 Frequencies --   1497.1608              1504.1443              1505.3975
 Red. masses --      1.0838                 1.0813                 1.0589
 Frc consts  --      1.4313                 1.4413                 1.4138
 IR Inten    --      6.1556                 2.9717                 8.4310

                     91                     92                     93
                      A                      A                      A
 Frequencies --   1505.9095              1515.3043              1519.9256
 Red. masses --      1.0643                 1.0680                 1.0856
 Frc consts  --      1.4221                 1.4449                 1.4776
 IR Inten    --      6.1480                 2.3543                 5.6068

                     94                     95                     96
                      A                      A                      A
 Frequencies --   2908.2661              2950.0935              2963.7332
 Red. masses --      1.0821                 1.0811                 1.0587
 Frc consts  --      5.3925                 5.5435                 5.4790
 IR Inten    --     79.5309                36.6428                53.0703

                     97                     98                     99
                      A                      A                      A
 Frequencies --   2969.6805              2980.4256              2995.1323
 Red. masses --      1.0800                 1.0383                 1.1018
 Frc consts  --      5.6117                 5.4341                 5.8234
 IR Inten    --     44.9401                55.4410                25.3333

                    100                    101                    102
                      A                      A                      A
 Frequencies --   3016.3104              3028.8773              3030.0309
 Red. masses --      1.0590                 1.0621                 1.0531
 Frc consts  --      5.6770                 5.7407                 5.6966
 IR Inten    --     43.1077                23.7365                18.1562

                    103                    104                    105
                      A                      A                      A
 Frequencies --   3031.5022              3035.9334              3038.0714
 Red. masses --      1.1017                 1.0700                 1.0590
 Frc consts  --      5.9651                 5.8107                 5.7587
 IR Inten    --     34.4185                43.6502                31.3736

                    106                    107                    108
                      A                      A                      A
 Frequencies --   3044.1247              3048.6355              3060.2716
 Red. masses --      1.0396                 1.0678                 1.1030
 Frc consts  --      5.6759                 5.8470                 6.0860
 IR Inten    --      8.4187                11.2159                35.6915

                    109                    110                    111
                      A                      A                      A
 Frequencies --   3068.1591              3079.5357              3094.5171
 Red. masses --      1.0995                 1.0961                 1.1006
 Frc consts  --      6.0983                 6.1246                 6.2094
 IR Inten    --     31.3080                27.9311                30.9662

                    112                    113                    114
                      A                      A                      A
 Frequencies --   3094.7678              3105.3928              3113.6690
 Red. masses --      1.1015                 1.0841                 1.1004
 Frc consts  --      6.2160                 6.1596                 6.2857
 IR Inten    --     58.2751                11.5502                33.1674

                    115                    116                    117
                      A                      A                      A
 Frequencies --   3119.3116              3126.6528              3132.8133
 Red. masses --      1.1010                 1.0971                 1.0990
 Frc consts  --      6.3119                 6.3191                 6.3551
 IR Inten    --     24.1787                25.9185                10.4571

 - Thermochemistry -
 -------------------
 Temperature   298.150 Kelvin.  Pressure   1.00000 Atm.
 Atom     1 has atomic number  6 and mass  12.00000

 Molecular mass:   244.16746 amu.
 Principal axes and moments of inertia in atomic units:
                           1         2         3
     Eigenvalues --  2978.165354978.673107196.01625
           X            0.99981  -0.01935  -0.00377
           Y            0.01937   0.99980   0.00497
           Z            0.00367  -0.00504   0.99998
 This molecule is an asymmetric top.
 Rotational symmetry number  1.
 Warning -- assumption of classical behavior for rotation
           may cause significant error
 Rotational temperatures (Kelvin)      0.02908     0.01740     0.01204
 Rotational constants (GHZ):           0.60599     0.36249     0.25080
 Zero-point vibrational energy     955560.6 (Joules/Mol)
                                  228.38446 (Kcal/Mol)
 Warning -- explicit consideration of  29 degrees of freedom as
           vibrations may cause significant error
 Vibrational temperatures:     54.97    73.61    85.38   124.77   146.42
          (Kelvin)            208.50   220.57   235.39   263.28   300.54
                              316.71   322.51   335.31   347.36   366.25
                              407.50   421.09   438.73   523.30   534.45
                              550.26   600.22   629.49   671.99   686.96
                              720.35   757.29   810.03   872.49  1073.51
                             1084.45  1192.35  1223.93  1238.34  1290.46
                             1323.33  1339.29  1380.19  1393.41  1400.94
                             1439.59  1454.43  1476.44  1509.81  1515.44
                             1541.47  1562.00  1578.70  1593.96  1608.02
                             1623.58  1624.75  1638.96  1644.16  1668.11
                             1674.51  1692.27  1709.57  1752.47  1772.97
                             1787.00  1811.44  1825.93  1840.41  1853.63
                             1885.12  1903.28  1926.96  1933.91  1938.25
                             1958.16  1963.02  1985.27  1993.39  2003.14
                             2020.71  2026.36  2036.27  2046.62  2058.16
                             2069.51  2128.46  2133.65  2136.23  2145.01
                             2147.13  2150.72  2154.08  2164.13  2165.93
                             2166.67  2180.18  2186.83  4184.35  4244.53
                             4264.15  4272.71  4288.17  4309.33  4339.80
                             4357.88  4359.54  4361.66  4368.03  4371.11
                             4379.82  4386.31  4403.05  4414.40  4430.76
                             4452.32  4452.68  4467.97  4479.88  4487.99
                             4498.56  4507.42

 Zero-point correction=                           0.363954 (Hartree/Particle)
 Thermal correction to Energy=                    0.381900
 Thermal correction to Enthalpy=                  0.382844
 Thermal correction to Gibbs Free Energy=         0.318620
 Sum of electronic and zero-point Energies=           -810.362833
 Sum of electronic and thermal Energies=              -810.344887
 Sum of electronic and thermal Enthalpies=            -810.343943
 Sum of electronic and thermal Free Energies=         -810.408166

                     E (Thermal)             CV                S
                      KCal/Mol        Cal/Mol-Kelvin    Cal/Mol-Kelvin
 Total                  239.646             68.670            135.170
 Electronic               0.000              0.000              0.000
 Translational            0.889              2.981             42.379
 Rotational               0.889              2.981             33.034
 Vibrational            237.868             62.709             59.758
 Vibration     1          0.594              1.982              5.350
 Vibration     2          0.595              1.977              4.772
 Vibration     3          0.597              1.974              4.479
 Vibration     4          0.601              1.958              3.733
 Vibration     5          0.604              1.948              3.420
 Vibration     6          0.616              1.908              2.738
 Vibration     7          0.619              1.899              2.631
 Vibration     8          0.623              1.887              2.508
 Vibration     9          0.630              1.863              2.298
 Vibration    10          0.642              1.827              2.053
 Vibration    11          0.647              1.810              1.958
 Vibration    12          0.649              1.804              1.925
 Vibration    13          0.654              1.790              1.855
 Vibration    14          0.658              1.777              1.792
 Vibration    15          0.665              1.755              1.699
 Vibration    16          0.682              1.705              1.514
 Vibration    17          0.688              1.687              1.458
 Vibration    18          0.696              1.664              1.390
 Vibration    19          0.737              1.547              1.106
 Vibration    20          0.743              1.531              1.074
 Vibration    21          0.752              1.508              1.029
 Vibration    22          0.780              1.433              0.902
 Vibration    23          0.798              1.388              0.834
 Vibration    24          0.824              1.323              0.746
 Vibration    25          0.834              1.300              0.717
 Vibration    26          0.856              1.249              0.656
 Vibration    27          0.881              1.192              0.595
 Vibration    28          0.919              1.111              0.518
 Vibration    29          0.965              1.018              0.439

 Optimization completed.
    -- Stationary point found.
 Normal termination of Gaussian 16 at Wed May 24 05:46:11 2023.
