 Gaussian 16, Revision A.03,
 Gaussian 16:  ES64L-G16RevA.03 25-Dec-2016

 -----------------------------
 # opt freq b3lyp/6-31g(2df,p)
 -----------------------------

 -------------------
 Title Card Required
 -------------------
 Symbolic Z-matrix:
 Charge =  0 Multiplicity = 1

 SCF Done:  E(RB3LYP) =  -578.268263919     A.U. after   13 cycles
 SCF Done:  E(RB3LYP) =  -578.276003382     A.U. after   11 cycles
 SCF Done:  E(RB3LYP) =  -578.278176576     A.U. after   12 cycles
 SCF Done:  E(RB3LYP) =  -578.278536856     A.U. after   11 cycles
 SCF Done:  E(RB3LYP) =  -578.279395295     A.U. after   10 cycles
 SCF Done:  E(RB3LYP) =  -578.279499881     A.U. after   10 cycles
 SCF Done:  E(RB3LYP) =  -578.279586594     A.U. after   10 cycles
 SCF Done:  E(RB3LYP) =  -578.279633566     A.U. after   10 cycles
 SCF Done:  E(RB3LYP) =  -578.279649250     A.U. after   10 cycles
 SCF Done:  E(RB3LYP) =  -578.279653470     A.U. after    8 cycles
 SCF Done:  E(RB3LYP) =  -578.279657176     A.U. after    9 cycles
 SCF Done:  E(RB3LYP) =  -578.279658405     A.U. after    8 cycles
 SCF Done:  E(RB3LYP) =  -578.279659043     A.U. after    8 cycles
 SCF Done:  E(RB3LYP) =  -578.279659125     A.U. after    6 cycles
 Optimization completed.
    -- Stationary point found.
 Normal termination of Gaussian 16 at Sun May 28 05:08:22 2023.

 ----------------------------------------------------------------------
 #N Geom=AllCheck Guess=TCheck SCRF=Check GenChk RB3LYP/6-31G(2df,p) Fr
 eq
 ----------------------------------------------------------------------

 Structure from the checkpoint file:  "COC1CqdOrCCqOrCCC1C.chk"
 -------------------
 Title Card Required
 -------------------
 Charge =  0 Multiplicity = 1

                         Standard orientation:
 ---------------------------------------------------------------------
 Center     Atomic      Atomic             Coordinates (Angstroms)
 Number     Number       Type             X           Y           Z
 ---------------------------------------------------------------------
      1          6           0       -3.189260   -1.186985    0.344867
      2          8           0       -2.374690   -0.244907   -0.325207
      3          6           0       -1.122475   -0.013660    0.262266
      4          6           0       -0.170503   -1.203382    0.034967
      5          8           0       -0.505860   -2.142011   -0.649511
      6          6           0        1.225458   -1.150373    0.641264
      7          6           0        2.171924   -0.338718   -0.279157
      8          8           0        3.517874   -0.776338   -0.159183
      9          6           0        2.072534    1.187479   -0.077904
     10          6           0        0.731141    1.760313    0.412913
     11          6           0       -0.557948    1.314358   -0.313254
     12          6           0       -1.623192    2.416485   -0.211110
     13          1           0       -4.156503   -1.183195   -0.163198
     14          1           0       -3.343658   -0.901359    1.397646
     15          1           0       -2.767452   -2.196478    0.302820
     16          1           0       -1.230522    0.117483    1.357250
     17          1           0        1.597297   -2.176100    0.676266
     18          1           0        1.217030   -0.734292    1.655584
     19          1           0        1.909863   -0.593648   -1.311576
     20          1           0        3.828648   -0.540952    0.722281
     21          1           0        2.365154    1.675675   -1.014073
     22          1           0        2.839473    1.471854    0.655553
     23          1           0        0.803635    2.850405    0.333165
     24          1           0        0.611388    1.562067    1.486386
     25          1           0       -0.342154    1.146881   -1.377093
     26          1           0       -1.841346    2.648029    0.838824
     27          1           0       -2.552983    2.112352   -0.691276
     28          1           0       -1.262542    3.334219   -0.686460
 ---------------------------------------------------------------------

 SCF Done:  E(RB3LYP) =  -578.279659125     A.U. after    1 cycles

 The electronic state is 1-A.
 Alpha  occ. eigenvalues --  -19.14152 -19.14074 -19.13095 -10.26643 -10.24340
 Alpha  occ. eigenvalues --  -10.24060 -10.21941 -10.20047 -10.19302 -10.19087
 Alpha  occ. eigenvalues --  -10.18990 -10.17378  -1.05204  -1.02615  -1.02351
 Alpha  occ. eigenvalues --   -0.83016  -0.77706  -0.75246  -0.70592  -0.67678
 Alpha  occ. eigenvalues --   -0.64081  -0.61366  -0.57093  -0.54415  -0.50443
 Alpha  occ. eigenvalues --   -0.49932  -0.48532  -0.47448  -0.45176  -0.43802
 Alpha  occ. eigenvalues --   -0.43517  -0.42271  -0.41816  -0.40502  -0.39647
 Alpha  occ. eigenvalues --   -0.38990  -0.38172  -0.36909  -0.35367  -0.34511
 Alpha  occ. eigenvalues --   -0.33426  -0.32742  -0.31646  -0.31131  -0.27921
 Alpha  occ. eigenvalues --   -0.26935  -0.23222
 Alpha virt. eigenvalues --   -0.01910   0.06755   0.08404   0.09061   0.09919
 Alpha virt. eigenvalues --    0.12242   0.12512   0.12914   0.14370   0.14839
 Alpha virt. eigenvalues --    0.15178   0.16078   0.16741   0.17354   0.18127

 Mulliken charges:
               1
     1  C   -0.244917
     2  O   -0.228187
     3  C    0.015086
     4  C    0.353854
     5  O   -0.301739
     6  C   -0.332267
     7  C    0.136015
     8  O   -0.429753
     9  C   -0.226216
    10  C   -0.219621
    11  C   -0.002351
    12  C   -0.400167
    13  H    0.127289
    14  H    0.096544
    15  H    0.133005
    16  H    0.069056
    17  H    0.131065
    18  H    0.094600
    19  H    0.108285
    20  H    0.275449
    21  H    0.113308
    22  H    0.088158
    23  H    0.101786
    24  H    0.095658
    25  H    0.089460
    26  H    0.107694
    27  H    0.139741
    28  H    0.109166
 Sum of Mulliken charges =  -0.00000

 Dipole moment (field-independent basis, Debye):
    X=              0.3467    Y=              2.3538    Z=              2.9587  Tot=              3.7967
 Quadrupole moment (field-independent basis, Debye-Ang):
   XX=            -73.8726   YY=            -77.3772   ZZ=            -71.4111
   XY=              3.3401   XZ=              2.3286   YZ=             -4.2152

  Exact polarizability: 121.778   2.360 107.877   2.265   1.299  85.754
 Approx polarizability: 153.490   5.186 151.950   5.518   8.006 144.640

                      1                      2                      3
                      A                      A                      A
 Frequencies --     34.5110                63.6453               106.4455
 Red. masses --      4.0126                 3.6692                 2.6866
 Frc consts  --      0.0028                 0.0088                 0.0179
 IR Inten    --      0.4063                 1.1100                 1.0589

                      4                      5                      6
                      A                      A                      A
 Frequencies --    133.5412               166.2452               191.4858
 Red. masses --      1.9540                 2.0623                 1.9105
 Frc consts  --      0.0205                 0.0336                 0.0413
 IR Inten    --      2.2652                 0.3003                 3.9586

                      7                      8                      9
                      A                      A                      A
 Frequencies --    219.2790               233.1239               271.7584
 Red. masses --      1.4531                 1.9098                 3.1934
 Frc consts  --      0.0412                 0.0612                 0.1390
 IR Inten    --      0.7173                 1.7869                 1.8936

                     10                     11                     12
                      A                      A                      A
 Frequencies --    284.1125               290.9726               328.2457
 Red. masses --      2.9408                 1.5350                 2.6079
 Frc consts  --      0.1399                 0.0766                 0.1656
 IR Inten    --      2.4930                39.2401                42.1620

                     13                     14                     15
                      A                      A                      A
 Frequencies --    345.9830               376.3441               411.5557
 Red. masses --      3.1235                 3.4445                 2.9932
 Frc consts  --      0.2203                 0.2874                 0.2987
 IR Inten    --      3.5094                20.3418                 5.2442

                     16                     17                     18
                      A                      A                      A
 Frequencies --    443.3148               468.7209               485.7337
 Red. masses --      2.3795                 2.7057                 3.1488
 Frc consts  --      0.2755                 0.3502                 0.4377
 IR Inten    --      3.2515                 1.0555                 3.1568

                     19                     20                     21
                      A                      A                      A
 Frequencies --    548.4872               635.6538               684.0461
 Red. masses --      2.6271                 3.5566                 4.4940
 Frc consts  --      0.4657                 0.8467                 1.2389
 IR Inten    --      1.0401                 3.1510                21.4304

                     22                     23                     24
                      A                      A                      A
 Frequencies --    787.3924               837.6853               844.6879
 Red. masses --      1.8996                 3.0162                 2.1927
 Frc consts  --      0.6939                 1.2470                 0.9218
 IR Inten    --      2.2215                 4.2807                 2.5145

                     25                     26                     27
                      A                      A                      A
 Frequencies --    886.8390               931.3648               952.2027
 Red. masses --      2.1695                 2.0284                 2.0890
 Frc consts  --      1.0053                 1.0367                 1.1160
 IR Inten    --      4.4766                 8.0760                10.8721

                     28                     29                     30
                      A                      A                      A
 Frequencies --    980.1235              1016.0112              1041.7928
 Red. masses --      1.8649                 2.6301                 2.9430
 Frc consts  --      1.0555                 1.5996                 1.8819
 IR Inten    --     29.4868                 9.4898                16.4231

                     31                     32                     33
                      A                      A                      A
 Frequencies --   1046.2912              1067.3667              1084.2377
 Red. masses --      2.0134                 4.0426                 2.0129
 Frc consts  --      1.2986                 2.7135                 1.3942
 IR Inten    --     16.5269               100.2351                35.7557

                     34                     35                     36
                      A                      A                      A
 Frequencies --   1128.8304              1133.1153              1148.8835
 Red. masses --      1.7945                 2.4350                 2.6053
 Frc consts  --      1.3472                 1.8420                 2.0261
 IR Inten    --     15.8924                21.1927                42.5105

                     37                     38                     39
                      A                      A                      A
 Frequencies --   1167.5126              1177.4451              1187.9326
 Red. masses --      2.6909                 1.2795                 1.5134
 Frc consts  --      2.1611                 1.0451                 1.2583
 IR Inten    --    122.7892                 3.7200                39.4469

                     40                     41                     42
                      A                      A                      A
 Frequencies --   1228.9084              1230.6914              1259.6374
 Red. masses --      1.5200                 1.4637                 1.3657
 Frc consts  --      1.3525                 1.3062                 1.2767
 IR Inten    --     25.4686                32.8131                17.8654

                     43                     44                     45
                      A                      A                      A
 Frequencies --   1264.7951              1287.5489              1322.1797
 Red. masses --      1.5934                 1.3588                 1.3001
 Frc consts  --      1.5018                 1.3272                 1.3391
 IR Inten    --      3.7469                 0.5614                 2.3066

                     46                     47                     48
                      A                      A                      A
 Frequencies --   1341.1764              1360.0590              1369.0929
 Red. masses --      1.3459                 1.3549                 1.2960
 Frc consts  --      1.4264                 1.4767                 1.4312
 IR Inten    --      3.3535                 6.6816                13.9862

                     49                     50                     51
                      A                      A                      A
 Frequencies --   1374.3028              1379.6764              1396.0651
 Red. masses --      1.3458                 1.3756                 1.3594
 Frc consts  --      1.4976                 1.5428                 1.5610
 IR Inten    --      2.9010                 1.1066                 5.3539

                     52                     53                     54
                      A                      A                      A
 Frequencies --   1408.9794              1442.5671              1474.2696
 Red. masses --      1.2643                 1.1872                 1.0990
 Frc consts  --      1.4788                 1.4557                 1.4073
 IR Inten    --      1.9479                45.1401                 5.8191

                     55                     56                     57
                      A                      A                      A
 Frequencies --   1478.0031              1480.6766              1483.1712
 Red. masses --      1.1504                 1.0805                 1.0620
 Frc consts  --      1.4807                 1.3957                 1.3764
 IR Inten    --      0.8540                 0.8629                 3.4925

                     58                     59                     60
                      A                      A                      A
 Frequencies --   1490.6702              1500.1859              1508.5225
 Red. masses --      1.0557                 1.0774                 1.0572
 Frc consts  --      1.3821                 1.4286                 1.4174
 IR Inten    --      3.2920                10.4584                 4.6867

                     61                     62                     63
                      A                      A                      A
 Frequencies --   1514.4874              1801.9504              2908.9181
 Red. masses --      1.0465                11.4506                 1.0789
 Frc consts  --      1.4142                21.9060                 5.3789
 IR Inten    --      5.6576               146.0573                24.9425

                     64                     65                     66
                      A                      A                      A
 Frequencies --   2980.0197              3008.2067              3015.5194
 Red. masses --      1.0486                 1.0688                 1.0741
 Frc consts  --      5.4865                 5.6987                 5.7546
 IR Inten    --     65.4554                14.2352                15.6084

                     67                     68                     69
                      A                      A                      A
 Frequencies --   3022.7117              3031.4225              3037.7071
 Red. masses --      1.0655                 1.0490                 1.0667
 Frc consts  --      5.7359                 5.6795                 5.7992
 IR Inten    --     14.0030                33.3137                18.2927

                     70                     71                     72
                      A                      A                      A
 Frequencies --   3049.1679              3057.9495              3073.7544
 Red. masses --      1.0837                 1.0923                 1.0844
 Frc consts  --      5.9362                 6.0182                 6.0365
 IR Inten    --      4.5422                26.8471                35.4600

                     73                     74                     75
                      A                      A                      A
 Frequencies --   3074.9121              3092.9924              3121.0048
 Red. masses --      1.0963                 1.0989                 1.1025
 Frc consts  --      6.1071                 6.1942                 6.3273
 IR Inten    --     46.2938                40.0124                23.6428

                     76                     77                     78
                      A                      A                      A
 Frequencies --   3121.0892              3150.7481              3794.7911
 Red. masses --      1.1000                 1.0971                 1.0659
 Frc consts  --      6.3132                 6.4170                 9.0435
 IR Inten    --      8.8976                11.6447                14.9862

 - Thermochemistry -
 -------------------
 Temperature   298.150 Kelvin.  Pressure   1.00000 Atm.
 Atom     1 has atomic number  6 and mass  12.00000

 Molecular mass:   172.10994 amu.
 Principal axes and moments of inertia in atomic units:
                           1         2         3
     Eigenvalues --  1322.541582578.642853633.61184
           X            0.99997   0.00754  -0.00160
           Y           -0.00757   0.99987  -0.01421
           Z            0.00149   0.01422   0.99990
 This molecule is an asymmetric top.
 Rotational symmetry number  1.
 Warning -- assumption of classical behavior for rotation
           may cause significant error
 Rotational temperatures (Kelvin)      0.06549     0.03359     0.02384
 Rotational constants (GHZ):           1.36460     0.69988     0.49668
 Zero-point vibrational energy     640489.3 (Joules/Mol)
                                  153.08062 (Kcal/Mol)
 Warning -- explicit consideration of  19 degrees of freedom as
           vibrations may cause significant error
 Vibrational temperatures:     49.65    91.57   153.15   192.14   239.19
          (Kelvin)            275.51   315.49   335.41   391.00   408.77
                              418.64   472.27   497.79   541.48   592.14
                              637.83   674.38   698.86   789.15   914.56
                              984.19  1132.88  1205.24  1215.32  1275.96
                             1340.03  1370.01  1410.18  1461.81  1498.91
                             1505.38  1535.70  1559.98  1624.14  1630.30
                             1652.99  1679.79  1694.08  1709.17  1768.13
                             1770.69  1812.34  1819.76  1852.50  1902.32
                             1929.65  1956.82  1969.82  1977.32  1985.05
                             2008.63  2027.21  2075.53  2121.15  2126.52
                             2130.36  2133.95  2144.74  2158.43  2170.43
                             2179.01  2592.60  4185.28  4287.58  4328.14
                             4338.66  4349.01  4361.54  4370.58  4387.07
                             4399.71  4422.45  4424.11  4450.13  4490.43
                             4490.55  4533.22  5459.86

 Zero-point correction=                           0.243949 (Hartree/Particle)
 Thermal correction to Energy=                    0.256859
 Thermal correction to Enthalpy=                  0.257803
 Thermal correction to Gibbs Free Energy=         0.204802
 Sum of electronic and zero-point Energies=           -578.035710
 Sum of electronic and thermal Energies=              -578.022800
 Sum of electronic and thermal Enthalpies=            -578.021856
 Sum of electronic and thermal Free Energies=         -578.074857

                     E (Thermal)             CV                S
                      KCal/Mol        Cal/Mol-Kelvin    Cal/Mol-Kelvin
 Total                  161.182             48.572            111.550
 Electronic               0.000              0.000              0.000
 Translational            0.889              2.981             41.336
 Rotational               0.889              2.981             30.895
 Vibrational            159.404             42.610             39.319
 Vibration     1          0.594              1.983              5.552
 Vibration     2          0.597              1.972              4.341
 Vibration     3          0.605              1.944              3.333
 Vibration     4          0.613              1.920              2.894
 Vibration     5          0.624              1.884              2.478
 Vibration     6          0.634              1.852              2.213
 Vibration     7          0.647              1.812              1.965
 Vibration     8          0.654              1.790              1.855
 Vibration     9          0.675              1.725              1.585
 Vibration    10          0.683              1.703              1.509
 Vibration    11          0.687              1.691              1.468
 Vibration    12          0.711              1.619              1.269
 Vibration    13          0.724              1.583              1.184
 Vibration    14          0.747              1.521              1.054
 Vibration    15          0.776              1.445              0.921
 Vibration    16          0.803              1.376              0.816
 Vibration    17          0.826              1.319              0.741
 Vibration    18          0.842              1.282              0.695
 Vibration    19          0.904              1.143              0.547

 Optimization completed.
    -- Stationary point found.
 Normal termination of Gaussian 16 at Sun May 28 06:26:46 2023.
