 Gaussian 16, Revision A.03,
 Gaussian 16:  ES64L-G16RevA.03 25-Dec-2016

 -----------------------------
 # opt freq b3lyp/6-31g(2df,p)
 -----------------------------

 -------------------
 Title Card Required
 -------------------
 Symbolic Z-matrix:
 Charge =  0 Multiplicity = 1

 SCF Done:  E(RB3LYP) =  -984.470201435     A.U. after   12 cycles
 SCF Done:  E(RB3LYP) =  -984.478520927     A.U. after   11 cycles
 SCF Done:  E(RB3LYP) =  -984.481891653     A.U. after   11 cycles
 SCF Done:  E(RB3LYP) =  -984.484429439     A.U. after   10 cycles
 SCF Done:  E(RB3LYP) =  -984.485497347     A.U. after   11 cycles
 SCF Done:  E(RB3LYP) =  -984.486008154     A.U. after   11 cycles
 SCF Done:  E(RB3LYP) =  -984.486475806     A.U. after   10 cycles
 SCF Done:  E(RB3LYP) =  -984.486791057     A.U. after   10 cycles
 SCF Done:  E(RB3LYP) =  -984.486668206     A.U. after   11 cycles
 SCF Done:  E(RB3LYP) =  -984.487460180     A.U. after   10 cycles
 SCF Done:  E(RB3LYP) =  -984.487746784     A.U. after   10 cycles
 SCF Done:  E(RB3LYP) =  -984.487923917     A.U. after    9 cycles
 SCF Done:  E(RB3LYP) =  -984.487941030     A.U. after    9 cycles
 SCF Done:  E(RB3LYP) =  -984.487944583     A.U. after    8 cycles
 SCF Done:  E(RB3LYP) =  -984.487946304     A.U. after    7 cycles
 SCF Done:  E(RB3LYP) =  -984.487946435     A.U. after    6 cycles
 SCF Done:  E(RB3LYP) =  -984.487946514     A.U. after    5 cycles
 SCF Done:  E(RB3LYP) =  -984.487946557     A.U. after    5 cycles
 SCF Done:  E(RB3LYP) =  -984.487946579     A.U. after    5 cycles
 Optimization completed.
    -- Stationary point found.
 Normal termination of Gaussian 16 at Sat May 27 15:59:27 2023.

 ----------------------------------------------------------------------
 #N Geom=AllCheck Guess=TCheck SCRF=Check GenChk RB3LYP/6-31G(2df,p) Fr
 eq
 ----------------------------------------------------------------------

 Structure from the checkpoint file:  "COC1qCrCCCqCrCqCqCrSCrCC1.chk"
 -------------------
 Title Card Required
 -------------------
 Charge =  0 Multiplicity = 1

                         Standard orientation:
 ---------------------------------------------------------------------
 Center     Atomic      Atomic             Coordinates (Angstroms)
 Number     Number       Type             X           Y           Z
 ---------------------------------------------------------------------
      1          6           0       -4.844570   -0.279896   -0.116804
      2          8           0       -3.691720   -0.367829    0.687644
      3          6           0       -2.404171   -0.459465    0.043960
      4          6           0       -2.324747   -1.749074   -0.788606
      5          6           0       -2.175599    0.784247   -0.845535
      6          6           0       -0.718845    1.150050   -1.180815
      7          6           0        0.070767    1.675250    0.045161
      8          6           0        0.861728    2.945847   -0.301662
      9          6           0        0.889594    0.562678    0.768576
     10          6           0        2.282026    0.300882    0.095831
     11          6           0        3.394509    1.115142    0.768531
     12         16           0        2.750863   -1.497958    0.070096
     13          6           0        4.186383   -1.443266   -1.046209
     14          6           0        0.041738   -0.720091    0.963332
     15          6           0       -1.455888   -0.531816    1.264686
     16          1           0       -5.690808   -0.194269    0.570691
     17          1           0       -5.003035   -1.170736   -0.740925
     18          1           0       -4.845432    0.603381   -0.770788
     19          1           0       -3.081948   -1.755222   -1.577705
     20          1           0       -2.480877   -2.626934   -0.154508
     21          1           0       -1.354955   -1.851750   -1.281970
     22          1           0       -2.631188    1.640547   -0.332004
     23          1           0       -2.729514    0.654071   -1.782808
     24          1           0       -0.748521    1.931757   -1.948314
     25          1           0       -0.200417    0.303389   -1.647349
     26          1           0       -0.677919    1.996672    0.778809
     27          1           0        1.633370    2.770199   -1.058575
     28          1           0        1.344001    3.377601    0.581007
     29          1           0        0.181914    3.704038   -0.704694
     30          1           0        1.109144    0.951805    1.771738
     31          1           0        2.217669    0.574875   -0.963429
     32          1           0        3.522471    0.790288    1.805663
     33          1           0        3.159320    2.182355    0.772120
     34          1           0        4.353466    0.994985    0.257565
     35          1           0        4.445931   -2.482346   -1.259932
     36          1           0        5.051035   -0.954258   -0.592726
     37          1           0        3.931543   -0.946241   -1.986554
     38          1           0        0.488626   -1.289315    1.785243
     39          1           0        0.147050   -1.362417    0.087244
     40          1           0       -1.633240    0.349294    1.891140
     41          1           0       -1.805276   -1.384724    1.855707
 ---------------------------------------------------------------------

 SCF Done:  E(RB3LYP) =  -984.487946579     A.U. after    1 cycles

 The electronic state is 1-A.
 Alpha  occ. eigenvalues --  -88.85607 -19.12555 -10.23065 -10.21491 -10.21307
 Alpha  occ. eigenvalues --  -10.20388 -10.18838 -10.18476 -10.17803 -10.17471
 Alpha  occ. eigenvalues --  -10.17426 -10.17396 -10.17051 -10.16900 -10.16725
 Alpha  occ. eigenvalues --   -7.91924  -5.88408  -5.88065  -5.87441  -1.01588
 Alpha  occ. eigenvalues --   -0.83760  -0.80175  -0.77665  -0.75542  -0.72906
 Alpha  occ. eigenvalues --   -0.71067  -0.68718  -0.66746  -0.64126  -0.62985
 Alpha  occ. eigenvalues --   -0.60936  -0.57537  -0.53188  -0.52661  -0.49062
 Alpha  occ. eigenvalues --   -0.46664  -0.45888  -0.45532  -0.44466  -0.43229
 Alpha  occ. eigenvalues --   -0.42896  -0.42107  -0.41960  -0.41384  -0.40738
 Alpha  occ. eigenvalues --   -0.39655  -0.39403  -0.38278  -0.37948  -0.37256
 Alpha  occ. eigenvalues --   -0.36678  -0.36105  -0.35173  -0.34446  -0.33664
 Alpha  occ. eigenvalues --   -0.32535  -0.31718  -0.31216  -0.30040  -0.29824
 Alpha  occ. eigenvalues --   -0.28533  -0.28118  -0.24293  -0.21157
 Alpha virt. eigenvalues --    0.04921   0.07369   0.07947   0.08680   0.08991
 Alpha virt. eigenvalues --    0.10841   0.11473   0.12060   0.12350   0.13264
 Alpha virt. eigenvalues --    0.13753   0.14116   0.14442   0.14938   0.15315

 Mulliken charges:
               1
     1  C   -0.243334
     2  O   -0.278243
     3  C    0.370481
     4  C   -0.427135
     5  C   -0.235145
     6  C   -0.231126
     7  C    0.061409
     8  C   -0.434320
     9  C   -0.022964
    10  C    0.013183
    11  C   -0.395942
    12  S   -0.164784
    13  C   -0.384549
    14  C   -0.246183
    15  C   -0.253651
    16  H    0.123319
    17  H    0.103078
    18  H    0.101821
    19  H    0.110540
    20  H    0.117713
    21  H    0.125312
    22  H    0.100953
    23  H    0.086514
    24  H    0.089559
    25  H    0.100456
    26  H    0.079133
    27  H    0.115144
    28  H    0.114874
    29  H    0.110448
    30  H    0.071212
    31  H    0.096905
    32  H    0.128973
    33  H    0.118685
    34  H    0.112092
    35  H    0.146371
    36  H    0.140356
    37  H    0.135225
    38  H    0.113122
    39  H    0.132079
    40  H    0.098589
    41  H    0.099831
 Sum of Mulliken charges =  -0.00000

 Dipole moment (field-independent basis, Debye):
    X=              0.5338    Y=              1.3292    Z=             -1.6820  Tot=              2.2093
 Quadrupole moment (field-independent basis, Debye-Ang):
   XX=            -98.6739   YY=           -104.5836   ZZ=           -103.4196
   XY=              1.1640   XZ=              0.4423   YZ=              1.7924

  Exact polarizability: 195.319  -2.836 157.873  -2.632   1.241 135.018
 Approx polarizability: 240.690  -7.216 233.541  -7.562   2.951 222.194

                      1                      2                      3
                      A                      A                      A
 Frequencies --     34.2203                47.5390                59.1339
 Red. masses --      3.5474                 3.2502                 3.2602
 Frc consts  --      0.0024                 0.0043                 0.0067
 IR Inten    --      0.1625                 0.7813                 1.6445

                      4                      5                      6
                      A                      A                      A
 Frequencies --     68.6109                84.2810               143.2165
 Red. masses --      1.8377                 2.7921                 3.1130
 Frc consts  --      0.0051                 0.0117                 0.0376
 IR Inten    --      2.0379                 0.3569                 0.2261

                      7                      8                      9
                      A                      A                      A
 Frequencies --    168.1273               187.2668               190.5852
 Red. masses --      1.2489                 1.6519                 2.0881
 Frc consts  --      0.0208                 0.0341                 0.0447
 IR Inten    --      0.2733                 0.6824                 0.5212

                     10                     11                     12
                      A                      A                      A
 Frequencies --    194.0817               212.5599               230.7442
 Red. masses --      1.5891                 1.8353                 1.4844
 Frc consts  --      0.0353                 0.0489                 0.0466
 IR Inten    --      0.7885                 0.8163                 0.2266

                     13                     14                     15
                      A                      A                      A
 Frequencies --    242.0318               249.1266               267.2674
 Red. masses --      1.8995                 2.5161                 2.2765
 Frc consts  --      0.0656                 0.0920                 0.0958
 IR Inten    --      0.1031                 1.6236                 0.0419

                     16                     17                     18
                      A                      A                      A
 Frequencies --    294.3907               298.1582               309.2640
 Red. masses --      1.4525                 2.8871                 1.9696
 Frc consts  --      0.0742                 0.1512                 0.1110
 IR Inten    --      1.0903                 0.0826                 1.1860

                     19                     20                     21
                      A                      A                      A
 Frequencies --    347.5682               365.6187               374.6547
 Red. masses --      1.8559                 2.4103                 2.6792
 Frc consts  --      0.1321                 0.1898                 0.2216
 IR Inten    --      0.3477                 0.1880                 0.8163

                     22                     23                     24
                      A                      A                      A
 Frequencies --    391.0514               415.8682               424.6424
 Red. masses --      2.6736                 2.3245                 2.2279
 Frc consts  --      0.2409                 0.2369                 0.2367
 IR Inten    --      2.0340                 0.6469                 0.9864

                     25                     26                     27
                      A                      A                      A
 Frequencies --    445.2935               488.3421               532.2949
 Red. masses --      2.9192                 2.9101                 2.6052
 Frc consts  --      0.3410                 0.4089                 0.4349
 IR Inten    --      3.3002                 0.3467                 0.6005

                     28                     29                     30
                      A                      A                      A
 Frequencies --    555.8752               590.0449               679.9567
 Red. masses --      3.0755                 2.6758                 2.8651
 Frc consts  --      0.5599                 0.5489                 0.7804
 IR Inten    --      1.7362                 5.1966                 0.6718

                     31                     32                     33
                      A                      A                      A
 Frequencies --    700.7689               719.5796               753.0525
 Red. masses --      3.0390                 5.4954                 2.4674
 Frc consts  --      0.8793                 1.6765                 0.8244
 IR Inten    --      4.6833                 0.7290                 0.4414

                     34                     35                     36
                      A                      A                      A
 Frequencies --    827.6480               851.7242               869.2274
 Red. masses --      1.8387                 2.3491                 1.9143
 Frc consts  --      0.7421                 1.0040                 0.8522
 IR Inten    --      0.9669                 9.2786                 2.7394

                     37                     38                     39
                      A                      A                      A
 Frequencies --    913.0946               924.5495               934.6017
 Red. masses --      1.8865                 1.7159                 1.9892
 Frc consts  --      0.9267                 0.8642                 1.0237
 IR Inten    --      8.6011                 0.0148                 2.0999

                     40                     41                     42
                      A                      A                      A
 Frequencies --    956.1556               961.9206               967.8781
 Red. masses --      1.4557                 1.5862                 1.2615
 Frc consts  --      0.7841                 0.8648                 0.6963
 IR Inten    --      4.1390                 3.3874                 3.8269

                     43                     44                     45
                      A                      A                      A
 Frequencies --    990.2618               996.1393              1025.7287
 Red. masses --      1.8313                 1.6521                 1.8949
 Frc consts  --      1.0581                 0.9659                 1.1746
 IR Inten    --      3.5341                 3.8389                 0.3549

                     46                     47                     48
                      A                      A                      A
 Frequencies --   1039.6002              1050.3656              1069.1949
 Red. masses --      1.7785                 2.3263                 2.4677
 Frc consts  --      1.1325                 1.5122                 1.6621
 IR Inten    --      0.4486                 2.3851                 3.9690

                     49                     50                     51
                      A                      A                      A
 Frequencies --   1085.0955              1099.8406              1107.8868
 Red. masses --      2.0009                 2.1208                 1.9463
 Frc consts  --      1.3881                 1.5115                 1.4075
 IR Inten    --      0.9162                12.1148                30.8042

                     52                     53                     54
                      A                      A                      A
 Frequencies --   1114.2904              1140.1432              1148.9224
 Red. masses --      1.8216                 3.3775                 2.0602
 Frc consts  --      1.3326                 2.5868                 1.6023
 IR Inten    --     11.8365               115.5343                13.1023

                     55                     56                     57
                      A                      A                      A
 Frequencies --   1172.3980              1179.7555              1185.1711
 Red. masses --      2.3813                 1.3037                 1.8306
 Frc consts  --      1.9285                 1.0691                 1.5150
 IR Inten    --     33.4267                 3.2348                27.4492

                     58                     59                     60
                      A                      A                      A
 Frequencies --   1215.9834              1237.9113              1253.4953
 Red. masses --      1.3778                 1.4942                 1.4439
 Frc consts  --      1.2003                 1.3491                 1.3367
 IR Inten    --      4.1362                 9.8124                 6.9230

                     61                     62                     63
                      A                      A                      A
 Frequencies --   1263.0101              1298.1494              1303.4378
 Red. masses --      1.2328                 1.3137                 1.4477
 Frc consts  --      1.1587                 1.3043                 1.4492
 IR Inten    --     14.6355                 8.6327                 1.7691

                     64                     65                     66
                      A                      A                      A
 Frequencies --   1315.6996              1340.1767              1347.9951
 Red. masses --      1.4984                 1.2568                 1.2606
 Frc consts  --      1.5283                 1.3299                 1.3496
 IR Inten    --      4.6272                 8.4552                 0.8016

                     67                     68                     69
                      A                      A                      A
 Frequencies --   1349.9161              1355.2230              1362.2874
 Red. masses --      1.1704                 1.3097                 1.4010
 Frc consts  --      1.2566                 1.4173                 1.5319
 IR Inten    --      5.9841                 0.5522                 2.1020

                     70                     71                     72
                      A                      A                      A
 Frequencies --   1373.2051              1384.2374              1396.4636
 Red. masses --      1.3067                 1.4319                 1.3336
 Frc consts  --      1.4517                 1.6165                 1.5323
 IR Inten    --      4.5805                 1.1933                 2.3805

                     73                     74                     75
                      A                      A                      A
 Frequencies --   1399.7665              1407.2221              1412.0560
 Red. masses --      1.3645                 1.2618                 1.2244
 Frc consts  --      1.5752                 1.4722                 1.4383
 IR Inten    --      5.3501                 6.9970                 6.1245

                     76                     77                     78
                      A                      A                      A
 Frequencies --   1415.6281              1464.7629              1475.3459
 Red. masses --      1.2619                 1.0536                 1.1131
 Frc consts  --      1.4900                 1.3318                 1.4275
 IR Inten    --      7.2423                 7.6655                 1.5908

                     79                     80                     81
                      A                      A                      A
 Frequencies --   1480.6916              1481.4136              1485.2750
 Red. masses --      1.0548                 1.0617                 1.0669
 Frc consts  --      1.3625                 1.3728                 1.3867
 IR Inten    --      9.1561                 0.0880                 5.4885

                     82                     83                     84
                      A                      A                      A
 Frequencies --   1487.7334              1490.3242              1492.5275
 Red. masses --      1.0725                 1.0561                 1.0754
 Frc consts  --      1.3986                 1.3820                 1.4115
 IR Inten    --      1.2066                 2.1360                 1.8956

                     85                     86                     87
                      A                      A                      A
 Frequencies --   1497.7021              1502.1111              1504.5846
 Red. masses --      1.0459                 1.0626                 1.0746
 Frc consts  --      1.3822                 1.4126                 1.4332
 IR Inten    --      8.3407                 2.2495                 1.8067

                     88                     89                     90
                      A                      A                      A
 Frequencies --   1506.9873              1511.0030              1512.9324
 Red. masses --      1.0557                 1.0489                 1.0542
 Frc consts  --      1.4125                 1.4110                 1.4217
 IR Inten    --      1.8404                 4.5671                 7.3800

                     91                     92                     93
                      A                      A                      A
 Frequencies --   1519.4491              2990.1591              3000.1386
 Red. masses --      1.0733                 1.0356                 1.0829
 Frc consts  --      1.4600                 5.4557                 5.7425
 IR Inten    --     19.7071                51.0466                15.0046

                     94                     95                     96
                      A                      A                      A
 Frequencies --   3015.7526              3022.0988              3025.9166
 Red. masses --      1.0617                 1.0758                 1.0639
 Frc consts  --      5.6891                 5.7891                 5.7395
 IR Inten    --     22.3615                11.2587                 5.5509

                     97                     98                     99
                      A                      A                      A
 Frequencies --   3027.6351              3031.7346              3037.4727
 Red. masses --      1.0589                 1.0623                 1.0863
 Frc consts  --      5.7189                 5.7530                 5.9050
 IR Inten    --     13.0829                52.1841                23.8937

                    100                    101                    102
                      A                      A                      A
 Frequencies --   3038.5683              3039.7903              3045.8303
 Red. masses --      1.0352                 1.0663                 1.0481
 Frc consts  --      5.6313                 5.8050                 5.7286
 IR Inten    --     33.7426                25.1339                26.4586

                    103                    104                    105
                      A                      A                      A
 Frequencies --   3047.1171              3051.7462              3056.6831
 Red. masses --      1.0362                 1.0654                 1.0983
 Frc consts  --      5.6685                 5.8458                 6.0461
 IR Inten    --     30.3341                20.3705                36.5573

                    106                    107                    108
                      A                      A                      A
 Frequencies --   3063.2680              3077.7338              3092.3993
 Red. masses --      1.1022                 1.1009                 1.1008
 Frc consts  --      6.0939                 6.1439                 6.2023
 IR Inten    --     28.3105                28.7533                54.8797

                    109                    110                    111
                      A                      A                      A
 Frequencies --   3100.1425              3101.1510              3105.6643
 Red. masses --      1.0971                 1.1011                 1.0940
 Frc consts  --      6.2124                 6.2394                 6.2168
 IR Inten    --     34.2313                23.5719                29.3186

                    112                    113                    114
                      A                      A                      A
 Frequencies --   3113.2272              3114.7098              3120.4681
 Red. masses --      1.1002                 1.1023                 1.1044
 Frc consts  --      6.2824                 6.3005                 6.3363
 IR Inten    --     23.1493                24.1590                14.9142

                    115                    116                    117
                      A                      A                      A
 Frequencies --   3122.5179              3123.8698              3135.5910
 Red. masses --      1.0983                 1.0990                 1.1027
 Frc consts  --      6.3093                 6.3190                 6.3876
 IR Inten    --     28.0234                19.6654                 7.3131

 - Thermochemistry -
 -------------------
 Temperature   298.150 Kelvin.  Pressure   1.00000 Atm.
 Atom     1 has atomic number  6 and mass  12.00000

 Molecular mass:   230.17044 amu.
 Principal axes and moments of inertia in atomic units:
                           1         2         3
     Eigenvalues --  1970.060976322.141227279.45534
           X            0.99990   0.01376   0.00342
           Y           -0.01381   0.99982   0.01296
           Z           -0.00324  -0.01300   0.99991
 This molecule is an asymmetric top.
 Rotational symmetry number  1.
 Warning -- assumption of classical behavior for rotation
           may cause significant error
 Rotational temperatures (Kelvin)      0.04397     0.01370     0.01190
 Rotational constants (GHZ):           0.91608     0.28546     0.24792
 Zero-point vibrational energy     976289.8 (Joules/Mol)
                                  233.33886 (Kcal/Mol)
 Warning -- explicit consideration of  29 degrees of freedom as
           vibrations may cause significant error
 Vibrational temperatures:     49.24    68.40    85.08    98.72   121.26
          (Kelvin)            206.06   241.90   269.44   274.21   279.24
                              305.83   331.99   348.23   358.44   384.54
                              423.56   428.98   444.96   500.07   526.04
                              539.04   562.64   598.34   610.97   640.68
                              702.62   765.85   799.78   848.94   978.31
                             1008.25  1035.31  1083.47  1190.80  1225.44
                             1250.62  1313.74  1330.22  1344.68  1375.69
                             1383.99  1392.56  1424.77  1433.22  1475.79
                             1495.75  1511.24  1538.33  1561.21  1582.43
                             1594.00  1603.22  1640.41  1653.04  1686.82
                             1697.41  1705.20  1749.53  1781.08  1803.50
                             1817.19  1867.75  1875.36  1893.00  1928.22
                             1939.46  1942.23  1949.86  1960.03  1975.74
                             1991.61  2009.20  2013.95  2024.68  2031.63
                             2036.77  2107.47  2122.69  2130.38  2131.42
                             2136.98  2140.52  2144.24  2147.41  2154.86
                             2161.20  2164.76  2168.22  2174.00  2176.77
                             2186.15  4302.17  4316.53  4339.00  4348.13
                             4353.62  4356.09  4361.99  4370.25  4371.82
                             4373.58  4382.27  4384.12  4390.78  4397.89
                             4407.36  4428.17  4449.27  4460.41  4461.86
                             4468.36  4479.24  4481.37  4489.66  4492.61
                             4494.55  4511.42

 Zero-point correction=                           0.371849 (Hartree/Particle)
 Thermal correction to Energy=                    0.390080
 Thermal correction to Enthalpy=                  0.391024
 Thermal correction to Gibbs Free Energy=         0.326218
 Sum of electronic and zero-point Energies=           -984.116097
 Sum of electronic and thermal Energies=              -984.097866
 Sum of electronic and thermal Enthalpies=            -984.096922
 Sum of electronic and thermal Free Energies=         -984.161729

                     E (Thermal)             CV                S
                      KCal/Mol        Cal/Mol-Kelvin    Cal/Mol-Kelvin
 Total                  244.779             69.703            136.397
 Electronic               0.000              0.000              0.000
 Translational            0.889              2.981             42.203
 Rotational               0.889              2.981             32.872
 Vibrational            243.002             63.741             61.322
 Vibration     1          0.594              1.983              5.568
 Vibration     2          0.595              1.979              4.917
 Vibration     3          0.597              1.974              4.486
 Vibration     4          0.598              1.969              4.193
 Vibration     5          0.601              1.960              3.789
 Vibration     6          0.616              1.910              2.760
 Vibration     7          0.625              1.882              2.456
 Vibration     8          0.632              1.857              2.255
 Vibration     9          0.634              1.853              2.222
 Vibration    10          0.635              1.848              2.188
 Vibration    11          0.644              1.822              2.022
 Vibration    12          0.652              1.794              1.873
 Vibration    13          0.658              1.776              1.788
 Vibration    14          0.662              1.764              1.737
 Vibration    15          0.672              1.733              1.614
 Vibration    16          0.689              1.684              1.449
 Vibration    17          0.691              1.677              1.427
 Vibration    18          0.699              1.656              1.366
 Vibration    19          0.725              1.580              1.177
 Vibration    20          0.739              1.543              1.098
 Vibration    21          0.746              1.524              1.061
 Vibration    22          0.759              1.489              0.996
 Vibration    23          0.779              1.436              0.906
 Vibration    24          0.787              1.417              0.876
 Vibration    25          0.805              1.371              0.810
 Vibration    26          0.844              1.276              0.688
 Vibration    27          0.887              1.179              0.582
 Vibration    28          0.911              1.127              0.532
 Vibration    29          0.947              1.053              0.467

                           ! Non-Optimized Parameters !
 Normal termination of Gaussian 16 at Sat May 27 20:00:04 2023.
