 Gaussian 16, Revision A.03,
 Gaussian 16:  ES64L-G16RevA.03 25-Dec-2016

 -----------------------------
 # opt freq b3lyp/6-31g(2df,p)
 -----------------------------

 -------------------
 Title Card Required
 -------------------
 Symbolic Z-matrix:
 Charge =  0 Multiplicity = 1

 SCF Done:  E(RB3LYP) =  -622.175037695     A.U. after   12 cycles
 SCF Done:  E(RB3LYP) =  -622.185934021     A.U. after   11 cycles
 SCF Done:  E(RB3LYP) =  -622.189679633     A.U. after   10 cycles
 SCF Done:  E(RB3LYP) =  -622.191380600     A.U. after   10 cycles
 SCF Done:  E(RB3LYP) =  -622.192079389     A.U. after   10 cycles
 SCF Done:  E(RB3LYP) =  -622.192290237     A.U. after   10 cycles
 SCF Done:  E(RB3LYP) =  -622.192442912     A.U. after    9 cycles
 SCF Done:  E(RB3LYP) =  -622.192479692     A.U. after    9 cycles
 SCF Done:  E(RB3LYP) =  -622.192499313     A.U. after    9 cycles
 SCF Done:  E(RB3LYP) =  -622.192508549     A.U. after    8 cycles
 SCF Done:  E(RB3LYP) =  -622.192523862     A.U. after    9 cycles
 SCF Done:  E(RB3LYP) =  -622.192527279     A.U. after    8 cycles
 SCF Done:  E(RB3LYP) =  -622.192527724     A.U. after    6 cycles
 Optimization completed.
    -- Stationary point found.
 Normal termination of Gaussian 16 at Mon May 22 12:46:32 2023.

 ----------------------------------------------------------------------
 #N Geom=AllCheck Guess=TCheck SCRF=Check GenChk RB3LYP/6-31G(2df,p) Fr
 eq
 ----------------------------------------------------------------------

 Structure from the checkpoint file:  "COC1CqCrCCqCrOCCC1qCrC.chk"
 -------------------
 Title Card Required
 -------------------
 Charge =  0 Multiplicity = 1

                         Standard orientation:
 ---------------------------------------------------------------------
 Center     Atomic      Atomic             Coordinates (Angstroms)
 Number     Number       Type             X           Y           Z
 ---------------------------------------------------------------------
      1          6           0        2.185127   -1.704624   -1.626847
      2          8           0        2.104659   -0.765509   -0.581252
      3          6           0        0.791144   -0.275152   -0.288422
      4          6           0        0.051858   -1.324563    0.594889
      5          6           0        0.874598   -1.807462    1.803596
      6          6           0       -1.390294   -1.024235    1.066443
      7          6           0       -2.486733   -0.528072    0.093748
      8          6           0       -2.489618   -1.206577   -1.281239
      9          8           0       -2.614121    0.889612    0.012345
     10          6           0       -1.558783    1.678484   -0.509615
     11          6           0       -0.385222    1.897975    0.474658
     12          6           0        0.966058    1.204702    0.163524
     13          6           0        1.885739    1.338516    1.391796
     14          6           0        1.629913    1.958164   -1.013789
     15          1           0        3.246892   -1.894960   -1.806048
     16          1           0        1.735069   -1.318792   -2.554937
     17          1           0        1.701032   -2.661304   -1.381913
     18          1           0        0.243069   -0.230639   -1.239901
     19          1           0       -0.033904   -2.191176   -0.075653
     20          1           0        0.843028   -1.094252    2.632259
     21          1           0        1.919151   -1.964339    1.529394
     22          1           0        0.470031   -2.753839    2.178174
     23          1           0       -1.377423   -0.336273    1.918045
     24          1           0       -1.759867   -1.974205    1.475172
     25          1           0       -3.434666   -0.798500    0.574839
     26          1           0       -1.591188   -0.999336   -1.867756
     27          1           0       -3.355054   -0.866319   -1.856659
     28          1           0       -2.561980   -2.293014   -1.163302
     29          1           0       -2.035131    2.640443   -0.721860
     30          1           0       -1.207809    1.290655   -1.475815
     31          1           0       -0.743706    1.627443    1.471152
     32          1           0       -0.174354    2.972934    0.525886
     33          1           0        1.422055    0.939735    2.297331
     34          1           0        2.108980    2.394826    1.578534
     35          1           0        2.831138    0.815373    1.230023
     36          1           0        1.003463    1.936417   -1.913171
     37          1           0        2.594464    1.514903   -1.266552
     38          1           0        1.789684    3.008468   -0.748433
 ---------------------------------------------------------------------

 SCF Done:  E(RB3LYP) =  -622.192527724     A.U. after    1 cycles

 The electronic state is 1-A.
 Alpha  occ. eigenvalues --  -19.13713 -19.12615 -10.22895 -10.22620 -10.22444
 Alpha  occ. eigenvalues --  -10.22011 -10.19087 -10.18629 -10.17749 -10.17418
 Alpha  occ. eigenvalues --  -10.17170 -10.16542 -10.16329 -10.16228  -1.02848
 Alpha  occ. eigenvalues --   -1.01679  -0.82094  -0.79995  -0.75286  -0.72100
 Alpha  occ. eigenvalues --   -0.70103  -0.68045  -0.67497  -0.64840  -0.63344
 Alpha  occ. eigenvalues --   -0.57841  -0.55853  -0.51843  -0.49985  -0.48304
 Alpha  occ. eigenvalues --   -0.47165  -0.46487  -0.45865  -0.43817  -0.43284
 Alpha  occ. eigenvalues --   -0.42284  -0.41385  -0.40826  -0.40573  -0.39163
 Alpha  occ. eigenvalues --   -0.38329  -0.37725  -0.37153  -0.36639  -0.35877
 Alpha  occ. eigenvalues --   -0.35528  -0.34625  -0.34050  -0.33188  -0.31480
 Alpha  occ. eigenvalues --   -0.31317  -0.30499  -0.29204  -0.28106  -0.24915
 Alpha  occ. eigenvalues --   -0.24109
 Alpha virt. eigenvalues --    0.06127   0.08400   0.08697   0.10328   0.10902
 Alpha virt. eigenvalues --    0.12505   0.12687   0.13877   0.14288   0.14621
 Alpha virt. eigenvalues --    0.15296   0.15645   0.16108   0.16456   0.17227

 Mulliken charges:
               1
     1  C   -0.242420
     2  O   -0.245948
     3  C    0.075422
     4  C    0.003624
     5  C   -0.399432
     6  C   -0.244631
     7  C    0.125690
     8  C   -0.414605
     9  O   -0.263824
    10  C   -0.088605
    11  C   -0.238941
    12  C    0.241957
    13  C   -0.418537
    14  C   -0.412052
    15  H    0.125542
    16  H    0.104273
    17  H    0.108532
    18  H    0.056129
    19  H    0.074347
    20  H    0.116326
    21  H    0.128230
    22  H    0.103285
    23  H    0.107893
    24  H    0.095056
    25  H    0.084629
    26  H    0.120983
    27  H    0.122164
    28  H    0.115294
    29  H    0.103700
    30  H    0.087029
    31  H    0.104446
    32  H    0.090868
    33  H    0.108892
    34  H    0.102799
    35  H    0.128828
    36  H    0.102002
    37  H    0.126994
    38  H    0.104063
 Sum of Mulliken charges =  -0.00000

 Dipole moment (field-independent basis, Debye):
    X=              0.2303    Y=             -1.0544    Z=             -0.8208  Tot=              1.3559
 Quadrupole moment (field-independent basis, Debye-Ang):
   XX=            -95.2614   YY=            -86.2733   ZZ=            -88.0749
   XY=              2.1353   XZ=             -1.0915   YZ=              1.0352

  Exact polarizability: 140.120   2.098 138.789   0.095  -0.944 124.856
 Approx polarizability: 191.912   1.022 194.899  -2.193   0.477 186.943

                      1                      2                      3
                      A                      A                      A
 Frequencies --     43.5731                67.4276                96.2002
 Red. masses --      2.0221                 2.8642                 3.0154
 Frc consts  --      0.0023                 0.0077                 0.0164
 IR Inten    --      1.2797                 0.0868                 0.7324

                      4                      5                      6
                      A                      A                      A
 Frequencies --    148.5237               160.2440               173.2207
 Red. masses --      2.6965                 2.7753                 1.3079
 Frc consts  --      0.0350                 0.0420                 0.0231
 IR Inten    --      0.3645                 1.1891                 0.2518

                      7                      8                      9
                      A                      A                      A
 Frequencies --    198.2790               201.9069               217.7037
 Red. masses --      1.9886                 1.0766                 1.2116
 Frc consts  --      0.0461                 0.0259                 0.0338
 IR Inten    --      0.6351                 0.2576                 0.1674

                     10                     11                     12
                      A                      A                      A
 Frequencies --    240.5776               245.3364               252.0006
 Red. masses --      1.2920                 2.1392                 2.5216
 Frc consts  --      0.0441                 0.0759                 0.0943
 IR Inten    --      0.5804                 0.3085                 0.2681

                     13                     14                     15
                      A                      A                      A
 Frequencies --    267.4998               294.7383               305.3110
 Red. masses --      1.9169                 2.0684                 1.9454
 Frc consts  --      0.0808                 0.1059                 0.1068
 IR Inten    --      1.5077                 1.8832                 0.2601

                     16                     17                     18
                      A                      A                      A
 Frequencies --    314.4061               338.7506               356.6693
 Red. masses --      2.2647                 2.8765                 2.4696
 Frc consts  --      0.1319                 0.1945                 0.1851
 IR Inten    --      0.0497                 3.5348                 4.3273

                     19                     20                     21
                      A                      A                      A
 Frequencies --    363.4262               390.4908               427.0539
 Red. masses --      2.6115                 2.7043                 2.5611
 Frc consts  --      0.2032                 0.2430                 0.2752
 IR Inten    --      0.3078                 0.1022                 0.6026

                     22                     23                     24
                      A                      A                      A
 Frequencies --    454.6042               476.3421               500.9237
 Red. masses --      2.7266                 2.6624                 2.8861
 Frc consts  --      0.3320                 0.3559                 0.4267
 IR Inten    --      4.7039                 1.8804                 2.9800

                     25                     26                     27
                      A                      A                      A
 Frequencies --    536.5024               586.0142               656.2560
 Red. masses --      3.7201                 2.1533                 2.2925
 Frc consts  --      0.6309                 0.4357                 0.5817
 IR Inten    --      9.4037                 1.0733                 0.7265

                     28                     29                     30
                      A                      A                      A
 Frequencies --    739.1765               772.2956               801.8563
 Red. masses --      3.0522                 3.2136                 2.2339
 Frc consts  --      0.9826                 1.1293                 0.8463
 IR Inten    --      4.3363                 0.6650                 1.2668

                     31                     32                     33
                      A                      A                      A
 Frequencies --    845.7823               879.8148               895.5385
 Red. masses --      2.4817                 1.6975                 2.0827
 Frc consts  --      1.0460                 0.7742                 0.9841
 IR Inten    --      0.4744                 0.4190                11.3647

                     34                     35                     36
                      A                      A                      A
 Frequencies --    922.1979               946.3748               950.5119
 Red. masses --      2.1338                 1.8186                 1.5756
 Frc consts  --      1.0692                 0.9597                 0.8387
 IR Inten    --      3.0672                 1.5539                 1.1027

                     37                     38                     39
                      A                      A                      A
 Frequencies --    965.9791               991.4817              1002.8181
 Red. masses --      3.0986                 1.7962                 1.6707
 Frc consts  --      1.7035                 1.0403                 0.9899
 IR Inten    --     16.9018                 2.4700                16.3338

                     40                     41                     42
                      A                      A                      A
 Frequencies --   1025.2771              1031.9025              1038.4266
 Red. masses --      1.6625                 1.8961                 1.6663
 Frc consts  --      1.0297                 1.1896                 1.0586
 IR Inten    --      8.2392                 4.1258                 1.9409

                     43                     44                     45
                      A                      A                      A
 Frequencies --   1071.8799              1085.5757              1103.4600
 Red. masses --      1.7168                 2.0075                 3.1249
 Frc consts  --      1.1622                 1.3939                 2.2418
 IR Inten    --      4.4360                13.3617                41.9656

                     46                     47                     48
                      A                      A                      A
 Frequencies --   1126.7107              1133.4198              1158.5401
 Red. masses --      2.7219                 5.3253                 1.8257
 Frc consts  --      2.0359                 4.0307                 1.4438
 IR Inten    --     86.1477               111.7357                 4.2534

                     49                     50                     51
                      A                      A                      A
 Frequencies --   1170.1995              1180.5921              1189.2625
 Red. masses --      2.4069                 1.3763                 2.2512
 Frc consts  --      1.9419                 1.1303                 1.8760
 IR Inten    --     36.3182                 2.1372                 0.1773

                     52                     53                     54
                      A                      A                      A
 Frequencies --   1207.9554              1235.4967              1244.6565
 Red. masses --      1.7413                 2.0539                 2.6696
 Frc consts  --      1.4970                 1.8472                 2.4367
 IR Inten    --     28.9261                15.3569                20.3721

                     55                     56                     57
                      A                      A                      A
 Frequencies --   1270.1056              1279.6057              1324.2741
 Red. masses --      1.4463                 1.3816                 1.2139
 Frc consts  --      1.3746                 1.3329                 1.2543
 IR Inten    --      1.8670                25.5130                 8.0344

                     58                     59                     60
                      A                      A                      A
 Frequencies --   1330.3228              1348.4591              1362.8091
 Red. masses --      1.2221                 1.3240                 1.4102
 Frc consts  --      1.2743                 1.4185                 1.5432
 IR Inten    --      1.0241                 2.5145                 0.6509

                     61                     62                     63
                      A                      A                      A
 Frequencies --   1372.3839              1380.0821              1389.6266
 Red. masses --      1.3242                 1.2181                 1.3034
 Frc consts  --      1.4695                 1.3669                 1.4830
 IR Inten    --      0.6963                12.8825                 4.9939

                     64                     65                     66
                      A                      A                      A
 Frequencies --   1392.8594              1403.3978              1406.6330
 Red. masses --      1.2601                 1.2506                 1.2723
 Frc consts  --      1.4404                 1.4513                 1.4833
 IR Inten    --      6.8668                 2.8028                 4.5078

                     67                     68                     69
                      A                      A                      A
 Frequencies --   1410.9592              1415.5235              1420.7926
 Red. masses --      1.2713                 1.2323                 1.1966
 Frc consts  --      1.4911                 1.4547                 1.4231
 IR Inten    --     15.2112                 4.4196                 6.5068

                     70                     71                     72
                      A                      A                      A
 Frequencies --   1429.9635              1468.7036              1476.4789
 Red. masses --      1.2714                 1.0782                 1.1117
 Frc consts  --      1.5317                 1.3703                 1.4279
 IR Inten    --     17.4508                 3.6806                 3.8173

                     73                     74                     75
                      A                      A                      A
 Frequencies --   1481.7179              1485.8093              1491.1579
 Red. masses --      1.0540                 1.0553                 1.0738
 Frc consts  --      1.3634                 1.3727                 1.4067
 IR Inten    --      1.5724                 1.8848                 1.3483

                     76                     77                     78
                      A                      A                      A
 Frequencies --   1491.7881              1493.3593              1498.6011
 Red. masses --      1.0648                 1.0490                 1.0603
 Frc consts  --      1.3962                 1.3783                 1.4030
 IR Inten    --      4.0279                 2.2505                 0.4668

                     79                     80                     81
                      A                      A                      A
 Frequencies --   1502.6748              1506.1292              1508.8895
 Red. masses --      1.0601                 1.0570                 1.0755
 Frc consts  --      1.4104                 1.4127                 1.4427
 IR Inten    --      4.1862                 4.4674                 5.5371

                     82                     83                     84
                      A                      A                      A
 Frequencies --   1510.8267              1513.4745              1521.7600
 Red. masses --      1.0570                 1.0562                 1.0613
 Frc consts  --      1.4215                 1.4255                 1.4481
 IR Inten    --      3.8098                14.9472                 7.3650

                     85                     86                     87
                      A                      A                      A
 Frequencies --   2973.5818              2985.5863              2998.6445
 Red. masses --      1.0391                 1.0800                 1.0802
 Frc consts  --      5.4131                 5.6719                 5.7230
 IR Inten    --     41.8683                18.5100                31.0763

                     88                     89                     90
                      A                      A                      A
 Frequencies --   3010.6263              3011.4224              3024.1559
 Red. masses --      1.0707                 1.0699                 1.1002
 Frc consts  --      5.7180                 5.7164                 5.9285
 IR Inten    --     21.6365                30.4322                43.1004

                     91                     92                     93
                      A                      A                      A
 Frequencies --   3027.5699              3030.4807              3031.3605
 Red. masses --      1.0551                 1.0684                 1.0614
 Frc consts  --      5.6983                 5.7809                 5.7463
 IR Inten    --     22.7253                56.9368                12.4372

                     94                     95                     96
                      A                      A                      A
 Frequencies --   3038.8617              3042.4073              3043.9379
 Red. masses --      1.0405                 1.0396                 1.0403
 Frc consts  --      5.6612                 5.6694                 5.6789
 IR Inten    --     29.4329                42.5575                 7.5257

                     97                     98                     99
                      A                      A                      A
 Frequencies --   3070.0348              3072.2956              3089.2482
 Red. masses --      1.0936                 1.0944                 1.0996
 Frc consts  --      6.0726                 6.0864                 6.1829
 IR Inten    --      9.3978                59.8574                30.2883

                    100                    101                    102
                      A                      A                      A
 Frequencies --   3093.1264              3097.7112              3103.8885
 Red. masses --      1.0917                 1.0997                 1.0963
 Frc consts  --      6.1539                 6.2175                 6.2227
 IR Inten    --     17.5254                80.2238                33.5246

                    103                    104                    105
                      A                      A                      A
 Frequencies --   3107.2421              3109.6199              3123.8255
 Red. masses --      1.0948                 1.0997                 1.1004
 Frc consts  --      6.2281                 6.2651                 6.3267
 IR Inten    --     10.6321                23.2025                31.9195

                    106                    107                    108
                      A                      A                      A
 Frequencies --   3128.9986              3133.9003              3137.7031
 Red. masses --      1.1008                 1.0979                 1.1000
 Frc consts  --      6.3500                 6.3533                 6.3808
 IR Inten    --      6.0869                15.3428                30.8133

 - Thermochemistry -
 -------------------
 Temperature   298.150 Kelvin.  Pressure   1.00000 Atm.
 Atom     1 has atomic number  6 and mass  12.00000

 Molecular mass:   200.17763 amu.
 Principal axes and moments of inertia in atomic units:
                           1         2         3
     Eigenvalues --  2202.668733044.676853682.92486
           X            0.99919   0.03932   0.00912
           Y           -0.03934   0.99922   0.00262
           Z           -0.00901  -0.00298   0.99995
 This molecule is an asymmetric top.
 Rotational symmetry number  1.
 Warning -- assumption of classical behavior for rotation
           may cause significant error
 Rotational temperatures (Kelvin)      0.03932     0.02845     0.02352
 Rotational constants (GHZ):           0.81934     0.59275     0.49003
 Zero-point vibrational energy     911593.7 (Joules/Mol)
                                  217.87612 (Kcal/Mol)
 Warning -- explicit consideration of  26 degrees of freedom as
           vibrations may cause significant error
 Vibrational temperatures:     62.69    97.01   138.41   213.69   230.56
          (Kelvin)            249.23   285.28   290.50   313.23   346.14
                              352.98   362.57   384.87   424.06   439.27
                              452.36   487.39   513.17   522.89   561.83
                              614.44   654.07   685.35   720.72   771.91
                              843.14   944.21  1063.51  1111.16  1153.69
                             1216.89  1265.86  1288.48  1326.84  1361.62
                             1367.57  1389.83  1426.52  1442.83  1475.15
                             1484.68  1494.06  1542.20  1561.90  1587.63
                             1621.09  1630.74  1666.88  1683.66  1698.61
                             1711.08  1737.98  1777.60  1790.78  1827.40
                             1841.07  1905.34  1914.04  1940.13  1960.78
                             1974.55  1985.63  1999.36  2004.01  2019.18
                             2023.83  2030.06  2036.62  2044.20  2057.40
                             2113.14  2124.32  2131.86  2137.75  2145.44
                             2146.35  2148.61  2156.15  2162.01  2166.98
                             2170.96  2173.74  2177.55  2189.47  4278.32
                             4295.59  4314.38  4331.62  4332.77  4351.09
                             4356.00  4360.19  4361.45  4372.24  4377.35
                             4379.55  4417.10  4420.35  4444.74  4450.32
                             4456.92  4465.80  4470.63  4474.05  4494.49
                             4501.93  4508.98  4514.45

 Zero-point correction=                           0.347208 (Hartree/Particle)
 Thermal correction to Energy=                    0.363286
 Thermal correction to Enthalpy=                  0.364230
 Thermal correction to Gibbs Free Energy=         0.305683
 Sum of electronic and zero-point Energies=           -621.845320
 Sum of electronic and thermal Energies=              -621.829241
 Sum of electronic and thermal Enthalpies=            -621.828297
 Sum of electronic and thermal Free Energies=         -621.886844

                     E (Thermal)             CV                S
                      KCal/Mol        Cal/Mol-Kelvin    Cal/Mol-Kelvin
 Total                  227.966             62.775            123.223
 Electronic               0.000              0.000              0.000
 Translational            0.889              2.981             41.787
 Rotational               0.889              2.981             31.580
 Vibrational            226.188             56.813             49.856
 Vibration     1          0.595              1.980              5.090
 Vibration     2          0.598              1.970              4.227
 Vibration     3          0.603              1.952              3.530
 Vibration     4          0.618              1.904              2.691
 Vibration     5          0.622              1.891              2.547
 Vibration     6          0.627              1.875              2.400
 Vibration     7          0.637              1.842              2.149
 Vibration     8          0.639              1.837              2.116
 Vibration     9          0.646              1.814              1.978
 Vibration    10          0.658              1.778              1.799
 Vibration    11          0.660              1.770              1.764
 Vibration    12          0.664              1.759              1.717
 Vibration    13          0.673              1.733              1.612
 Vibration    14          0.689              1.684              1.447
 Vibration    15          0.696              1.664              1.388
 Vibration    16          0.702              1.646              1.339
 Vibration    17          0.719              1.598              1.218
 Vibration    18          0.732              1.562              1.137
 Vibration    19          0.737              1.548              1.107
 Vibration    20          0.758              1.491              0.998
 Vibration    21          0.789              1.411              0.868
 Vibration    22          0.813              1.351              0.782
 Vibration    23          0.833              1.303              0.720
 Vibration    24          0.856              1.248              0.656
 Vibration    25          0.892              1.169              0.573
 Vibration    26          0.943              1.062              0.474

 Optimization completed.
    -- Stationary point found.
 Normal termination of Gaussian 16 at Mon May 22 16:09:07 2023.
