 Gaussian 16, Revision A.03,
 Gaussian 16:  ES64L-G16RevA.03 25-Dec-2016

 -----------------------------
 # opt freq b3lyp/6-31g(2df,p)
 -----------------------------

 -------------------
 Title Card Required
 -------------------
 Symbolic Z-matrix:
 Charge =  0 Multiplicity = 1

 SCF Done:  E(RB3LYP) =  -771.226887879     A.U. after   13 cycles
 SCF Done:  E(RB3LYP) =  -771.270805781     A.U. after   12 cycles
 SCF Done:  E(RB3LYP) =  -771.307931129     A.U. after   12 cycles
 SCF Done:  E(RB3LYP) =  -771.323406481     A.U. after   13 cycles
 SCF Done:  E(RB3LYP) =  -771.336592266     A.U. after   14 cycles
 SCF Done:  E(RB3LYP) =  -771.342104916     A.U. after   12 cycles
 SCF Done:  E(RB3LYP) =  -771.346206829     A.U. after   11 cycles
 SCF Done:  E(RB3LYP) =  -771.349139567     A.U. after   11 cycles
 SCF Done:  E(RB3LYP) =  -771.349926364     A.U. after   11 cycles
 SCF Done:  E(RB3LYP) =  -771.350219991     A.U. after   10 cycles
 SCF Done:  E(RB3LYP) =  -771.352414686     A.U. after   11 cycles
 SCF Done:  E(RB3LYP) =  -771.352094307     A.U. after   10 cycles
 SCF Done:  E(RB3LYP) =  -771.352429677     A.U. after   10 cycles
 SCF Done:  E(RB3LYP) =  -771.352425919     A.U. after   10 cycles
 SCF Done:  E(RB3LYP) =  -771.352439604     A.U. after    9 cycles
 SCF Done:  E(RB3LYP) =  -771.352436017     A.U. after    9 cycles
 SCF Done:  E(RB3LYP) =  -771.352440380     A.U. after    9 cycles
 SCF Done:  E(RB3LYP) =  -771.352439623     A.U. after    9 cycles
 SCF Done:  E(RB3LYP) =  -771.352440589     A.U. after    9 cycles
 Optimization completed.
    -- Stationary point found.
 Normal termination of Gaussian 16 at Tue May 23 01:20:44 2023.

 ----------------------------------------------------------------------
 #N Geom=AllCheck Guess=TCheck SCRF=Check GenChk RB3LYP/6-31G(2df,p) Fr
 eq
 ----------------------------------------------------------------------

 Structure from the checkpoint file:  "COC1CCC2qOOrCCCCCCOC12.chk"
 -------------------
 Title Card Required
 -------------------
 Charge =  0 Multiplicity = 1

                         Standard orientation:
 ---------------------------------------------------------------------
 Center     Atomic      Atomic             Coordinates (Angstroms)
 Number     Number       Type             X           Y           Z
 ---------------------------------------------------------------------
      1          6           0        3.663304   -2.248836    0.123436
      2          8           0        2.541633   -1.628062   -0.461842
      3          6           0        1.953487   -0.625152    0.337329
      4          6           0        2.699557    0.716508    0.407753
      5          6           0        1.598767    1.667441    0.898993
      6          6           0        0.324272    1.228930    0.143931
      7          8           0        0.265966    1.861949   -1.154197
      8          8           0        0.076410    3.290577   -0.978748
      9          6           0       -0.968031    1.458128    0.933694
     10          6           0       -2.268021    1.100584    0.171852
     11          6           0       -3.152159    0.003962    0.825606
     12          6           0       -3.521911   -1.178975   -0.093061
     13          6           0       -2.474829   -2.300087   -0.220732
     14          6           0       -1.116617   -1.892556   -0.779766
     15          8           0       -0.430373   -1.130523    0.204682
     16          6           0        0.581213   -0.265232   -0.252577
     17          1           0        3.982090   -3.045465   -0.553407
     18          1           0        3.417254   -2.691924    1.101229
     19          1           0        4.502541   -1.551570    0.263078
     20          1           0        1.790600   -1.010008    1.358455
     21          1           0        3.031364    0.990340   -0.600434
     22          1           0        3.576564    0.697943    1.059606
     23          1           0        1.810542    2.725512    0.732766
     24          1           0        1.442927    1.537621    1.976056
     25          1           0        0.889483    3.620711   -1.384479
     26          1           0       -0.977045    2.510246    1.234596
     27          1           0       -0.895431    0.871745    1.854862
     28          1           0       -2.009069    0.809819   -0.849515
     29          1           0       -2.864213    2.010929    0.053180
     30          1           0       -4.084675    0.462984    1.173919
     31          1           0       -2.660543   -0.389123    1.722180
     32          1           0       -3.769301   -0.796365   -1.093044
     33          1           0       -4.442801   -1.641124    0.283885
     34          1           0       -2.879497   -3.087536   -0.869242
     35          1           0       -2.308607   -2.762381    0.760813
     36          1           0       -1.242793   -1.304358   -1.700797
     37          1           0       -0.523108   -2.782493   -1.037176
     38          1           0        0.670432   -0.315313   -1.344430
 ---------------------------------------------------------------------

 SCF Done:  E(RB3LYP) =  -771.352440589     A.U. after    1 cycles

 The electronic state is 1-A.
 Alpha  occ. eigenvalues --  -19.18800 -19.18581 -19.13899 -19.13457 -10.23149
 Alpha  occ. eigenvalues --  -10.22624 -10.22592 -10.22336 -10.22048 -10.17935
 Alpha  occ. eigenvalues --  -10.17913 -10.17397 -10.17093 -10.16680 -10.16500
 Alpha  occ. eigenvalues --  -10.16278  -1.10675  -1.03765  -1.02339  -0.91183
 Alpha  occ. eigenvalues --   -0.81965  -0.79192  -0.76166  -0.72952  -0.69745
 Alpha  occ. eigenvalues --   -0.68988  -0.65382  -0.62524  -0.58700  -0.58221
 Alpha  occ. eigenvalues --   -0.55825  -0.54581  -0.51331  -0.50125  -0.49927
 Alpha  occ. eigenvalues --   -0.48021  -0.46868  -0.45304  -0.44606  -0.43875
 Alpha  occ. eigenvalues --   -0.42695  -0.42288  -0.41816  -0.40727  -0.39548
 Alpha  occ. eigenvalues --   -0.39274  -0.37887  -0.37490  -0.36869  -0.35561
 Alpha  occ. eigenvalues --   -0.34911  -0.33650  -0.32625  -0.32287  -0.31383
 Alpha  occ. eigenvalues --   -0.31158  -0.30890  -0.30215  -0.29830  -0.28756
 Alpha  occ. eigenvalues --   -0.25769  -0.25180  -0.23767
 Alpha virt. eigenvalues --    0.03282   0.07498   0.08384   0.09279   0.10640
 Alpha virt. eigenvalues --    0.11334   0.11899   0.12365   0.12885   0.13773
 Alpha virt. eigenvalues --    0.14439   0.15237   0.15403   0.15808   0.16137

 Mulliken charges:
               1
     1  C   -0.240167
     2  O   -0.255800
     3  C    0.125082
     4  C   -0.264622
     5  C   -0.269002
     6  C    0.391086
     7  O   -0.237786
     8  O   -0.340673
     9  C   -0.250614
    10  C   -0.189663
    11  C   -0.172760
    12  C   -0.188050
    13  C   -0.198142
    14  C   -0.072248
    15  O   -0.266509
    16  C    0.064380
    17  H    0.126154
    18  H    0.105503
    19  H    0.106073
    20  H    0.069839
    21  H    0.107099
    22  H    0.095631
    23  H    0.096251
    24  H    0.101661
    25  H    0.310206
    26  H    0.105289
    27  H    0.099157
    28  H    0.105906
    29  H    0.090608
    30  H    0.084574
    31  H    0.095675
    32  H    0.091729
    33  H    0.088124
    34  H    0.091263
    35  H    0.103740
    36  H    0.097579
    37  H    0.096936
    38  H    0.096491
 Sum of Mulliken charges =  -0.00000

 Dipole moment (field-independent basis, Debye):
    X=              1.7985    Y=             -0.0196    Z=              0.5703  Tot=              1.8868
 Quadrupole moment (field-independent basis, Debye-Ang):
   XX=            -91.3015   YY=            -93.9063   ZZ=            -97.3468
   XY=              4.2772   XZ=              1.4148   YZ=             -0.5309

  Exact polarizability: 159.284   0.346 154.042   0.286   1.497 116.330
 Approx polarizability: 195.751  -0.962 211.639   0.065  -1.685 193.039

                      1                      2                      3
                      A                      A                      A
 Frequencies --     24.1387                68.2721                73.9465
 Red. masses --      3.3660                 3.2332                 3.1682
 Frc consts  --      0.0012                 0.0089                 0.0102
 IR Inten    --      0.3951                 2.1466                 0.1693

                      4                      5                      6
                      A                      A                      A
 Frequencies --    101.4168               115.6722               135.4982
 Red. masses --      2.7184                 3.2429                 3.6766
 Frc consts  --      0.0165                 0.0256                 0.0398
 IR Inten    --      2.8175                 0.2331                 1.0702

                      7                      8                      9
                      A                      A                      A
 Frequencies --    167.1886               177.0129               196.0485
 Red. masses --      2.1471                 2.2586                 1.7031
 Frc consts  --      0.0354                 0.0417                 0.0386
 IR Inten    --      0.2278                 3.4852                18.3356

                     10                     11                     12
                      A                      A                      A
 Frequencies --    213.0123               228.4177               254.2211
 Red. masses --      1.5812                 1.6360                 3.1267
 Frc consts  --      0.0423                 0.0503                 0.1191
 IR Inten    --     18.4635                60.9929                 6.4132

                     13                     14                     15
                      A                      A                      A
 Frequencies --    269.0843               288.9290               302.8518
 Red. masses --      3.9035                 2.9959                 2.0449
 Frc consts  --      0.1665                 0.1474                 0.1105
 IR Inten    --      1.3355                 5.3542                 2.5208

                     16                     17                     18
                      A                      A                      A
 Frequencies --    313.9384               329.2949               344.3605
 Red. masses --      3.0613                 4.0023                 3.1838
 Frc consts  --      0.1778                 0.2557                 0.2224
 IR Inten    --      5.4625                 0.3588                 2.9342

                     19                     20                     21
                      A                      A                      A
 Frequencies --    356.1269               399.1970               435.5411
 Red. masses --      3.1534                 2.5744                 2.2825
 Frc consts  --      0.2356                 0.2417                 0.2551
 IR Inten    --      1.2032                 1.9433                 2.2560

                     22                     23                     24
                      A                      A                      A
 Frequencies --    463.0594               500.7445               543.4195
 Red. masses --      2.7551                 2.4077                 3.1370
 Frc consts  --      0.3481                 0.3557                 0.5458
 IR Inten    --      4.4733                 1.7318                 5.8926

                     25                     26                     27
                      A                      A                      A
 Frequencies --    567.5631               608.8474               625.8517
 Red. masses --      2.3355                 2.8162                 3.3873
 Frc consts  --      0.4433                 0.6151                 0.7817
 IR Inten    --      1.1317                 5.5519                 3.7693

                     28                     29                     30
                      A                      A                      A
 Frequencies --    730.5305               774.5592               820.7816
 Red. masses --      1.9567                 2.8731                 2.7480
 Frc consts  --      0.6152                 1.0156                 1.0908
 IR Inten    --      7.8475                 0.2583                 5.2445

                     31                     32                     33
                      A                      A                      A
 Frequencies --    834.9449               845.6465               869.7982
 Red. masses --      1.8140                 1.8760                 2.0169
 Frc consts  --      0.7451                 0.7904                 0.8990
 IR Inten    --      5.4171                 0.1916                 2.0891

                     34                     35                     36
                      A                      A                      A
 Frequencies --    895.1010               903.5140               922.2904
 Red. masses --      2.1116                 2.1525                 3.7386
 Frc consts  --      0.9968                 1.0353                 1.8737
 IR Inten    --     11.5222                 2.2784                19.3214

                     37                     38                     39
                      A                      A                      A
 Frequencies --    940.4310               961.9029               977.5083
 Red. masses --      2.6069                 2.8790                 1.9927
 Frc consts  --      1.3584                 1.5695                 1.1218
 IR Inten    --      7.5540                 2.5657                 4.0418

                     40                     41                     42
                      A                      A                      A
 Frequencies --    996.4420              1007.2452              1031.3453
 Red. masses --      2.7969                 2.1888                 2.0838
 Frc consts  --      1.6362                 1.3083                 1.3059
 IR Inten    --      6.1732                 5.1727                 7.4117

                     43                     44                     45
                      A                      A                      A
 Frequencies --   1044.0452              1064.4915              1085.9485
 Red. masses --      2.7297                 2.3924                 2.4266
 Frc consts  --      1.7531                 1.5972                 1.6860
 IR Inten    --      4.2245                11.6370                 6.8205

                     46                     47                     48
                      A                      A                      A
 Frequencies --   1099.4836              1112.3991              1126.5345
 Red. masses --      2.2800                 2.5358                 3.1149
 Frc consts  --      1.6239                 1.8488                 2.3291
 IR Inten    --      4.0978                 8.0089               104.2331

                     49                     50                     51
                      A                      A                      A
 Frequencies --   1136.2625              1151.9258              1163.3478
 Red. masses --      2.3587                 2.2811                 3.9543
 Frc consts  --      1.7942                 1.7834                 3.1531
 IR Inten    --      3.6212                35.6466               148.8792

                     52                     53                     54
                      A                      A                      A
 Frequencies --   1165.3006              1183.0850              1198.4006
 Red. masses --      2.4236                 1.3247                 1.5267
 Frc consts  --      1.9390                 1.0924                 1.2918
 IR Inten    --    103.1964                 2.3236                18.0402

                     55                     56                     57
                      A                      A                      A
 Frequencies --   1213.0029              1215.0410              1231.2610
 Red. masses --      1.4667                 1.5161                 1.5203
 Frc consts  --      1.2715                 1.3187                 1.3580
 IR Inten    --     16.0599                27.2651                20.5176

                     58                     59                     60
                      A                      A                      A
 Frequencies --   1243.2225              1265.9452              1275.2839
 Red. masses --      1.4397                 1.2698                 1.3646
 Frc consts  --      1.3110                 1.1990                 1.3075
 IR Inten    --      7.5320                 1.3753                 6.0622

                     61                     62                     63
                      A                      A                      A
 Frequencies --   1288.1016              1299.4232              1312.3491
 Red. masses --      1.2639                 1.3187                 1.2304
 Frc consts  --      1.2356                 1.3119                 1.2485
 IR Inten    --      1.0336                 0.8035                 0.1257

                     64                     65                     66
                      A                      A                      A
 Frequencies --   1321.9300              1331.4395              1342.3926
 Red. masses --      1.2450                 1.3845                 1.4648
 Frc consts  --      1.2819                 1.4461                 1.5552
 IR Inten    --      6.6703                 1.1854                 0.9653

                     67                     68                     69
                      A                      A                      A
 Frequencies --   1348.6983              1373.6225              1375.6325
 Red. masses --      1.2727                 1.2440                 1.2577
 Frc consts  --      1.3640                 1.3830                 1.4023
 IR Inten    --      0.7503                43.3449                21.1194

                     70                     71                     72
                      A                      A                      A
 Frequencies --   1381.4365              1384.5699              1390.0372
 Red. masses --      1.2825                 1.3987                 1.3720
 Frc consts  --      1.4420                 1.5798                 1.5619
 IR Inten    --     15.1944                 0.7572                 6.3549

                     73                     74                     75
                      A                      A                      A
 Frequencies --   1394.4069              1403.6767              1442.8153
 Red. masses --      1.4514                 1.3432                 1.3762
 Frc consts  --      1.6627                 1.5593                 1.6879
 IR Inten    --      0.5579                46.2369                 3.8142

                     76                     77                     78
                      A                      A                      A
 Frequencies --   1469.0881              1472.8573              1481.1588
 Red. masses --      1.0866                 1.0840                 1.1232
 Frc consts  --      1.3817                 1.3855                 1.4518
 IR Inten    --      2.9991                 1.9228                 2.1848

                     79                     80                     81
                      A                      A                      A
 Frequencies --   1486.3875              1488.3313              1489.3913
 Red. masses --      1.0802                 1.0949                 1.0766
 Frc consts  --      1.4062                 1.4289                 1.4071
 IR Inten    --      2.5252                 4.7024                 4.6152

                     82                     83                     84
                      A                      A                      A
 Frequencies --   1494.0254              1499.7268              1508.8179
 Red. masses --      1.0787                 1.1081                 1.0793
 Frc consts  --      1.4187                 1.4685                 1.4477
 IR Inten    --      5.9598                 6.5372                 3.1705

                     85                     86                     87
                      A                      A                      A
 Frequencies --   1510.7899              1523.2125              2961.5720
 Red. masses --      1.0695                 1.0841                 1.0790
 Frc consts  --      1.4383                 1.4820                 5.5758
 IR Inten    --      6.7265                 6.8100                22.9529

                     88                     89                     90
                      A                      A                      A
 Frequencies --   2976.7992              2980.7171              3007.5605
 Red. masses --      1.0399                 1.0556                 1.0647
 Frc consts  --      5.4294                 5.5256                 5.6742
 IR Inten    --     65.6101                37.4985                13.6348

                     91                     92                     93
                      A                      A                      A
 Frequencies --   3011.4251              3023.6725              3024.1966
 Red. masses --      1.0870                 1.0741                 1.0994
 Frc consts  --      5.8080                 5.7860                 5.9243
 IR Inten    --     19.2819                 4.7460                50.3616

                     94                     95                     96
                      A                      A                      A
 Frequencies --   3026.8480              3035.5605              3041.7628
 Red. masses --      1.0747                 1.0821                 1.0685
 Frc consts  --      5.8014                 5.8746                 5.8247
 IR Inten    --     62.0411                 5.3530                 7.5668

                     97                     98                     99
                      A                      A                      A
 Frequencies --   3044.1512              3047.0014              3049.4659
 Red. masses --      1.0713                 1.0676                 1.0843
 Frc consts  --      5.8491                 5.8397                 5.9406
 IR Inten    --     12.6377                63.3030                40.3062

                    100                    101                    102
                      A                      A                      A
 Frequencies --   3054.0966              3062.0859              3069.6577
 Red. masses --      1.0623                 1.1006                 1.0982
 Frc consts  --      5.8377                 6.0804                 6.0967
 IR Inten    --     24.7182                22.9786                64.2663

                    103                    104                    105
                      A                      A                      A
 Frequencies --   3085.7094              3093.2127              3099.2729
 Red. masses --      1.0938                 1.1021                 1.1000
 Frc consts  --      6.1360                 6.2126                 6.2254
 IR Inten    --     25.3420                35.5793                31.3736

                    106                    107                    108
                      A                      A                      A
 Frequencies --   3110.5245              3111.5986              3768.5988
 Red. masses --      1.0977                 1.0969                 1.0687
 Frc consts  --      6.2576                 6.2574                 8.9423
 IR Inten    --     31.0653                25.4762                36.5855

 - Thermochemistry -
 -------------------
 Temperature   298.150 Kelvin.  Pressure   1.00000 Atm.
 Atom     1 has atomic number  6 and mass  12.00000

 Molecular mass:   230.15181 amu.
 Principal axes and moments of inertia in atomic units:
                           1         2         3
     Eigenvalues --  2775.964144096.037436074.38484
           X            0.99996   0.00725   0.00508
           Y           -0.00732   0.99988   0.01349
           Z           -0.00498  -0.01352   0.99990
 This molecule is an asymmetric top.
 Rotational symmetry number  1.
 Warning -- assumption of classical behavior for rotation
           may cause significant error
 Rotational temperatures (Kelvin)      0.03120     0.02115     0.01426
 Rotational constants (GHZ):           0.65013     0.44061     0.29711
 Zero-point vibrational energy     879796.5 (Joules/Mol)
                                  210.27641 (Kcal/Mol)
 Warning -- explicit consideration of  26 degrees of freedom as
           vibrations may cause significant error
 Vibrational temperatures:     34.73    98.23   106.39   145.92   166.43
          (Kelvin)            194.95   240.55   254.68   282.07   306.48
                              328.64   365.77   387.15   415.70   435.74
                              451.69   473.78   495.46   512.39   574.36
                              626.65   666.24   720.46   781.86   816.60
                              876.00   900.46  1051.07  1114.42  1180.92
                             1201.30  1216.70  1251.45  1287.85  1299.96
                             1326.97  1353.07  1383.96  1406.42  1433.66
                             1449.20  1483.88  1502.15  1531.57  1562.44
                             1581.91  1600.49  1620.83  1634.83  1657.36
                             1673.80  1676.61  1702.20  1724.23  1745.24
                             1748.17  1771.51  1788.72  1821.41  1834.85
                             1853.29  1869.58  1888.18  1901.96  1915.64
                             1931.40  1940.48  1976.34  1979.23  1987.58
                             1992.09  1999.95  2006.24  2019.58  2075.89
                             2113.69  2119.11  2131.06  2138.58  2141.38
                             2142.90  2149.57  2157.77  2170.85  2173.69
                             2191.56  4261.04  4282.95  4288.59  4327.21
                             4332.77  4350.39  4351.14  4354.96  4367.49
                             4376.42  4379.85  4383.96  4387.50  4394.16
                             4405.66  4416.55  4439.65  4450.44  4459.16
                             4475.35  4476.90  5422.17

 Zero-point correction=                           0.335097 (Hartree/Particle)
 Thermal correction to Energy=                    0.351780
 Thermal correction to Enthalpy=                  0.352724
 Thermal correction to Gibbs Free Energy=         0.291198
 Sum of electronic and zero-point Energies=           -771.017344
 Sum of electronic and thermal Energies=              -771.000661
 Sum of electronic and thermal Enthalpies=            -770.999717
 Sum of electronic and thermal Free Energies=         -771.061242

                     E (Thermal)             CV                S
                      KCal/Mol        Cal/Mol-Kelvin    Cal/Mol-Kelvin
 Total                  220.745             64.372            129.491
 Electronic               0.000              0.000              0.000
 Translational            0.889              2.981             42.203
 Rotational               0.889              2.981             32.602
 Vibrational            218.968             58.411             54.687
 Vibration     1          0.593              1.985              6.261
 Vibration     2          0.598              1.969              4.203
 Vibration     3          0.599              1.966              4.045
 Vibration     4          0.604              1.948              3.427
 Vibration     5          0.608              1.936              3.171
 Vibration     6          0.613              1.918              2.866
 Vibration     7          0.624              1.883              2.467
 Vibration     8          0.628              1.871              2.360
 Vibration     9          0.636              1.845              2.170
 Vibration    10          0.644              1.821              2.018
 Vibration    11          0.651              1.798              1.891
 Vibration    12          0.665              1.756              1.701
 Vibration    13          0.673              1.730              1.602
 Vibration    14          0.685              1.694              1.480
 Vibration    15          0.694              1.668              1.401
 Vibration    16          0.702              1.647              1.341
 Vibration    17          0.712              1.617              1.264
 Vibration    18          0.723              1.587              1.192
 Vibration    19          0.732              1.563              1.139
 Vibration    20          0.765              1.472              0.966
 Vibration    21          0.796              1.393              0.841
 Vibration    22          0.821              1.332              0.757
 Vibration    23          0.856              1.248              0.656
 Vibration    24          0.899              1.154              0.558
 Vibration    25          0.924              1.101              0.509
 Vibration    26          0.968              1.013              0.435

                           ! Non-Optimized Parameters !
 Normal termination of Gaussian 16 at Tue May 23 05:26:52 2023.
