 Gaussian 16, Revision A.03,
 Gaussian 16:  ES64L-G16RevA.03 25-Dec-2016

 -----------------------------
 # opt freq b3lyp/6-31g(2df,p)
 -----------------------------

 -------------------
 Title Card Required
 -------------------
 Symbolic Z-matrix:
 Charge =  0 Multiplicity = 1

 SCF Done:  E(RB3LYP) =  -562.997685771     A.U. after   12 cycles
 SCF Done:  E(RB3LYP) =  -563.005057061     A.U. after   11 cycles
 SCF Done:  E(RB3LYP) =  -563.007876967     A.U. after   10 cycles
 SCF Done:  E(RB3LYP) =  -563.010023439     A.U. after   10 cycles
 SCF Done:  E(RB3LYP) =  -563.010874148     A.U. after   10 cycles
 SCF Done:  E(RB3LYP) =  -563.011079479     A.U. after   10 cycles
 SCF Done:  E(RB3LYP) =  -563.011174503     A.U. after    9 cycles
 SCF Done:  E(RB3LYP) =  -563.011181115     A.U. after    8 cycles
 SCF Done:  E(RB3LYP) =  -563.011183335     A.U. after    7 cycles
 SCF Done:  E(RB3LYP) =  -563.011183702     A.U. after    6 cycles
 SCF Done:  E(RB3LYP) =  -563.011183759     A.U. after    6 cycles
 Optimization completed.
    -- Stationary point found.
 Normal termination of Gaussian 16 at Mon May 22 23:59:32 2023.

 ----------------------------------------------------------------------
 #N Geom=AllCheck Guess=TCheck SCRF=Check GenChk RB3LYP/6-31G(2df,p) Fr
 eq
 ----------------------------------------------------------------------

 Structure from the checkpoint file:  "COC1qCrCNCCCCCqCrC1.chk"
 -------------------
 Title Card Required
 -------------------
 Charge =  0 Multiplicity = 1

                         Standard orientation:
 ---------------------------------------------------------------------
 Center     Atomic      Atomic             Coordinates (Angstroms)
 Number     Number       Type             X           Y           Z
 ---------------------------------------------------------------------
      1          6           0        2.239297    0.412323    1.829561
      2          8           0        1.358207   -0.394620    1.079289
      3          6           0        1.399298   -0.313614   -0.359614
      4          6           0        2.852099   -0.247850   -0.863185
      5          6           0        0.822481   -1.676040   -0.849509
      6          7           0       -0.624195   -1.774029   -0.880955
      7          6           0       -1.321904   -1.989956    0.386157
      8          6           0       -2.633064   -1.187785    0.450740
      9          6           0       -2.465372    0.280960    0.025540
     10          6           0       -1.391133    1.050865    0.832819
     11          6           0       -0.290150    1.768143    0.015589
     12          6           0       -0.890567    2.919831   -0.810296
     13          6           0        0.585830    0.898421   -0.923673
     14          1           0        1.907676    0.346951    2.869726
     15          1           0        2.220362    1.468234    1.529159
     16          1           0        3.278094    0.058193    1.776995
     17          1           0        3.422448   -1.125460   -0.539965
     18          1           0        3.366735    0.649146   -0.509433
     19          1           0        2.861784   -0.217371   -1.956594
     20          1           0        1.306214   -2.453755   -0.233343
     21          1           0        1.169239   -1.817534   -1.878954
     22          1           0       -0.919755   -2.438896   -1.582063
     23          1           0       -0.652032   -1.671746    1.187126
     24          1           0       -1.534012   -3.055995    0.569519
     25          1           0       -3.028036   -1.250627    1.473910
     26          1           0       -3.384752   -1.659422   -0.196666
     27          1           0       -3.435338    0.782920    0.112787
     28          1           0       -2.211881    0.290231   -1.037670
     29          1           0       -0.902149    0.378912    1.539281
     30          1           0       -1.880558    1.818768    1.445022
     31          1           0        0.375302    2.228397    0.756961
     32          1           0       -1.579751    2.544802   -1.575292
     33          1           0       -0.112527    3.495192   -1.323704
     34          1           0       -1.450320    3.609718   -0.169614
     35          1           0        1.292870    1.589077   -1.399318
     36          1           0       -0.046793    0.513644   -1.730263
 ---------------------------------------------------------------------

 SCF Done:  E(RB3LYP) =  -563.011183759     A.U. after    1 cycles

 The electronic state is 1-A.
 Alpha  occ. eigenvalues --  -19.13080 -14.30188 -10.23157 -10.21893 -10.19638
 Alpha  occ. eigenvalues --  -10.18725 -10.17531 -10.17245 -10.16388 -10.16328
 Alpha  occ. eigenvalues --  -10.16099 -10.15814 -10.15659  -1.01955  -0.89111
 Alpha  occ. eigenvalues --   -0.79858  -0.78339  -0.74380  -0.69545  -0.68706
 Alpha  occ. eigenvalues --   -0.66607  -0.64931  -0.61770  -0.57219  -0.54224
 Alpha  occ. eigenvalues --   -0.52954  -0.48715  -0.47261  -0.46916  -0.44877
 Alpha  occ. eigenvalues --   -0.44372  -0.44197  -0.42979  -0.40870  -0.40504
 Alpha  occ. eigenvalues --   -0.39778  -0.38907  -0.38349  -0.37052  -0.36700
 Alpha  occ. eigenvalues --   -0.36234  -0.34484  -0.34011  -0.33201  -0.32394
 Alpha  occ. eigenvalues --   -0.31803  -0.29981  -0.29608  -0.28903  -0.28314
 Alpha  occ. eigenvalues --   -0.24214  -0.20778
 Alpha virt. eigenvalues --    0.07491   0.08936   0.10242   0.11630   0.11857
 Alpha virt. eigenvalues --    0.12976   0.13133   0.13687   0.14680   0.15364
 Alpha virt. eigenvalues --    0.15967   0.16559   0.16967   0.17509   0.18125

 Mulliken charges:
               1
     1  C   -0.247427
     2  O   -0.273579
     3  C    0.358297
     4  C   -0.436263
     5  C   -0.180818
     6  N   -0.290666
     7  C   -0.159386
     8  C   -0.202230
     9  C   -0.162978
    10  C   -0.192984
    11  C    0.023089
    12  C   -0.390309
    13  C   -0.238416
    14  H    0.122206
    15  H    0.110771
    16  H    0.107899
    17  H    0.115315
    18  H    0.116098
    19  H    0.117810
    20  H    0.084667
    21  H    0.087483
    22  H    0.213413
    23  H    0.138346
    24  H    0.073128
    25  H    0.085404
    26  H    0.079681
    27  H    0.078984
    28  H    0.103366
    29  H    0.107221
    30  H    0.076431
    31  H    0.064046
    32  H    0.114866
    33  H    0.102416
    34  H    0.103975
    35  H    0.080987
    36  H    0.109159
 Sum of Mulliken charges =  -0.00000

 Dipole moment (field-independent basis, Debye):
    X=              1.0758    Y=             -0.3553    Z=             -0.4457  Tot=              1.2174
 Quadrupole moment (field-independent basis, Debye-Ang):
   XX=            -81.9419   YY=            -81.8619   ZZ=            -81.4842
   XY=              2.0510   XZ=              0.4895   YZ=              3.4038

  Exact polarizability: 139.469   0.602 130.252  -2.348   0.808 116.323
 Approx polarizability: 183.111   2.227 178.001  -0.152   1.307 180.407

                      1                      2                      3
                      A                      A                      A
 Frequencies --     82.4985               108.5421               135.7135
 Red. masses --      3.2470                 2.7547                 2.4590
 Frc consts  --      0.0130                 0.0191                 0.0267
 IR Inten    --      0.4530                 1.3917                 0.3653

                      4                      5                      6
                      A                      A                      A
 Frequencies --    162.2736               174.6337               189.5727
 Red. masses --      2.5018                 2.3739                 1.9048
 Frc consts  --      0.0388                 0.0427                 0.0403
 IR Inten    --      2.2210                 3.9138                 0.0544

                      7                      8                      9
                      A                      A                      A
 Frequencies --    205.0970               226.5233               232.9142
 Red. masses --      1.6548                 2.1750                 1.3146
 Frc consts  --      0.0410                 0.0658                 0.0420
 IR Inten    --      1.0232                 0.0289                 0.2329

                     10                     11                     12
                      A                      A                      A
 Frequencies --    249.2694               274.6841               293.5275
 Red. masses --      1.8156                 1.5233                 2.1242
 Frc consts  --      0.0665                 0.0677                 0.1078
 IR Inten    --      2.2072                 0.7808                 1.5051

                     13                     14                     15
                      A                      A                      A
 Frequencies --    312.7471               333.0507               343.2601
 Red. masses --      3.0705                 1.9615                 2.0949
 Frc consts  --      0.1770                 0.1282                 0.1454
 IR Inten    --      2.2216                 0.2006                 1.9862

                     16                     17                     18
                      A                      A                      A
 Frequencies --    348.0804               374.8247               420.3128
 Red. masses --      1.8855                 2.3795                 2.2166
 Frc consts  --      0.1346                 0.1970                 0.2307
 IR Inten    --      4.4779                 0.6553                 1.3115

                     19                     20                     21
                      A                      A                      A
 Frequencies --    430.7219               510.0252               518.8149
 Red. masses --      2.0489                 2.2464                 2.3083
 Frc consts  --      0.2240                 0.3443                 0.3661
 IR Inten    --      1.2680                 2.2591                 5.5352

                     22                     23                     24
                      A                      A                      A
 Frequencies --    535.7785               587.9515               668.9953
 Red. masses --      2.7278                 2.3262                 1.8362
 Frc consts  --      0.4614                 0.4738                 0.4842
 IR Inten    --      1.7878                22.7461                37.3247

                     25                     26                     27
                      A                      A                      A
 Frequencies --    731.8000               759.2056               778.9476
 Red. masses --      2.5201                 1.7397                 2.4591
 Frc consts  --      0.7951                 0.5908                 0.8791
 IR Inten    --      5.4773                 0.4872                 0.4152

                     28                     29                     30
                      A                      A                      A
 Frequencies --    818.9093               842.4959               875.1259
 Red. masses --      2.0707                 2.2378                 2.4434
 Frc consts  --      0.8182                 0.9358                 1.1025
 IR Inten    --      6.2435                 1.3673                 9.8958

                     31                     32                     33
                      A                      A                      A
 Frequencies --    903.2081               910.4775               926.2009
 Red. masses --      1.8099                 1.6946                 2.0691
 Frc consts  --      0.8699                 0.8276                 1.0458
 IR Inten    --      1.8733                 1.8247                 2.0699

                     34                     35                     36
                      A                      A                      A
 Frequencies --    966.4306               983.1905               999.5558
 Red. masses --      1.8754                 1.7600                 1.5949
 Frc consts  --      1.0320                 1.0024                 0.9389
 IR Inten    --      2.9570                 1.4180                 0.6233

                     37                     38                     39
                      A                      A                      A
 Frequencies --   1030.6982              1052.4987              1060.8238
 Red. masses --      2.2179                 1.5783                 2.3367
 Frc consts  --      1.3882                 1.0301                 1.5493
 IR Inten    --      5.4784                 6.3155                 1.4934

                     40                     41                     42
                      A                      A                      A
 Frequencies --   1085.7164              1104.9093              1109.6593
 Red. masses --      2.0369                 3.5538                 2.4079
 Frc consts  --      1.4147                 2.5562                 1.7469
 IR Inten    --      5.0468                55.0998                37.5113

                     43                     44                     45
                      A                      A                      A
 Frequencies --   1128.6904              1161.3685              1176.1024
 Red. masses --      2.0083                 1.9866                 2.3392
 Frc consts  --      1.5074                 1.5787                 1.9064
 IR Inten    --      9.5850                39.8112                 9.8514

                     46                     47                     48
                      A                      A                      A
 Frequencies --   1177.7643              1185.2527              1193.4204
 Red. masses --      1.6129                 1.7805                 2.7617
 Frc consts  --      1.3182                 1.4737                 2.3174
 IR Inten    --      1.3406                19.5781                54.5521

                     49                     50                     51
                      A                      A                      A
 Frequencies --   1216.8721              1230.9663              1249.4814
 Red. masses --      1.4647                 1.5550                 1.3421
 Frc consts  --      1.2779                 1.3882                 1.2345
 IR Inten    --     21.8395                 4.6663                10.9782

                     52                     53                     54
                      A                      A                      A
 Frequencies --   1281.4528              1298.3043              1316.1891
 Red. masses --      1.2031                 1.4964                 1.1780
 Frc consts  --      1.1640                 1.4861                 1.2023
 IR Inten    --      0.6344                 6.2731                 2.6791

                     55                     56                     57
                      A                      A                      A
 Frequencies --   1328.4629              1335.3474              1348.1988
 Red. masses --      1.2294                 1.2067                 1.3092
 Frc consts  --      1.2783                 1.2678                 1.4020
 IR Inten    --     11.1538                 2.9927                 7.3464

                     58                     59                     60
                      A                      A                      A
 Frequencies --   1370.3481              1385.1470              1389.1210
 Red. masses --      1.3490                 1.3910                 1.3489
 Frc consts  --      1.4926                 1.5724                 1.5336
 IR Inten    --      4.3269                 2.7770                 3.3401

                     61                     62                     63
                      A                      A                      A
 Frequencies --   1397.7895              1399.8454              1410.3574
 Red. masses --      1.2924                 1.2751                 1.3232
 Frc consts  --      1.4877                 1.4721                 1.5507
 IR Inten    --      8.5107                 0.6040                 2.8461

                     64                     65                     66
                      A                      A                      A
 Frequencies --   1413.1547              1416.0813              1468.4767
 Red. masses --      1.2467                 1.3002                 1.0876
 Frc consts  --      1.4668                 1.5362                 1.3818
 IR Inten    --      5.8176                10.3148                 3.9702

                     67                     68                     69
                      A                      A                      A
 Frequencies --   1476.5058              1478.4573              1481.1526
 Red. masses --      1.0984                 1.1052                 1.1203
 Frc consts  --      1.4109                 1.4233                 1.4480
 IR Inten    --      0.9640                 0.3878                 3.9527

                     70                     71                     72
                      A                      A                      A
 Frequencies --   1484.2596              1488.0569              1494.3893
 Red. masses --      1.0921                 1.0567                 1.0630
 Frc consts  --      1.4175                 1.3786                 1.3987
 IR Inten    --      0.4421                 3.8948                 2.6035

                     73                     74                     75
                      A                      A                      A
 Frequencies --   1495.5681              1498.3037              1502.0748
 Red. masses --      1.0778                 1.0727                 1.0615
 Frc consts  --      1.4203                 1.4188                 1.4111
 IR Inten    --      6.0123                 4.8237                 1.8557

                     76                     77                     78
                      A                      A                      A
 Frequencies --   1504.7183              1509.3960              1515.4669
 Red. masses --      1.0701                 1.1411                 1.0560
 Frc consts  --      1.4276                 1.5318                 1.4289
 IR Inten    --      2.1179                 8.8403                 2.7859

                     79                     80                     81
                      A                      A                      A
 Frequencies --   1522.4857              2948.6267              2964.0324
 Red. masses --      1.0994                 1.0702                 1.0737
 Frc consts  --      1.5015                 5.4823                 5.5580
 IR Inten    --      4.7285                64.0936                85.9464

                     82                     83                     84
                      A                      A                      A
 Frequencies --   2994.1507              3008.3797              3013.0212
 Red. masses --      1.0356                 1.0607                 1.0781
 Frc consts  --      5.4701                 5.6559                 5.7666
 IR Inten    --     46.1206                66.6509                15.5201

                     85                     86                     87
                      A                      A                      A
 Frequencies --   3020.8929              3023.0601              3026.9907
 Red. masses --      1.0586                 1.0635                 1.0542
 Frc consts  --      5.6920                 5.7264                 5.6909
 IR Inten    --     14.1539                51.7981                36.3782

                     88                     89                     90
                      A                      A                      A
 Frequencies --   3036.1310              3038.9406              3046.4053
 Red. masses --      1.0391                 1.0951                 1.0758
 Frc consts  --      5.6434                 5.9586                 5.8822
 IR Inten    --     25.8351                28.1422                21.0108

                     91                     92                     93
                      A                      A                      A
 Frequencies --   3047.8875              3059.7427              3073.2976
 Red. masses --      1.0966                 1.0903                 1.0957
 Frc consts  --      6.0021                 6.0142                 6.0973
 IR Inten    --     80.1694                23.6888                10.8429

                     94                     95                     96
                      A                      A                      A
 Frequencies --   3089.8963              3091.6444              3095.6955
 Red. masses --      1.0974                 1.1009                 1.0982
 Frc consts  --      6.1728                 6.1996                 6.2008
 IR Inten    --     29.6201                25.7803                59.8854

                     97                     98                     99
                      A                      A                      A
 Frequencies --   3101.1232              3107.4319              3108.0094
 Red. masses --      1.0988                 1.1004                 1.0897
 Frc consts  --      6.2260                 6.2605                 6.2020
 IR Inten    --     28.4111                23.0785                12.3454

                    100                    101                    102
                      A                      A                      A
 Frequencies --   3116.9934              3119.0116              3567.7511
 Red. masses --      1.1003                 1.0871                 1.0749
 Frc consts  --      6.2984                 6.2310                 8.0614
 IR Inten    --     21.8958                20.4724                 0.9097

 - Thermochemistry -
 -------------------
 Temperature   298.150 Kelvin.  Pressure   1.00000 Atm.
 Atom     1 has atomic number  6 and mass  12.00000

 Molecular mass:   185.17796 amu.
 Principal axes and moments of inertia in atomic units:
                           1         2         3
     Eigenvalues --  1984.027402531.215823348.93592
           X            0.99999   0.00020  -0.00445
           Y           -0.00022   0.99999  -0.00455
           Z            0.00445   0.00455   0.99998
 This molecule is an asymmetric top.
 Rotational symmetry number  1.
 Warning -- assumption of classical behavior for rotation
           may cause significant error
 Rotational temperatures (Kelvin)      0.04366     0.03422     0.02586
 Rotational constants (GHZ):           0.90964     0.71299     0.53890
 Zero-point vibrational energy     873799.2 (Joules/Mol)
                                  208.84301 (Kcal/Mol)
 Warning -- explicit consideration of  23 degrees of freedom as
           vibrations may cause significant error
 Vibrational temperatures:    118.70   156.17   195.26   233.48   251.26
          (Kelvin)            272.75   295.09   325.92   335.11   358.64
                              395.21   422.32   449.97   479.19   493.87
                              500.81   539.29   604.74   619.71   733.81
                              746.46   770.87   845.93   962.54  1052.90
                             1092.33  1120.73  1178.23  1212.16  1259.11
                             1299.51  1309.97  1332.60  1390.48  1414.59
                             1438.14  1482.94  1514.31  1526.29  1562.10
                             1589.72  1596.55  1623.93  1670.95  1692.15
                             1694.54  1705.31  1717.07  1750.81  1771.09
                             1797.73  1843.72  1867.97  1893.70  1911.36
                             1921.27  1939.76  1971.63  1992.92  1998.64
                             2011.11  2014.07  2029.19  2033.21  2037.43
                             2112.81  2124.36  2127.17  2131.05  2135.52
                             2140.98  2150.09  2151.79  2155.72  2161.15
                             2164.95  2171.68  2180.42  2190.52  4242.42
                             4264.58  4307.91  4328.39  4335.07  4346.39
                             4349.51  4355.16  4368.32  4372.36  4383.10
                             4385.23  4402.29  4421.79  4445.67  4448.19
                             4454.02  4461.82  4470.90  4471.73  4484.66
                             4487.56  5133.20

 Zero-point correction=                           0.332813 (Hartree/Particle)
 Thermal correction to Energy=                    0.347162
 Thermal correction to Enthalpy=                  0.348106
 Thermal correction to Gibbs Free Energy=         0.293879
 Sum of electronic and zero-point Energies=           -562.678371
 Sum of electronic and thermal Energies=              -562.664022
 Sum of electronic and thermal Enthalpies=            -562.663078
 Sum of electronic and thermal Free Energies=         -562.717305

                     E (Thermal)             CV                S
                      KCal/Mol        Cal/Mol-Kelvin    Cal/Mol-Kelvin
 Total                  217.847             57.376            114.131
 Electronic               0.000              0.000              0.000
 Translational            0.889              2.981             41.555
 Rotational               0.889              2.981             31.198
 Vibrational            216.070             51.414             41.378
 Vibration     1          0.600              1.961              3.831
 Vibration     2          0.606              1.942              3.295
 Vibration     3          0.614              1.918              2.863
 Vibration     4          0.622              1.889              2.523
 Vibration     5          0.627              1.874              2.385
 Vibration     6          0.633              1.854              2.232
 Vibration     7          0.640              1.833              2.087
 Vibration     8          0.650              1.801              1.906
 Vibration     9          0.654              1.791              1.856
 Vibration    10          0.662              1.764              1.736
 Vibration    11          0.677              1.720              1.567
 Vibration    12          0.688              1.686              1.454
 Vibration    13          0.701              1.649              1.348
 Vibration    14          0.715              1.610              1.245
 Vibration    15          0.722              1.589              1.197
 Vibration    16          0.726              1.579              1.175
 Vibration    17          0.746              1.524              1.060
 Vibration    18          0.783              1.426              0.891
 Vibration    19          0.792              1.403              0.856
 Vibration    20          0.865              1.228              0.634
 Vibration    21          0.874              1.208              0.613
 Vibration    22          0.891              1.171              0.574
 Vibration    23          0.945              1.057              0.471

                           ! Non-Optimized Parameters !
 Normal termination of Gaussian 16 at Tue May 23 02:35:27 2023.
