 Gaussian 16, Revision A.03,
 Gaussian 16:  ES64L-G16RevA.03 25-Dec-2016

 -----------------------------
 # opt freq b3lyp/6-31g(2df,p)
 -----------------------------

 -------------------
 Title Card Required
 -------------------
 Symbolic Z-matrix:
 Charge =  0 Multiplicity = 1

 SCF Done:  E(RB3LYP) =  -726.547745867     A.U. after   17 cycles
 SCF Done:  E(RB3LYP) =  -726.307674866     A.U. after   17 cycles
 SCF Done:  E(RB3LYP) =  -726.623830002     A.U. after   15 cycles
 SCF Done:  E(RB3LYP) =  -726.660362681     A.U. after   14 cycles
 SCF Done:  E(RB3LYP) =  -726.681175963     A.U. after   15 cycles
 SCF Done:  E(RB3LYP) =  -726.707396668     A.U. after   15 cycles
 SCF Done:  E(RB3LYP) =  -726.703149477     A.U. after   15 cycles
 SCF Done:  E(RB3LYP) =  -726.726776333     A.U. after   15 cycles
 SCF Done:  E(RB3LYP) =  -726.734601621     A.U. after   15 cycles
 SCF Done:  E(RB3LYP) =  -726.740944336     A.U. after   15 cycles
 SCF Done:  E(RB3LYP) =  -726.843502252     A.U. after   11 cycles
 SCF Done:  E(RB3LYP) =  -726.843535887     A.U. after   11 cycles
 SCF Done:  E(RB3LYP) =  -726.843563893     A.U. after   10 cycles
 SCF Done:  E(RB3LYP) =  -726.843578111     A.U. after    9 cycles
 SCF Done:  E(RB3LYP) =  -726.843584360     A.U. after    9 cycles
 SCF Done:  E(RB3LYP) =  -726.843586979     A.U. after    8 cycles
 SCF Done:  E(RB3LYP) =  -726.843588286     A.U. after    8 cycles
 SCF Done:  E(RB3LYP) =  -726.843588705     A.U. after    7 cycles
 SCF Done:  E(RB3LYP) =  -726.843588796     A.U. after    6 cycles
 Optimization completed.
    -- Stationary point found.
 Normal termination of Gaussian 16 at Mon May 29 17:24:18 2023.

 ----------------------------------------------------------------------
 #N Geom=AllCheck Guess=TCheck SCRF=Check GenChk RB3LYP/6-31G(2df,p) Fr
 eq
 ----------------------------------------------------------------------

 Structure from the checkpoint file:  "COC1dc2ncccc2dCCN1CCCO.chk"
 -------------------
 Title Card Required
 -------------------
 Charge =  0 Multiplicity = 1

                         Standard orientation:
 ---------------------------------------------------------------------
 Center     Atomic      Atomic             Coordinates (Angstroms)
 Number     Number       Type             X           Y           Z
 ---------------------------------------------------------------------
      1          6           0        0.287562    2.827941    0.511156
      2          8           0       -0.403572    1.621269    0.162235
      3          6           0        0.221353    0.435769    0.091821
      4          6           0        1.575932    0.209806   -0.156441
      5          7           0        2.398798    1.258035   -0.484249
      6          6           0        3.682210    1.052211   -0.518891
      7          6           0        4.292853   -0.209926   -0.188119
      8          6           0        3.512246   -1.274004    0.113601
      9          6           0        2.071936   -1.156193    0.053096
     10          6           0        1.208990   -2.194658    0.165898
     11          6           0       -0.244022   -1.950153   -0.116474
     12          7           0       -0.614887   -0.606604    0.352158
     13          6           0       -1.979907   -0.395644    0.816830
     14          6           0       -3.009256   -0.257795   -0.316213
     15          6           0       -4.428786   -0.054430    0.215553
     16          8           0       -5.399912    0.005184   -0.815415
     17          1           0       -0.498785    3.523509    0.814314
     18          1           0        0.848290    3.216027   -0.337090
     19          1           0        0.976711    2.653683    1.340503
     20          1           0        4.313427    1.896418   -0.789708
     21          1           0        5.375272   -0.288449   -0.187248
     22          1           0        3.943435   -2.240676    0.357778
     23          1           0        1.546290   -3.203080    0.373937
     24          1           0       -0.881434   -2.664098    0.415777
     25          1           0       -0.489205   -2.055226   -1.193767
     26          1           0       -2.001542    0.495687    1.446676
     27          1           0       -2.238354   -1.253710    1.449085
     28          1           0       -2.997413   -1.148768   -0.953967
     29          1           0       -2.724529    0.595889   -0.943659
     30          1           0       -4.465411    0.844161    0.853641
     31          1           0       -4.721241   -0.903189    0.844621
     32          1           0       -5.191668    0.762635   -1.371708
 ---------------------------------------------------------------------

 SCF Done:  E(RB3LYP) =  -726.843588796     A.U. after    1 cycles

 The electronic state is 1-A.
 Alpha  occ. eigenvalues --  -19.18402 -19.13723 -14.36389 -14.31138 -10.28038
 Alpha  occ. eigenvalues --  -10.23434 -10.23219 -10.22633 -10.22086 -10.19572
 Alpha  occ. eigenvalues --  -10.19089 -10.18752 -10.18260 -10.18059 -10.17772
 Alpha  occ. eigenvalues --  -10.15601  -1.08471  -1.01858  -0.95614  -0.91897
 Alpha  occ. eigenvalues --   -0.80825  -0.78793  -0.75908  -0.75833  -0.70484
 Alpha  occ. eigenvalues --   -0.68751  -0.64821  -0.62952  -0.60740  -0.58061
 Alpha  occ. eigenvalues --   -0.53986  -0.52754  -0.52603  -0.50146  -0.48429
 Alpha  occ. eigenvalues --   -0.47903  -0.46598  -0.45767  -0.45013  -0.44251
 Alpha  occ. eigenvalues --   -0.43260  -0.42172  -0.40881  -0.40021  -0.39240
 Alpha  occ. eigenvalues --   -0.38083  -0.37858  -0.36886  -0.36262  -0.35383
 Alpha  occ. eigenvalues --   -0.34570  -0.32713  -0.32656  -0.28546  -0.28039
 Alpha  occ. eigenvalues --   -0.26971  -0.24313  -0.23689  -0.15282
 Alpha virt. eigenvalues --   -0.04426   0.03268   0.05541   0.07372   0.08313
 Alpha virt. eigenvalues --    0.09529   0.11101   0.12016   0.12402   0.12671
 Alpha virt. eigenvalues --    0.13594   0.14818   0.15498   0.16172   0.16344

 Mulliken charges:
               1
     1  C   -0.226356
     2  O   -0.271087
     3  C    0.398238
     4  C    0.034043
     5  N   -0.327015
     6  C   -0.060336
     7  C   -0.126768
     8  C   -0.150215
     9  C    0.296106
    10  C   -0.279207
    11  C   -0.223871
    12  N   -0.115802
    13  C   -0.178266
    14  C   -0.210571
    15  C   -0.053996
    16  O   -0.416726
    17  H    0.118710
    18  H    0.158389
    19  H    0.137664
    20  H    0.090809
    21  H    0.091366
    22  H    0.094246
    23  H    0.077146
    24  H    0.109996
    25  H    0.096202
    26  H    0.123413
    27  H    0.109266
    28  H    0.115119
    29  H    0.107721
    30  H    0.088099
    31  H    0.111574
    32  H    0.282109
 Sum of Mulliken charges =  -0.00000

 Dipole moment (field-independent basis, Debye):
    X=             -0.4901    Y=              0.8291    Z=              1.1231  Tot=              1.4795
 Quadrupole moment (field-independent basis, Debye-Ang):
   XX=           -100.7922   YY=            -86.7798   ZZ=            -94.5003
   XY=             -4.9054   XZ=             -0.7059   YZ=             -0.6555

  Exact polarizability: 228.220   3.364 166.068  -9.251  -6.376  91.168
 Approx polarizability: 336.451  12.660 288.564 -18.130 -18.648 149.023

                      1                      2                      3
                      A                      A                      A
 Frequencies --     32.5603                38.4561                66.7793
 Red. masses --      5.4104                 5.2042                 3.2105
 Frc consts  --      0.0034                 0.0045                 0.0084
 IR Inten    --      0.0671                 0.6207                 3.5488

                      4                      5                      6
                      A                      A                      A
 Frequencies --     77.6926               111.5178               129.0483
 Red. masses --      1.7382                 3.0245                 2.8890
 Frc consts  --      0.0062                 0.0222                 0.0283
 IR Inten    --      4.4264                 0.4258                 1.5424

                      7                      8                      9
                      A                      A                      A
 Frequencies --    142.3082               167.3242               203.4986
 Red. masses --      3.7675                 2.0503                 1.6521
 Frc consts  --      0.0450                 0.0338                 0.0403
 IR Inten    --      5.3595                 2.5515                 0.3630

                     10                     11                     12
                      A                      A                      A
 Frequencies --    219.6659               249.9979               258.3328
 Red. masses --      3.0637                 3.2415                 4.5208
 Frc consts  --      0.0871                 0.1194                 0.1778
 IR Inten    --      0.2043                 1.6545                 0.7035

                     13                     14                     15
                      A                      A                      A
 Frequencies --    287.6545               312.4613               323.6799
 Red. masses --      3.3437                 1.2228                 3.2157
 Frc consts  --      0.1630                 0.0703                 0.1985
 IR Inten    --     12.5919               108.2346                11.6347

                     16                     17                     18
                      A                      A                      A
 Frequencies --    376.0595               426.8622               459.6229
 Red. masses --      3.2732                 4.3222                 4.0124
 Frc consts  --      0.2727                 0.4640                 0.4994
 IR Inten    --      4.1543                 0.2556                18.9560

                     19                     20                     21
                      A                      A                      A
 Frequencies --    485.6115               493.3995               542.9516
 Red. masses --      6.2618                 3.8374                 3.5750
 Frc consts  --      0.8700                 0.5504                 0.6209
 IR Inten    --      1.9634                 4.8278                 0.5004

                     22                     23                     24
                      A                      A                      A
 Frequencies --    570.0862               577.6868               655.6366
 Red. masses --      5.9226                 4.3835                 2.4210
 Frc consts  --      1.1341                 0.8619                 0.6132
 IR Inten    --      5.2620                 0.4586                20.5388

                     25                     26                     27
                      A                      A                      A
 Frequencies --    674.0495               684.0231               708.1575
 Red. masses --      4.0583                 2.8809                 2.7059
 Frc consts  --      1.0864                 0.7942                 0.7995
 IR Inten    --     11.9290                 2.7705                15.1697

                     28                     29                     30
                      A                      A                      A
 Frequencies --    757.7267               778.7580               820.8878
 Red. masses --      1.1008                 4.6746                 1.6575
 Frc consts  --      0.3724                 1.6703                 0.6581
 IR Inten    --      3.4113                 3.6608                32.0065

                     31                     32                     33
                      A                      A                      A
 Frequencies --    854.8489               866.7100               910.3088
 Red. masses --      1.5886                 2.8229                 1.4229
 Frc consts  --      0.6840                 1.2494                 0.6947
 IR Inten    --      7.0566                 5.0452                 0.5545

                     34                     35                     36
                      A                      A                      A
 Frequencies --    944.4619               985.0987              1000.4199
 Red. masses --      3.7271                 1.2927                 2.1416
 Frc consts  --      1.9588                 0.7391                 1.2628
 IR Inten    --     29.0957                 0.4667                 0.4187

                     37                     38                     39
                      A                      A                      A
 Frequencies --   1007.0324              1014.0008              1024.1666
 Red. masses --      4.2929                 2.6686                 3.0542
 Frc consts  --      2.5650                 1.6166                 1.8875
 IR Inten    --     17.2527                 2.9289                 3.5448

                     40                     41                     42
                      A                      A                      A
 Frequencies --   1045.8737              1069.2366              1080.2539
 Red. masses --      3.2987                 2.5252                 4.0656
 Frc consts  --      2.1259                 1.7010                 2.7953
 IR Inten    --     30.6770                10.3001               152.0902

                     43                     44                     45
                      A                      A                      A
 Frequencies --   1106.9239              1123.5877              1157.2104
 Red. masses --      1.9443                 3.4004                 1.5337
 Frc consts  --      1.4036                 2.5293                 1.2101
 IR Inten    --      8.3432               110.4254                 2.2550

                     46                     47                     48
                      A                      A                      A
 Frequencies --   1174.8490              1176.7534              1209.9576
 Red. masses --      1.2471                 1.2543                 1.4435
 Frc consts  --      1.0142                 1.0233                 1.2451
 IR Inten    --      3.5170                 1.1967                 2.9813

                     49                     50                     51
                      A                      A                      A
 Frequencies --   1232.1737              1242.2765              1263.4422
 Red. masses --      1.7661                 1.8927                 1.5077
 Frc consts  --      1.5799                 1.7210                 1.4180
 IR Inten    --     10.0823                38.2050                21.9132

                     52                     53                     54
                      A                      A                      A
 Frequencies --   1284.7453              1298.7582              1313.7400
 Red. masses --      1.3928                 1.7436                 1.4392
 Frc consts  --      1.3545                 1.7328                 1.4635
 IR Inten    --     14.7935               134.8149                35.9492

                     55                     56                     57
                      A                      A                      A
 Frequencies --   1324.2554              1343.8318              1370.1513
 Red. masses --      1.5913                 1.3587                 2.3639
 Frc consts  --      1.6441                 1.4457                 2.6147
 IR Inten    --     29.0778                71.7745               124.3424

                     58                     59                     60
                      A                      A                      A
 Frequencies --   1392.8220              1405.9767              1415.8990
 Red. masses --      1.2566                 1.3624                 1.6667
 Frc consts  --      1.4363                 1.5867                 1.9687
 IR Inten    --     24.9622                30.5826                 5.9522

                     61                     62                     63
                      A                      A                      A
 Frequencies --   1426.0789              1444.6749              1453.9967
 Red. masses --      1.2688                 2.1732                 1.9105
 Frc consts  --      1.5203                 2.6723                 2.3797
 IR Inten    --     58.1101                72.4057                74.2377

                     64                     65                     66
                      A                      A                      A
 Frequencies --   1472.6455              1477.3561              1490.2013
 Red. masses --      1.1471                 1.0539                 1.1395
 Frc consts  --      1.4658                 1.3553                 1.4909
 IR Inten    --     21.6563                 5.6542                38.7664

                     67                     68                     69
                      A                      A                      A
 Frequencies --   1492.2553              1496.1881              1515.2861
 Red. masses --      1.0807                 1.2234                 1.1155
 Frc consts  --      1.4179                 1.6136                 1.5090
 IR Inten    --      7.1163                78.3562                 4.2965

                     70                     71                     72
                      A                      A                      A
 Frequencies --   1522.1363              1534.8145              1578.8624
 Red. masses --      2.6275                 1.7671                 5.1136
 Frc consts  --      3.5868                 2.4526                 7.5104
 IR Inten    --    135.3853                97.4964               209.6847

                     73                     74                     75
                      A                      A                      A
 Frequencies --   1638.1347              1665.9051              2859.4510
 Red. masses --      6.3401                 6.8324                 1.0747
 Frc consts  --     10.0241                11.1718                 5.1772
 IR Inten    --     88.6097                78.1847               146.7946

                     76                     77                     78
                      A                      A                      A
 Frequencies --   2967.0212              3027.6082              3037.0209
 Red. masses --      1.0704                 1.0630                 1.0656
 Frc consts  --      5.5517                 5.7410                 5.7906
 IR Inten    --     53.9156                 5.9304                31.3828

                     79                     80                     81
                      A                      A                      A
 Frequencies --   3052.0526              3052.8804              3056.3600
 Red. masses --      1.0348                 1.0802                 1.0887
 Frc consts  --      5.6792                 5.9318                 5.9920
 IR Inten    --     63.2624                31.2313                25.1609

                     82                     83                     84
                      A                      A                      A
 Frequencies --   3081.3955              3112.9214              3132.3465
 Red. masses --      1.1007                 1.0984                 1.1062
 Frc consts  --      6.1578                 6.2712                 6.3947
 IR Inten    --     27.7672                24.1265                22.4327

                     85                     86                     87
                      A                      A                      A
 Frequencies --   3136.1736              3163.0063              3168.4346
 Red. masses --      1.0879                 1.0863                 1.1035
 Frc consts  --      6.3042                 6.4030                 6.5270
 IR Inten    --     29.5526                 8.5865                 7.7470

                     88                     89                     90
                      A                      A                      A
 Frequencies --   3187.0014              3190.8651              3814.7202
 Red. masses --      1.0967                 1.0902                 1.0661
 Frc consts  --      6.5631                 6.5400                 9.1408
 IR Inten    --     29.0876                14.0360                16.8338

 - Thermochemistry -
 -------------------
 Temperature   298.150 Kelvin.  Pressure   1.00000 Atm.
 Atom     1 has atomic number  6 and mass  12.00000

 Molecular mass:   220.12118 amu.
 Principal axes and moments of inertia in atomic units:
                           1         2         3
     Eigenvalues --  1564.196126396.024657615.94828
           X            1.00000  -0.00006  -0.00178
           Y            0.00007   0.99999   0.00464
           Z            0.00178  -0.00464   0.99999
 This molecule is an asymmetric top.
 Rotational symmetry number  1.
 Warning -- assumption of classical behavior for rotation
           may cause significant error
 Rotational temperatures (Kelvin)      0.05537     0.01354     0.01137
 Rotational constants (GHZ):           1.15378     0.28217     0.23697
 Zero-point vibrational energy     702926.0 (Joules/Mol)
                                  168.00336 (Kcal/Mol)
 Warning -- explicit consideration of  23 degrees of freedom as
           vibrations may cause significant error
 Vibrational temperatures:     46.85    55.33    96.08   111.78   160.45
          (Kelvin)            185.67   204.75   240.74   292.79   316.05
                              359.69   371.68   413.87   449.56   465.70
                              541.07   614.16   661.29   698.69   709.89
                              781.19   820.23   831.16   943.31   969.81
                              984.16  1018.88  1090.20  1120.46  1181.07
                             1229.94  1247.00  1309.73  1358.87  1417.34
                             1439.38  1448.89  1458.92  1473.55  1504.78
                             1538.39  1554.24  1592.62  1616.59  1664.97
                             1690.35  1693.09  1740.86  1772.82  1787.36
                             1817.81  1848.46  1868.62  1890.18  1905.31
                             1933.47  1971.34  2003.96  2022.89  2037.16
                             2051.81  2078.56  2091.98  2118.81  2125.59
                             2144.07  2147.02  2152.68  2180.16  2190.01
                             2208.26  2271.63  2356.91  2396.87  4114.11
                             4268.88  4356.05  4369.60  4391.22  4392.41
                             4397.42  4433.44  4478.80  4506.75  4512.25
                             4550.86  4558.67  4585.38  4590.94  5488.53

 Zero-point correction=                           0.267730 (Hartree/Particle)
 Thermal correction to Energy=                    0.283231
 Thermal correction to Enthalpy=                  0.284175
 Thermal correction to Gibbs Free Energy=         0.224016
 Sum of electronic and zero-point Energies=           -726.575858
 Sum of electronic and thermal Energies=              -726.560358
 Sum of electronic and thermal Enthalpies=            -726.559414
 Sum of electronic and thermal Free Energies=         -726.619573

                     E (Thermal)             CV                S
                      KCal/Mol        Cal/Mol-Kelvin    Cal/Mol-Kelvin
 Total                  177.730             58.227            126.616
 Electronic               0.000              0.000              0.000
 Translational            0.889              2.981             42.070
 Rotational               0.889              2.981             32.699
 Vibrational            175.953             52.265             51.846
 Vibration     1          0.594              1.983              5.667
 Vibration     2          0.594              1.982              5.337
 Vibration     3          0.598              1.970              4.246
 Vibration     4          0.599              1.964              3.948
 Vibration     5          0.607              1.940              3.242
 Vibration     6          0.612              1.924              2.960
 Vibration     7          0.616              1.911              2.773
 Vibration     8          0.624              1.883              2.465
 Vibration     9          0.639              1.835              2.101
 Vibration    10          0.647              1.811              1.962
 Vibration    11          0.663              1.763              1.731
 Vibration    12          0.667              1.749              1.673
 Vibration    13          0.685              1.697              1.488
 Vibration    14          0.701              1.650              1.349
 Vibration    15          0.708              1.628              1.291
 Vibration    16          0.747              1.521              1.055
 Vibration    17          0.789              1.412              0.869
 Vibration    18          0.818              1.340              0.767
 Vibration    19          0.842              1.282              0.695
 Vibration    20          0.849              1.265              0.675
 Vibration    21          0.898              1.155              0.559
 Vibration    22          0.926              1.096              0.504
 Vibration    23          0.934              1.080              0.490

 Optimization completed.
    -- Stationary point found.
 Normal termination of Gaussian 16 at Mon May 29 20:06:14 2023.
