 Gaussian 16, Revision A.03,
 Gaussian 16:  ES64L-G16RevA.03 25-Dec-2016

 -----------------------------
 # opt freq b3lyp/6-31g(2df,p)
 -----------------------------

 -------------------
 Title Card Required
 -------------------
 Symbolic Z-matrix:
 Charge =  0 Multiplicity = 1

 SCF Done:  E(RB3LYP) =  -599.862203166     A.U. after   13 cycles
 SCF Done:  E(RB3LYP) =  -599.868702139     A.U. after   10 cycles
 SCF Done:  E(RB3LYP) =  -599.871324369     A.U. after   11 cycles
 SCF Done:  E(RB3LYP) =  -599.872797455     A.U. after   12 cycles
 SCF Done:  E(RB3LYP) =  -599.873874664     A.U. after   10 cycles
 SCF Done:  E(RB3LYP) =  -599.875414525     A.U. after   11 cycles
 SCF Done:  E(RB3LYP) =  -599.875383657     A.U. after   10 cycles
 SCF Done:  E(RB3LYP) =  -599.876533374     A.U. after   11 cycles
 SCF Done:  E(RB3LYP) =  -599.877801226     A.U. after   12 cycles
 SCF Done:  E(RB3LYP) =  -599.877098067     A.U. after   11 cycles
 SCF Done:  E(RB3LYP) =  -599.880799274     A.U. after   10 cycles
 SCF Done:  E(RB3LYP) =  -599.880920198     A.U. after   10 cycles
 SCF Done:  E(RB3LYP) =  -599.880938530     A.U. after    9 cycles
 SCF Done:  E(RB3LYP) =  -599.880974720     A.U. after    9 cycles
 SCF Done:  E(RB3LYP) =  -599.880970065     A.U. after    9 cycles
 SCF Done:  E(RB3LYP) =  -599.880977386     A.U. after    8 cycles
 SCF Done:  E(RB3LYP) =  -599.880977569     A.U. after    6 cycles
 SCF Done:  E(RB3LYP) =  -599.880977643     A.U. after    6 cycles
 SCF Done:  E(RB3LYP) =  -599.880977738     A.U. after    7 cycles
 Optimization completed.
    -- Stationary point found.
 Normal termination of Gaussian 16 at Sun May 28 06:27:18 2023.

 ----------------------------------------------------------------------
 #N Geom=AllCheck Guess=TCheck SCRF=Check GenChk RB3LYP/6-31G(2df,p) Fr
 eq
 ----------------------------------------------------------------------

 Structure from the checkpoint file:  "COC1dCNqCC2CCqCrC2rCqCrC1.chk"
 -------------------
 Title Card Required
 -------------------
 Charge =  0 Multiplicity = 1

                         Standard orientation:
 ---------------------------------------------------------------------
 Center     Atomic      Atomic             Coordinates (Angstroms)
 Number     Number       Type             X           Y           Z
 ---------------------------------------------------------------------
      1          6           0       -2.533431   -2.982661   -0.276709
      2          8           0       -2.979119   -1.809413    0.371881
      3          6           0       -2.234726   -0.699627    0.133836
      4          6           0       -1.177952   -0.503641   -0.665546
      5          7           0       -0.791744    0.859330   -0.724887
      6          6           0        0.630037    1.153397   -0.874011
      7          6           0        1.578975    0.623055    0.205871
      8          6           0        3.086312    0.977795    0.071059
      9          6           0        3.434467   -0.449087    0.582282
     10          6           0        4.608250   -1.192655   -0.035626
     11          6           0        1.985995   -0.877995    0.215939
     12          6           0       -1.512583    1.553335    0.370805
     13          6           0       -1.938546    2.965853   -0.018710
     14          6           0       -2.693815    0.609083    0.716207
     15          1           0       -3.205648   -3.788461    0.023128
     16          1           0       -1.505059   -3.232146    0.020743
     17          1           0       -2.562923   -2.867260   -1.369445
     18          1           0       -0.664820   -1.218133   -1.292390
     19          1           0        0.736351    2.243690   -0.937407
     20          1           0        0.954526    0.762348   -1.848560
     21          1           0        1.220291    0.915130    1.198861
     22          1           0        3.467213    1.836452    0.630672
     23          1           0        3.370062    1.097513   -0.982125
     24          1           0        3.543018   -0.427132    1.672989
     25          1           0        4.520668   -1.226141   -1.127870
     26          1           0        4.660883   -2.226189    0.325455
     27          1           0        5.560823   -0.707701    0.206748
     28          1           0        1.456015   -1.551319    0.893612
     29          1           0        1.950012   -1.303314   -0.794760
     30          1           0       -0.857434    1.611355    1.255599
     31          1           0       -2.597115    2.937379   -0.891972
     32          1           0       -1.076437    3.594145   -0.264268
     33          1           0       -2.474054    3.446510    0.807128
     34          1           0       -3.623238    0.940353    0.229658
     35          1           0       -2.895880    0.561803    1.790981
 ---------------------------------------------------------------------

 SCF Done:  E(RB3LYP) =  -599.880977738     A.U. after    1 cycles

 The electronic state is 1-A.
 Alpha  occ. eigenvalues --  -19.15785 -14.31635 -10.22755 -10.20946 -10.20905
 Alpha  occ. eigenvalues --  -10.19987 -10.18229 -10.18224 -10.17860 -10.17805
 Alpha  occ. eigenvalues --  -10.17377 -10.17208 -10.16986 -10.16956  -1.05146
 Alpha  occ. eigenvalues --   -0.92894  -0.84276  -0.78168  -0.74903  -0.72680
 Alpha  occ. eigenvalues --   -0.69814  -0.67010  -0.65220  -0.64894  -0.59054
 Alpha  occ. eigenvalues --   -0.56143  -0.54051  -0.53584  -0.51198  -0.47991
 Alpha  occ. eigenvalues --   -0.47270  -0.45675  -0.45156  -0.44006  -0.43412
 Alpha  occ. eigenvalues --   -0.41701  -0.41005  -0.40065  -0.39479  -0.38556
 Alpha  occ. eigenvalues --   -0.37933  -0.37043  -0.36043  -0.34933  -0.34185
 Alpha  occ. eigenvalues --   -0.33271  -0.32663  -0.31813  -0.31249  -0.31220
 Alpha  occ. eigenvalues --   -0.29379  -0.29035  -0.26497  -0.15877
 Alpha virt. eigenvalues --    0.05853   0.08122   0.09355   0.09841   0.10509
 Alpha virt. eigenvalues --    0.11874   0.12038   0.13477   0.14006   0.14753
 Alpha virt. eigenvalues --    0.15555   0.15834   0.16009   0.16312   0.16517

 Mulliken charges:
               1
     1  C   -0.239697
     2  O   -0.255301
     3  C    0.303278
     4  C   -0.161760
     5  N   -0.085669
     6  C   -0.213724
     7  C    0.047241
     8  C   -0.253186
     9  C    0.053416
    10  C   -0.407255
    11  C   -0.235286
    12  C    0.070230
    13  C   -0.395442
    14  C   -0.347216
    15  H    0.128400
    16  H    0.115555
    17  H    0.116201
    18  H    0.102447
    19  H    0.099235
    20  H    0.091861
    21  H    0.072668
    22  H    0.091125
    23  H    0.091185
    24  H    0.069384
    25  H    0.108139
    26  H    0.112067
    27  H    0.112258
    28  H    0.096131
    29  H    0.086688
    30  H    0.067005
    31  H    0.120986
    32  H    0.112947
    33  H    0.111258
    34  H    0.106034
    35  H    0.108799
 Sum of Mulliken charges =  -0.00000

 Dipole moment (field-independent basis, Debye):
    X=              0.9908    Y=             -0.3216    Z=              0.0542  Tot=              1.0431
 Quadrupole moment (field-independent basis, Debye-Ang):
   XX=            -90.4196   YY=            -82.2453   ZZ=            -87.1844
   XY=              0.6015   XZ=              0.3784   YZ=              3.1141

  Exact polarizability: 161.535   3.239 146.227  -8.461   1.141 110.134
 Approx polarizability: 208.386  10.909 197.076 -20.175  -1.322 183.889

                      1                      2                      3
                      A                      A                      A
 Frequencies --     33.6490                42.2337                58.2178
 Red. masses --      2.5614                 3.7347                 2.5984
 Frc consts  --      0.0017                 0.0039                 0.0052
 IR Inten    --      0.0971                 0.0082                 0.6812

                      4                      5                      6
                      A                      A                      A
 Frequencies --     66.6380               113.6485               130.0474
 Red. masses --      2.9312                 3.1258                 2.9865
 Frc consts  --      0.0077                 0.0238                 0.0298
 IR Inten    --      0.2031                 0.3968                 2.7903

                      7                      8                      9
                      A                      A                      A
 Frequencies --    167.4175               203.1295               223.1449
 Red. masses --      2.7615                 2.2578                 1.1966
 Frc consts  --      0.0456                 0.0549                 0.0351
 IR Inten    --      0.4734                 3.3063                 0.3414

                     10                     11                     12
                      A                      A                      A
 Frequencies --    233.8773               239.0446               269.6153
 Red. masses --      1.0634                 1.3281                 2.2047
 Frc consts  --      0.0343                 0.0447                 0.0944
 IR Inten    --      0.1507                 0.3895                 0.6715

                     13                     14                     15
                      A                      A                      A
 Frequencies --    298.2525               335.7733               350.6703
 Red. masses --      2.4504                 2.7323                 3.0298
 Frc consts  --      0.1284                 0.1815                 0.2195
 IR Inten    --      0.2954                 1.2103                 0.2535

                     16                     17                     18
                      A                      A                      A
 Frequencies --    388.2641               390.5096               424.8831
 Red. masses --      2.3453                 2.5478                 1.7905
 Frc consts  --      0.2083                 0.2289                 0.1904
 IR Inten    --      0.2638                 1.7783                 0.1059

                     19                     20                     21
                      A                      A                      A
 Frequencies --    456.8476               482.4442               531.5743
 Red. masses --      2.6205                 2.5855                 3.4536
 Frc consts  --      0.3222                 0.3546                 0.5750
 IR Inten    --      1.6214                 3.1550                 6.6607

                     22                     23                     24
                      A                      A                      A
 Frequencies --    592.3327               634.2708               650.7907
 Red. masses --      3.4783                 4.6058                 3.1424
 Frc consts  --      0.7190                 1.0917                 0.7841
 IR Inten    --      4.6721                17.4657                 9.5809

                     25                     26                     27
                      A                      A                      A
 Frequencies --    773.9189               779.0755               813.4803
 Red. masses --      2.5976                 2.2080                 1.3255
 Frc consts  --      0.9167                 0.7896                 0.5168
 IR Inten    --     12.7121                 2.2708                 7.3272

                     28                     29                     30
                      A                      A                      A
 Frequencies --    821.1845               881.0314               896.2041
 Red. masses --      1.4230                 2.1234                 2.0569
 Frc consts  --      0.5654                 0.9711                 0.9734
 IR Inten    --     32.8316                 0.4746                 0.0354

                     31                     32                     33
                      A                      A                      A
 Frequencies --    903.6352               917.5714               932.1466
 Red. masses --      2.5559                 1.6433                 1.6995
 Frc consts  --      1.2297                 0.8152                 0.8700
 IR Inten    --      1.1554                 3.5240                 5.3375

                     34                     35                     36
                      A                      A                      A
 Frequencies --    954.1280               954.7161               978.4541
 Red. masses --      1.7216                 1.8202                 1.1958
 Frc consts  --      0.9234                 0.9775                 0.6745
 IR Inten    --      1.1082                 6.2970                 1.7080

                     37                     38                     39
                      A                      A                      A
 Frequencies --   1036.5118              1047.3104              1052.0157
 Red. masses --      2.2877                 2.3002                 2.7266
 Frc consts  --      1.4481                 1.4865                 1.7779
 IR Inten    --     20.3578                 3.0875                18.1618

                     40                     41                     42
                      A                      A                      A
 Frequencies --   1073.9438              1088.0323              1117.1156
 Red. masses --      2.5918                 2.1718                 1.9427
 Frc consts  --      1.7612                 1.5148                 1.4284
 IR Inten    --     17.4536                44.7456                13.3991

                     43                     44                     45
                      A                      A                      A
 Frequencies --   1133.7223              1137.9758              1145.8944
 Red. masses --      2.3583                 2.0161                 2.0246
 Frc consts  --      1.7859                 1.5383                 1.5663
 IR Inten    --      5.3790                12.4287                 2.1551

                     46                     47                     48
                      A                      A                      A
 Frequencies --   1169.8135              1180.9641              1182.6798
 Red. masses --      2.2458                 1.6619                 1.3887
 Frc consts  --      1.8107                 1.3656                 1.1444
 IR Inten    --     40.8129                25.2444                 9.5719

                     49                     50                     51
                      A                      A                      A
 Frequencies --   1211.8260              1224.0944              1230.3591
 Red. masses --      1.6114                 1.5616                 1.3991
 Frc consts  --      1.3942                 1.3787                 1.2478
 IR Inten    --      0.5912                 4.5001                 0.1539

                     52                     53                     54
                      A                      A                      A
 Frequencies --   1247.7830              1261.2785              1266.9991
 Red. masses --      1.4331                 1.2631                 1.4281
 Frc consts  --      1.3146                 1.1839                 1.3507
 IR Inten    --      3.8288                10.5457                15.2844

                     55                     56                     57
                      A                      A                      A
 Frequencies --   1273.7221              1296.0237              1304.2681
 Red. masses --      1.5936                 1.4214                 1.6567
 Frc consts  --      1.5233                 1.4067                 1.6605
 IR Inten    --     43.5318                13.5209               122.2355

                     58                     59                     60
                      A                      A                      A
 Frequencies --   1338.2559              1348.2441              1355.4606
 Red. masses --      1.4671                 1.7599                 1.8664
 Frc consts  --      1.5480                 1.8848                 2.0204
 IR Inten    --      2.3486                76.1951                41.1980

                     61                     62                     63
                      A                      A                      A
 Frequencies --   1371.9253              1376.3107              1398.6329
 Red. masses --      1.3896                 1.5659                 1.3798
 Frc consts  --      1.5410                 1.7476                 1.5903
 IR Inten    --      1.1905                31.9831                17.5926

                     64                     65                     66
                      A                      A                      A
 Frequencies --   1401.7293              1408.7279              1411.3916
 Red. masses --      1.5685                 1.2914                 1.3313
 Frc consts  --      1.8158                 1.5099                 1.5625
 IR Inten    --     13.8190                11.1939                10.6150

                     67                     68                     69
                      A                      A                      A
 Frequencies --   1473.2342              1476.2912              1479.0347
 Red. masses --      1.0984                 1.1137                 1.1710
 Frc consts  --      1.4046                 1.4301                 1.5093
 IR Inten    --      4.3371                 1.1268                 2.9855

                     70                     71                     72
                      A                      A                      A
 Frequencies --   1481.0388              1490.9172              1493.3573
 Red. masses --      1.0597                 1.0544                 1.0866
 Frc consts  --      1.3696                 1.3808                 1.4278
 IR Inten    --      5.1422                 2.4797                 0.0757

                     73                     74                     75
                      A                      A                      A
 Frequencies --   1494.1872              1496.3472              1498.7295
 Red. masses --      1.0578                 1.0504                 1.0595
 Frc consts  --      1.3914                 1.3857                 1.4022
 IR Inten    --      2.4379                 1.7746                 2.1643

                     76                     77                     78
                      A                      A                      A
 Frequencies --   1503.0488              1509.2639              1723.6941
 Red. masses --      1.1147                 1.0498                 6.9323
 Frc consts  --      1.4837                 1.4089                12.1352
 IR Inten    --      7.2172                14.6795                36.7686

                     79                     80                     81
                      A                      A                      A
 Frequencies --   2951.9562              2990.1057              2995.3446
 Red. masses --      1.0820                 1.0350                 1.0695
 Frc consts  --      5.5552                 5.4523                 5.6537
 IR Inten    --     39.7232                47.9214                56.5437

                     82                     83                     84
                      A                      A                      A
 Frequencies --   3003.0624              3019.1073              3025.4926
 Red. masses --      1.0634                 1.0373                 1.0612
 Frc consts  --      5.6503                 5.5708                 5.7230
 IR Inten    --     32.4027                26.6566                45.5902

                     85                     86                     87
                      A                      A                      A
 Frequencies --   3027.2487              3032.7770              3034.9305
 Red. masses --      1.0736                 1.0392                 1.0744
 Frc consts  --      5.7966                 5.6317                 5.8306
 IR Inten    --      6.0954                18.4838                16.6827

                     88                     89                     90
                      A                      A                      A
 Frequencies --   3041.7722              3042.1658              3054.0480
 Red. masses --      1.0803                 1.1034                 1.0948
 Frc consts  --      5.8891                 6.0164                 6.0162
 IR Inten    --     33.5200                39.1541                37.8425

                     91                     92                     93
                      A                      A                      A
 Frequencies --   3064.7538              3086.2115              3087.0991
 Red. masses --      1.0919                 1.1016                 1.1009
 Frc consts  --      6.0427                 6.1821                 6.1815
 IR Inten    --     27.5849                20.8787                27.8576

                     94                     95                     96
                      A                      A                      A
 Frequencies --   3091.7628              3099.7251              3101.7898
 Red. masses --      1.1025                 1.1006                 1.1017
 Frc consts  --      6.2090                 6.2308                 6.2453
 IR Inten    --     48.2972                23.2395                59.5671

                     97                     98                     99
                      A                      A                      A
 Frequencies --   3112.0554              3130.0223              3233.5759
 Red. masses --      1.1021                 1.0983                 1.0945
 Frc consts  --      6.2886                 6.3399                 6.7428
 IR Inten    --     29.8831                26.5827                11.2672

 - Thermochemistry -
 -------------------
 Temperature   298.150 Kelvin.  Pressure   1.00000 Atm.
 Atom     1 has atomic number  6 and mass  12.00000

 Molecular mass:   195.16231 amu.
 Principal axes and moments of inertia in atomic units:
                           1         2         3
     Eigenvalues --  1905.834954615.384836085.75628
           X            0.99984  -0.01800  -0.00109
           Y            0.01801   0.99977   0.01186
           Z            0.00088  -0.01188   0.99993
 This molecule is an asymmetric top.
 Rotational symmetry number  1.
 Warning -- assumption of classical behavior for rotation
           may cause significant error
 Rotational temperatures (Kelvin)      0.04545     0.01877     0.01423
 Rotational constants (GHZ):           0.94696     0.39103     0.29655
 Zero-point vibrational energy     821595.2 (Joules/Mol)
                                  196.36596 (Kcal/Mol)
 Warning -- explicit consideration of  22 degrees of freedom as
           vibrations may cause significant error
 Vibrational temperatures:     48.41    60.76    83.76    95.88   163.51
          (Kelvin)            187.11   240.88   292.26   321.06   336.50
                              343.93   387.92   429.12   483.10   504.54
                              558.63   561.86   611.31   657.30   694.13
                              764.82   852.23   912.57   936.34  1113.50
                             1120.92  1170.42  1181.50  1267.61  1289.44
                             1300.13  1320.18  1341.15  1372.78  1373.62
                             1407.78  1491.31  1506.85  1513.62  1545.17
                             1565.44  1607.28  1631.17  1637.29  1648.69
                             1683.10  1699.14  1701.61  1743.55  1761.20
                             1770.21  1795.28  1814.70  1822.93  1832.60
                             1864.69  1876.55  1925.45  1939.82  1950.21
                             1973.89  1980.20  2012.32  2016.78  2026.85
                             2030.68  2119.66  2124.05  2128.00  2130.88
                             2145.10  2148.61  2149.80  2152.91  2156.34
                             2162.55  2171.49  2480.01  4247.21  4302.10
                             4309.63  4320.74  4343.82  4353.01  4355.54
                             4363.49  4366.59  4376.43  4377.00  4394.09
                             4409.50  4440.37  4441.65  4448.36  4459.81
                             4462.78  4477.55  4503.40  4652.39

 Zero-point correction=                           0.312929 (Hartree/Particle)
 Thermal correction to Energy=                    0.328129
 Thermal correction to Enthalpy=                  0.329073
 Thermal correction to Gibbs Free Energy=         0.269838
 Sum of electronic and zero-point Energies=           -599.568049
 Sum of electronic and thermal Energies=              -599.552849
 Sum of electronic and thermal Enthalpies=            -599.551905
 Sum of electronic and thermal Free Energies=         -599.611139

                     E (Thermal)             CV                S
                      KCal/Mol        Cal/Mol-Kelvin    Cal/Mol-Kelvin
 Total                  205.904             57.616            124.670
 Electronic               0.000              0.000              0.000
 Translational            0.889              2.981             41.711
 Rotational               0.889              2.981             32.348
 Vibrational            204.126             51.654             50.610
 Vibration     1          0.594              1.983              5.602
 Vibration     2          0.595              1.980              5.151
 Vibration     3          0.596              1.974              4.517
 Vibration     4          0.598              1.970              4.250
 Vibration     5          0.607              1.938              3.206
 Vibration     6          0.612              1.923              2.945
 Vibration     7          0.624              1.883              2.464
 Vibration     8          0.639              1.835              2.105
 Vibration     9          0.649              1.806              1.933
 Vibration    10          0.654              1.789              1.849
 Vibration    11          0.657              1.781              1.810
 Vibration    12          0.674              1.729              1.599
 Vibration    13          0.691              1.677              1.427
 Vibration    14          0.717              1.604              1.232
 Vibration    15          0.728              1.574              1.163
 Vibration    16          0.756              1.495              1.007
 Vibration    17          0.758              1.490              0.998
 Vibration    18          0.787              1.416              0.876
 Vibration    19          0.815              1.346              0.775
 Vibration    20          0.839              1.289              0.704
 Vibration    21          0.887              1.180              0.584
 Vibration    22          0.950              1.048              0.463

 Optimization completed.
    -- Stationary point found.
 Normal termination of Gaussian 16 at Sun May 28 08:43:28 2023.
