 Gaussian 16, Revision A.03,
 Gaussian 16:  ES64L-G16RevA.03 25-Dec-2016

 -----------------------------
 # opt freq b3lyp/6-31g(2df,p)
 -----------------------------

 -------------------
 Title Card Required
 -------------------
 Symbolic Z-matrix:
 Charge =  0 Multiplicity = 1

 SCF Done:  E(RB3LYP) =  -562.960245973     A.U. after   12 cycles
 SCF Done:  E(RB3LYP) =  -562.968299107     A.U. after   11 cycles
 SCF Done:  E(RB3LYP) =  -562.972505129     A.U. after   10 cycles
 SCF Done:  E(RB3LYP) =  -562.975328475     A.U. after   11 cycles
 SCF Done:  E(RB3LYP) =  -562.977563906     A.U. after   10 cycles
 SCF Done:  E(RB3LYP) =  -562.980549268     A.U. after   11 cycles
 SCF Done:  E(RB3LYP) =  -562.983477889     A.U. after   11 cycles
 SCF Done:  E(RB3LYP) =  -562.989062702     A.U. after   11 cycles
 SCF Done:  E(RB3LYP) =  -562.992350028     A.U. after   10 cycles
 SCF Done:  E(RB3LYP) =  -562.995667805     A.U. after   11 cycles
 SCF Done:  E(RB3LYP) =  -563.005505277     A.U. after   10 cycles
 SCF Done:  E(RB3LYP) =  -563.005714008     A.U. after   11 cycles
 SCF Done:  E(RB3LYP) =  -563.006302827     A.U. after   11 cycles
 SCF Done:  E(RB3LYP) =  -563.006462511     A.U. after   10 cycles
 SCF Done:  E(RB3LYP) =  -563.006521769     A.U. after    9 cycles
 SCF Done:  E(RB3LYP) =  -563.006564389     A.U. after    8 cycles
 SCF Done:  E(RB3LYP) =  -563.006580160     A.U. after    9 cycles
 SCF Done:  E(RB3LYP) =  -563.006584462     A.U. after    7 cycles
 SCF Done:  E(RB3LYP) =  -563.006584812     A.U. after    7 cycles
 Optimization completed.
    -- Stationary point found.
 Normal termination of Gaussian 16 at Mon May 22 23:08:10 2023.

 ----------------------------------------------------------------------
 #N Geom=AllCheck Guess=TCheck SCRF=Check GenChk RB3LYP/6-31G(2df,p) Fr
 eq
 ----------------------------------------------------------------------

 Structure from the checkpoint file:  "COC1CCCqCrCCCCNC1.chk"
 -------------------
 Title Card Required
 -------------------
 Charge =  0 Multiplicity = 1

                         Standard orientation:
 ---------------------------------------------------------------------
 Center     Atomic      Atomic             Coordinates (Angstroms)
 Number     Number       Type             X           Y           Z
 ---------------------------------------------------------------------
      1          6           0        3.910824   -0.234071    0.560847
      2          8           0        2.545999   -0.573019    0.529044
      3          6           0        1.871192   -0.220901   -0.677543
      4          6           0        0.668444   -1.173426   -0.868449
      5          6           0       -0.001099   -1.670872    0.439954
      6          6           0       -1.549002   -1.691962    0.524515
      7          6           0       -2.221557   -2.363678   -0.681194
      8          6           0       -2.190840   -0.333916    0.906301
      9          6           0       -2.429150    0.728785   -0.197576
     10          6           0       -2.060597    2.165436    0.233537
     11          6           0       -0.626347    2.548504   -0.171252
     12          7           0        0.339503    1.524747    0.200332
     13          6           0        1.455140    1.261557   -0.688936
     14          1           0        4.312167   -0.598277    1.510507
     15          1           0        4.084980    0.851198    0.505250
     16          1           0        4.466656   -0.708943   -0.263431
     17          1           0        2.569851   -0.362902   -1.519608
     18          1           0        1.011951   -2.041365   -1.440978
     19          1           0       -0.053083   -0.660588   -1.509550
     20          1           0        0.373621   -1.088278    1.282669
     21          1           0        0.348288   -2.694533    0.620186
     22          1           0       -1.756508   -2.338653    1.389309
     23          1           0       -2.080218   -1.796261   -1.606516
     24          1           0       -3.301031   -2.464276   -0.522413
     25          1           0       -1.814797   -3.367334   -0.847620
     26          1           0       -1.570093    0.104162    1.694441
     27          1           0       -3.158356   -0.548243    1.379708
     28          1           0       -3.482551    0.700989   -0.497305
     29          1           0       -1.860527    0.484888   -1.099818
     30          1           0       -2.188967    2.271228    1.318836
     31          1           0       -2.740733    2.896499   -0.221254
     32          1           0       -0.379133    3.550919    0.219923
     33          1           0       -0.599052    2.635860   -1.264397
     34          1           0        0.636480    1.600323    1.163226
     35          1           0        2.339344    1.894952   -0.496159
     36          1           0        1.135150    1.496809   -1.710904
 ---------------------------------------------------------------------

 SCF Done:  E(RB3LYP) =  -563.006584812     A.U. after    1 cycles

 The electronic state is 1-A.
 Alpha  occ. eigenvalues --  -19.13254 -14.30425 -10.22195 -10.22078 -10.20011
 Alpha  occ. eigenvalues --  -10.19958 -10.17050 -10.16934 -10.16617 -10.16485
 Alpha  occ. eigenvalues --  -10.16076 -10.15973 -10.15713  -1.02441  -0.89526
 Alpha  occ. eigenvalues --   -0.79690  -0.78120  -0.74047  -0.71018  -0.67887
 Alpha  occ. eigenvalues --   -0.66887  -0.63143  -0.61961  -0.57580  -0.55384
 Alpha  occ. eigenvalues --   -0.52431  -0.48833  -0.48278  -0.47181  -0.45868
 Alpha  occ. eigenvalues --   -0.44335  -0.43725  -0.42617  -0.41703  -0.40659
 Alpha  occ. eigenvalues --   -0.40424  -0.39413  -0.37629  -0.37011  -0.35910
 Alpha  occ. eigenvalues --   -0.35352  -0.34532  -0.33493  -0.33044  -0.32424
 Alpha  occ. eigenvalues --   -0.31272  -0.30675  -0.29688  -0.28423  -0.28166
 Alpha  occ. eigenvalues --   -0.25049  -0.20453
 Alpha virt. eigenvalues --    0.07292   0.08672   0.09544   0.10284   0.12149
 Alpha virt. eigenvalues --    0.12409   0.13265   0.13509   0.14519   0.14772
 Alpha virt. eigenvalues --    0.15629   0.15769   0.16604   0.16839   0.17567

 Mulliken charges:
               1
     1  C   -0.235170
     2  O   -0.242586
     3  C    0.121094
     4  C   -0.216713
     5  C   -0.164511
     6  C    0.013353
     7  C   -0.387656
     8  C   -0.171223
     9  C   -0.159451
    10  C   -0.202139
    11  C   -0.144640
    12  N   -0.264837
    13  C   -0.173472
    14  H    0.124054
    15  H    0.102289
    16  H    0.102855
    17  H    0.053766
    18  H    0.088384
    19  H    0.096630
    20  H    0.104888
    21  H    0.081492
    22  H    0.066071
    23  H    0.112468
    24  H    0.103575
    25  H    0.104266
    26  H    0.082835
    27  H    0.078604
    28  H    0.084081
    29  H    0.092173
    30  H    0.089918
    31  H    0.085769
    32  H    0.076731
    33  H    0.098803
    34  H    0.220452
    35  H    0.078055
    36  H    0.099789
 Sum of Mulliken charges =   0.00000

 Dipole moment (field-independent basis, Debye):
    X=              1.0225    Y=              1.2156    Z=             -0.4133  Tot=              1.6414
 Quadrupole moment (field-independent basis, Debye-Ang):
   XX=            -79.9235   YY=            -83.3560   ZZ=            -82.0429
   XY=              0.9720   XZ=             -0.4643   YZ=              0.7772

  Exact polarizability: 147.208  -1.514 132.726  -0.560   0.367 109.773
 Approx polarizability: 184.801  -2.664 176.697   0.191  -0.832 177.214

                      1                      2                      3
                      A                      A                      A
 Frequencies --     50.5731                80.0145                89.8562
 Red. masses --      3.0727                 2.4935                 2.5458
 Frc consts  --      0.0046                 0.0094                 0.0121
 IR Inten    --      0.2319                 0.0767                 0.3115

                      4                      5                      6
                      A                      A                      A
 Frequencies --     92.0394               114.1893               162.1314
 Red. masses --      1.9077                 3.2500                 2.6866
 Frc consts  --      0.0095                 0.0250                 0.0416
 IR Inten    --      3.4376                 0.1494                 0.8047

                      7                      8                      9
                      A                      A                      A
 Frequencies --    184.7582               205.0280               222.5362
 Red. masses --      2.0644                 1.8844                 1.5043
 Frc consts  --      0.0415                 0.0467                 0.0439
 IR Inten    --      0.8700                 2.1032                 0.1088

                     10                     11                     12
                      A                      A                      A
 Frequencies --    237.0587               245.2146               251.3420
 Red. masses --      2.2463                 1.4452                 2.1206
 Frc consts  --      0.0744                 0.0512                 0.0789
 IR Inten    --      1.1652                 0.5715                 0.7456

                     13                     14                     15
                      A                      A                      A
 Frequencies --    309.5764               333.7951               348.1360
 Red. masses --      3.0723                 2.1849                 1.8012
 Frc consts  --      0.1735                 0.1434                 0.1286
 IR Inten    --      1.5549                 1.1311                 1.5784

                     16                     17                     18
                      A                      A                      A
 Frequencies --    365.4844               379.3564               400.2060
 Red. masses --      2.4171                 2.8069                 2.3798
 Frc consts  --      0.1902                 0.2380                 0.2246
 IR Inten    --      2.7605                 0.8346                 0.4987

                     19                     20                     21
                      A                      A                      A
 Frequencies --    479.3750               495.8802               602.1063
 Red. masses --      2.5989                 2.3109                 2.3858
 Frc consts  --      0.3519                 0.3348                 0.5096
 IR Inten    --      2.3626                 0.1776                 0.4533

                     22                     23                     24
                      A                      A                      A
 Frequencies --    624.1112               685.1907               733.3688
 Red. masses --      1.3758                 2.1298                 2.9358
 Frc consts  --      0.3157                 0.5891                 0.9303
 IR Inten    --     77.9985                 9.0218                 7.1471

                     25                     26                     27
                      A                      A                      A
 Frequencies --    755.2142               823.7143               840.2597
 Red. masses --      1.7912                 2.5820                 1.6147
 Frc consts  --      0.6019                 1.0322                 0.6717
 IR Inten    --      1.6933                 0.2050                 4.3196

                     28                     29                     30
                      A                      A                      A
 Frequencies --    846.3164               882.4273               907.7503
 Red. masses --      2.0180                 1.8636                 2.4083
 Frc consts  --      0.8516                 0.8550                 1.1692
 IR Inten    --      5.5117                 1.1305                 1.1148

                     31                     32                     33
                      A                      A                      A
 Frequencies --    926.0611               943.4670               970.4507
 Red. masses --      2.3982                 1.8247                 2.3801
 Frc consts  --      1.2118                 0.9570                 1.3207
 IR Inten    --      2.3662                 3.1076                 4.5276

                     34                     35                     36
                      A                      A                      A
 Frequencies --    978.3009               993.4670              1035.0513
 Red. masses --      2.1934                 1.6372                 2.2026
 Frc consts  --      1.2368                 0.9520                 1.3903
 IR Inten    --      1.6161                 2.9316                15.4456

                     37                     38                     39
                      A                      A                      A
 Frequencies --   1043.3425              1066.6362              1073.6637
 Red. masses --      1.8228                 2.4541                 2.2051
 Frc consts  --      1.1691                 1.6450                 1.4976
 IR Inten    --      1.4913                 9.6843                 3.0319

                     40                     41                     42
                      A                      A                      A
 Frequencies --   1101.0398              1124.8834              1135.5640
 Red. masses --      2.2193                 2.1243                 3.9769
 Frc consts  --      1.5852                 1.5837                 3.0215
 IR Inten    --     11.3903                 4.2775               136.1343

                     43                     44                     45
                      A                      A                      A
 Frequencies --   1144.6880              1149.2876              1181.8002
 Red. masses --      1.8032                 1.8568                 1.8996
 Frc consts  --      1.3921                 1.4450                 1.5631
 IR Inten    --      5.1504                51.9040                33.5103

                     46                     47                     48
                      A                      A                      A
 Frequencies --   1184.6028              1208.1208              1214.1965
 Red. masses --      1.6604                 1.2436                 1.4916
 Frc consts  --      1.3728                 1.0694                 1.2956
 IR Inten    --      2.6408                 4.9426                27.5849

                     49                     50                     51
                      A                      A                      A
 Frequencies --   1241.4125              1246.4080              1272.8760
 Red. masses --      1.2138                 1.2394                 1.2317
 Frc consts  --      1.1021                 1.1344                 1.1757
 IR Inten    --      5.0684                 1.3850                 5.2141

                     52                     53                     54
                      A                      A                      A
 Frequencies --   1282.5970              1299.8103              1322.6231
 Red. masses --      1.2333                 1.1833                 1.2918
 Frc consts  --      1.1954                 1.1779                 1.3314
 IR Inten    --      8.3290                 1.6786                 4.6114

                     55                     56                     57
                      A                      A                      A
 Frequencies --   1328.7358              1343.3640              1355.5890
 Red. masses --      1.3301                 1.3965                 1.3488
 Frc consts  --      1.3836                 1.4849                 1.4603
 IR Inten    --      4.0214                 2.1883                 8.6881

                     58                     59                     60
                      A                      A                      A
 Frequencies --   1365.3439              1373.2501              1379.9472
 Red. masses --      1.2952                 1.3733                 1.3581
 Frc consts  --      1.4225                 1.5258                 1.5237
 IR Inten    --      4.3272                 1.4481                11.2239

                     61                     62                     63
                      A                      A                      A
 Frequencies --   1384.4148              1389.8660              1400.6010
 Red. masses --      1.3113                 1.2638                 1.2656
 Frc consts  --      1.4808                 1.4384                 1.4627
 IR Inten    --     25.0302                16.1088                 3.8943

                     64                     65                     66
                      A                      A                      A
 Frequencies --   1407.6401              1417.5053              1419.6520
 Red. masses --      1.2612                 1.3427                 1.3480
 Frc consts  --      1.4724                 1.5896                 1.6007
 IR Inten    --      9.5576                 1.3260                 2.9557

                     67                     68                     69
                      A                      A                      A
 Frequencies --   1471.6031              1478.4626              1480.7736
 Red. masses --      1.1573                 1.1086                 1.0775
 Frc consts  --      1.4767                 1.4277                 1.3920
 IR Inten    --      1.4531                 0.4032                 3.8941

                     70                     71                     72
                      A                      A                      A
 Frequencies --   1482.6239              1484.5245              1491.4673
 Red. masses --      1.0964                 1.1126                 1.0678
 Frc consts  --      1.4200                 1.4446                 1.3995
 IR Inten    --      9.4770                13.2858                 0.4505

                     73                     74                     75
                      A                      A                      A
 Frequencies --   1492.3606              1497.2515              1499.7668
 Red. masses --      1.0875                 1.0963                 1.1058
 Frc consts  --      1.4270                 1.4480                 1.4654
 IR Inten    --      3.1316                 9.0854                 8.7137

                     76                     77                     78
                      A                      A                      A
 Frequencies --   1503.9275              1504.8750              1506.3993
 Red. masses --      1.0923                 1.0597                 1.0899
 Frc consts  --      1.4556                 1.4140                 1.4572
 IR Inten    --      9.1202                 3.2702                 5.5877

                     79                     80                     81
                      A                      A                      A
 Frequencies --   1512.2574              2935.8421              2943.8464
 Red. masses --      1.0672                 1.0714                 1.0730
 Frc consts  --      1.4379                 5.4407                 5.4785
 IR Inten    --      9.3497                37.9419               116.6145

                     82                     83                     84
                      A                      A                      A
 Frequencies --   2950.9559              2972.5910              2982.9280
 Red. masses --      1.0783                 1.0414                 1.0808
 Frc consts  --      5.5326                 5.4218                 5.6661
 IR Inten    --     59.2150               128.0026                10.7977

                     85                     86                     87
                      A                      A                      A
 Frequencies --   3011.1741              3015.7714              3016.4806
 Red. masses --      1.0714                 1.0620                 1.1011
 Frc consts  --      5.7237                 5.6907                 5.9029
 IR Inten    --     40.2109                31.6355                63.3834

                     88                     89                     90
                      A                      A                      A
 Frequencies --   3026.1187              3028.3048              3033.9237
 Red. masses --      1.0479                 1.0646                 1.0819
 Frc consts  --      5.6538                 5.7524                 5.8675
 IR Inten    --     29.8299                31.0323                15.8237

                     91                     92                     93
                      A                      A                      A
 Frequencies --   3040.3929              3048.1793              3052.9883
 Red. masses --      1.0736                 1.0675                 1.0901
 Frc consts  --      5.8474                 5.8440                 5.9864
 IR Inten    --     28.4447                24.8960                17.9504

                     94                     95                     96
                      A                      A                      A
 Frequencies --   3057.4002              3067.5390              3079.0897
 Red. masses --      1.0913                 1.0912                 1.0996
 Frc consts  --      6.0101                 6.0496                 6.1422
 IR Inten    --     32.1645                75.1115                50.3842

                     97                     98                     99
                      A                      A                      A
 Frequencies --   3089.0131              3092.2423              3100.7667
 Red. masses --      1.1012                 1.0960                 1.0962
 Frc consts  --      6.1911                 6.1744                 6.2096
 IR Inten    --     42.8243                15.1325                58.4223

                    100                    101                    102
                      A                      A                      A
 Frequencies --   3104.3709              3112.9935              3576.7841
 Red. masses --      1.0959                 1.0902                 1.0741
 Frc consts  --      6.2224                 6.2246                 8.0962
 IR Inten    --     32.9294                24.1241                 3.6309

 - Thermochemistry -
 -------------------
 Temperature   298.150 Kelvin.  Pressure   1.00000 Atm.
 Atom     1 has atomic number  6 and mass  12.00000

 Molecular mass:   185.17796 amu.
 Principal axes and moments of inertia in atomic units:
                           1         2         3
     Eigenvalues --  1850.830663036.391494295.82373
           X            0.99989   0.01509  -0.00024
           Y           -0.01509   0.99988   0.00454
           Z            0.00031  -0.00454   0.99999
 This molecule is an asymmetric top.
 Rotational symmetry number  1.
 Warning -- assumption of classical behavior for rotation
           may cause significant error
 Rotational temperatures (Kelvin)      0.04680     0.02853     0.02016
 Rotational constants (GHZ):           0.97510     0.59437     0.42012
 Zero-point vibrational energy     874465.8 (Joules/Mol)
                                  209.00233 (Kcal/Mol)
 Warning -- explicit consideration of  21 degrees of freedom as
           vibrations may cause significant error
 Vibrational temperatures:     72.76   115.12   129.28   132.42   164.29
          (Kelvin)            233.27   265.83   294.99   320.18   341.07
                              352.81   361.63   445.41   480.26   500.89
                              525.85   545.81   575.81   689.71   713.46
                              866.30   897.96   985.84  1055.15  1086.58
                             1185.14  1208.95  1217.66  1269.62  1306.05
                             1332.40  1357.44  1396.26  1407.56  1429.38
                             1489.21  1501.14  1534.65  1544.76  1584.15
                             1618.46  1633.82  1646.95  1653.57  1700.35
                             1704.38  1738.22  1746.96  1786.12  1793.30
                             1831.38  1845.37  1870.14  1902.96  1911.75
                             1932.80  1950.39  1964.43  1975.80  1985.44
                             1991.86  1999.71  2015.15  2025.28  2039.47
                             2042.56  2117.31  2127.18  2130.50  2133.17
                             2135.90  2145.89  2147.17  2154.21  2157.83
                             2163.82  2165.18  2167.37  2175.80  4224.02
                             4235.54  4245.77  4276.90  4291.77  4332.41
                             4339.02  4340.04  4353.91  4357.06  4365.14
                             4374.45  4385.65  4392.57  4398.92  4413.50
                             4430.12  4444.40  4449.05  4461.31  4466.50
                             4478.90  5146.19

 Zero-point correction=                           0.333066 (Hartree/Particle)
 Thermal correction to Energy=                    0.347771
 Thermal correction to Enthalpy=                  0.348715
 Thermal correction to Gibbs Free Energy=         0.292145
 Sum of electronic and zero-point Energies=           -562.673518
 Sum of electronic and thermal Energies=              -562.658814
 Sum of electronic and thermal Enthalpies=            -562.657870
 Sum of electronic and thermal Free Energies=         -562.714440

                     E (Thermal)             CV                S
                      KCal/Mol        Cal/Mol-Kelvin    Cal/Mol-Kelvin
 Total                  218.230             56.348            119.062
 Electronic               0.000              0.000              0.000
 Translational            0.889              2.981             41.555
 Rotational               0.889              2.981             31.557
 Vibrational            216.452             50.387             45.950
 Vibration     1          0.595              1.977              4.795
 Vibration     2          0.600              1.963              3.891
 Vibration     3          0.602              1.956              3.663
 Vibration     4          0.602              1.955              3.616
 Vibration     5          0.607              1.938              3.196
 Vibration     6          0.622              1.889              2.525
 Vibration     7          0.631              1.861              2.280
 Vibration     8          0.640              1.833              2.088
 Vibration     9          0.648              1.807              1.938
 Vibration    10          0.656              1.784              1.825
 Vibration    11          0.660              1.771              1.765
 Vibration    12          0.663              1.761              1.721
 Vibration    13          0.699              1.655              1.365
 Vibration    14          0.715              1.608              1.242
 Vibration    15          0.726              1.579              1.175
 Vibration    16          0.739              1.543              1.099
 Vibration    17          0.749              1.514              1.042
 Vibration    18          0.766              1.470              0.962
 Vibration    19          0.836              1.296              0.712
 Vibration    20          0.851              1.259              0.669
 Vibration    21          0.960              1.027              0.446

                           ! Non-Optimized Parameters !
 Normal termination of Gaussian 16 at Tue May 23 02:17:33 2023.
