 Gaussian 16, Revision A.03,
 Gaussian 16:  ES64L-G16RevA.03 25-Dec-2016

 -----------------------------
 # opt freq b3lyp/6-31g(2df,p)
 -----------------------------

 -------------------
 Title Card Required
 -------------------
 Symbolic Z-matrix:
 Charge =  0 Multiplicity = 1

 SCF Done:  E(RB3LYP) =  -578.220221084     A.U. after   12 cycles
 SCF Done:  E(RB3LYP) =  -578.231776304     A.U. after   11 cycles
 SCF Done:  E(RB3LYP) =  -578.236597995     A.U. after   10 cycles
 SCF Done:  E(RB3LYP) =  -578.238875040     A.U. after   10 cycles
 SCF Done:  E(RB3LYP) =  -578.240115327     A.U. after   11 cycles
 SCF Done:  E(RB3LYP) =  -578.240686737     A.U. after   10 cycles
 SCF Done:  E(RB3LYP) =  -578.241418774     A.U. after   11 cycles
 SCF Done:  E(RB3LYP) =  -578.241633485     A.U. after   10 cycles
 SCF Done:  E(RB3LYP) =  -578.241753590     A.U. after   10 cycles
 SCF Done:  E(RB3LYP) =  -578.241972301     A.U. after   10 cycles
 SCF Done:  E(RB3LYP) =  -578.243041293     A.U. after    7 cycles
 SCF Done:  E(RB3LYP) =  -578.243043575     A.U. after    8 cycles
 SCF Done:  E(RB3LYP) =  -578.243044536     A.U. after    7 cycles
 SCF Done:  E(RB3LYP) =  -578.243045001     A.U. after    7 cycles
 SCF Done:  E(RB3LYP) =  -578.243045400     A.U. after    7 cycles
 SCF Done:  E(RB3LYP) =  -578.243045946     A.U. after    7 cycles
 SCF Done:  E(RB3LYP) =  -578.243046268     A.U. after    7 cycles
 SCF Done:  E(RB3LYP) =  -578.243046558     A.U. after    7 cycles
 SCF Done:  E(RB3LYP) =  -578.243046655     A.U. after    6 cycles
 Optimization completed.
    -- Stationary point found.
 Normal termination of Gaussian 16 at Tue May 23 11:14:03 2023.

 ----------------------------------------------------------------------
 #N Geom=AllCheck Guess=TCheck SCRF=Check GenChk RB3LYP/6-31G(2df,p) Fr
 eq
 ----------------------------------------------------------------------

 Structure from the checkpoint file:  "COC1qC2CqCrC2OrCCCO1.chk"
 -------------------
 Title Card Required
 -------------------
 Charge =  0 Multiplicity = 1

                         Standard orientation:
 ---------------------------------------------------------------------
 Center     Atomic      Atomic             Coordinates (Angstroms)
 Number     Number       Type             X           Y           Z
 ---------------------------------------------------------------------
      1          6           0        1.165738    2.534149   -0.584769
      2          8           0        1.093360    1.569391    0.450114
      3          6           0        0.530365    0.300185    0.112071
      4          6           0       -0.921778    0.447605   -0.311300
      5          6           0       -1.845992   -0.698865   -0.726104
      6          6           0       -1.452737   -2.161033   -0.735716
      7          6           0       -2.118796    0.081541    0.528370
      8          8           0       -3.217451    0.933673    0.682682
      9          6           0        0.873469   -0.586165    1.337795
     10          6           0        2.078052   -1.436375    0.872098
     11          6           0        2.461434   -0.792396   -0.467859
     12          8           0        1.235669   -0.272572   -0.980278
     13          1           0        1.916225    3.266645   -0.275941
     14          1           0        0.213224    3.062781   -0.729114
     15          1           0        1.473442    2.082847   -1.534238
     16          1           0       -1.071595    1.334471   -0.920047
     17          1           0       -2.482886   -0.427437   -1.567773
     18          1           0       -0.934236   -2.459944    0.178244
     19          1           0       -0.788258   -2.381911   -1.576614
     20          1           0       -2.342391   -2.793591   -0.826423
     21          1           0       -1.932746   -0.421331    1.471681
     22          1           0       -3.448731    1.293196   -0.179395
     23          1           0        0.037995   -1.214153    1.643190
     24          1           0        1.119602    0.069569    2.173396
     25          1           0        1.779068   -2.476767    0.716594
     26          1           0        2.902896   -1.430772    1.588146
     27          1           0        2.856429   -1.495211   -1.205066
     28          1           0        3.190806    0.015797   -0.324307
 ---------------------------------------------------------------------

 SCF Done:  E(RB3LYP) =  -578.243046655     A.U. after    1 cycles

 The electronic state is 1-A.
 Alpha  occ. eigenvalues --  -19.13948 -19.13846 -19.13479 -10.27884 -10.23309
 Alpha  occ. eigenvalues --  -10.22311 -10.21642 -10.19046 -10.18399 -10.18347
 Alpha  occ. eigenvalues --  -10.18005 -10.17703  -1.06301  -1.02428  -0.99762
 Alpha  occ. eigenvalues --   -0.85095  -0.77885  -0.74229  -0.70845  -0.67113
 Alpha  occ. eigenvalues --   -0.62747  -0.59658  -0.59275  -0.54466  -0.51431
 Alpha  occ. eigenvalues --   -0.49922  -0.48700  -0.48133  -0.44856  -0.43992
 Alpha  occ. eigenvalues --   -0.42927  -0.41613  -0.40405  -0.39929  -0.39510
 Alpha  occ. eigenvalues --   -0.37719  -0.36598  -0.36123  -0.34844  -0.34474
 Alpha  occ. eigenvalues --   -0.34071  -0.33297  -0.30186  -0.27878  -0.26530
 Alpha  occ. eigenvalues --   -0.25309  -0.23600
 Alpha virt. eigenvalues --    0.06687   0.07772   0.10004   0.10612   0.11600
 Alpha virt. eigenvalues --    0.12515   0.12975   0.14082   0.14944   0.15245
 Alpha virt. eigenvalues --    0.16085   0.16666   0.16907   0.18409   0.18689

 Mulliken charges:
               1
     1  C   -0.257834
     2  O   -0.294514
     3  C    0.488672
     4  C   -0.163512
     5  C   -0.061102
     6  C   -0.419509
     7  C    0.107426
     8  O   -0.431834
     9  C   -0.288463
    10  C   -0.218378
    11  C   -0.090354
    12  O   -0.276262
    13  H    0.120931
    14  H    0.108863
    15  H    0.125577
    16  H    0.077993
    17  H    0.076786
    18  H    0.118831
    19  H    0.130231
    20  H    0.116053
    21  H    0.104481
    22  H    0.281029
    23  H    0.104863
    24  H    0.123991
    25  H    0.106887
    26  H    0.105479
    27  H    0.103196
    28  H    0.100472
 Sum of Mulliken charges =  -0.00000

 Dipole moment (field-independent basis, Debye):
    X=              0.6935    Y=             -0.6149    Z=             -1.1674  Tot=              1.4905
 Quadrupole moment (field-independent basis, Debye-Ang):
   XX=            -72.0471   YY=            -69.6437   ZZ=            -73.9644
   XY=             -1.0230   XZ=              5.6758   YZ=             -4.8032

  Exact polarizability: 113.279  -1.041 108.559   1.032  -0.900  89.304
 Approx polarizability: 148.070  -0.973 147.983  -0.033   0.787 140.945

                      1                      2                      3
                      A                      A                      A
 Frequencies --     29.9842                63.4833               102.1091
 Red. masses --      3.0949                 2.7929                 1.1427
 Frc consts  --      0.0016                 0.0066                 0.0070
 IR Inten    --      0.4714                 0.3486                70.7323

                      4                      5                      6
                      A                      A                      A
 Frequencies --    109.9023               121.6284               164.0841
 Red. masses --      1.7788                 2.3487                 1.1955
 Frc consts  --      0.0127                 0.0205                 0.0190
 IR Inten    --      7.5001                 7.5989                 5.7295

                      7                      8                      9
                      A                      A                      A
 Frequencies --    175.6134               187.2437               208.1975
 Red. masses --      1.6409                 2.2012                 2.6234
 Frc consts  --      0.0298                 0.0455                 0.0670
 IR Inten    --      0.7740                 1.4617                 0.8349

                     10                     11                     12
                      A                      A                      A
 Frequencies --    243.9514               289.3852               294.9736
 Red. masses --      3.1258                 2.7919                 3.1329
 Frc consts  --      0.1096                 0.1378                 0.1606
 IR Inten    --     15.1613                 2.6100                 1.0945

                     13                     14                     15
                      A                      A                      A
 Frequencies --    324.0768               369.8511               410.8592
 Red. masses --      3.8907                 3.0402                 4.1260
 Frc consts  --      0.2408                 0.2450                 0.4104
 IR Inten    --      4.0120                 9.0485                 9.0474

                     16                     17                     18
                      A                      A                      A
 Frequencies --    440.7213               529.7884               600.7084
 Red. masses --      3.4013                 3.6972                 4.0758
 Frc consts  --      0.3892                 0.6114                 0.8666
 IR Inten    --      3.2599                 0.5850                 2.4289

                     19                     20                     21
                      A                      A                      A
 Frequencies --    636.9866               685.0764               783.8397
 Red. masses --      2.1596                 3.0060                 4.2450
 Frc consts  --      0.5163                 0.8312                 1.5367
 IR Inten    --      1.4589                 1.2951                 4.2972

                     22                     23                     24
                      A                      A                      A
 Frequencies --    807.2230               829.4825               848.6334
 Red. masses --      1.8793                 2.6246                 2.8964
 Frc consts  --      0.7215                 1.0640                 1.2290
 IR Inten    --     14.0941                15.1830                33.4909

                     25                     26                     27
                      A                      A                      A
 Frequencies --    869.9669               931.4837               940.8184
 Red. masses --      2.0178                 2.6357                 2.0894
 Frc consts  --      0.8998                 1.3474                 1.0896
 IR Inten    --     17.1145                 8.2015                24.7680

                     28                     29                     30
                      A                      A                      A
 Frequencies --    952.1056              1001.7268              1006.4864
 Red. masses --      1.9815                 1.7439                 1.9894
 Frc consts  --      1.0583                 1.0310                 1.1874
 IR Inten    --     27.9750                10.8390                 5.5543

                     31                     32                     33
                      A                      A                      A
 Frequencies --   1041.8188              1051.2621              1062.5832
 Red. masses --      2.0438                 2.8444                 4.5259
 Frc consts  --      1.3070                 1.8521                 3.0108
 IR Inten    --     30.7269                58.8636               117.2705

                     34                     35                     36
                      A                      A                      A
 Frequencies --   1081.7797              1109.8904              1118.1221
 Red. masses --      1.3014                 3.3263                 2.0614
 Frc consts  --      0.8973                 2.4142                 1.5184
 IR Inten    --     10.6580               111.9191                44.9899

                     37                     38                     39
                      A                      A                      A
 Frequencies --   1123.2035              1136.3530              1159.9287
 Red. masses --      2.1721                 1.8691                 2.4836
 Frc consts  --      1.6145                 1.4221                 1.9688
 IR Inten    --     96.6843                14.6582                25.0036

                     40                     41                     42
                      A                      A                      A
 Frequencies --   1177.8830              1192.1836              1215.3837
 Red. masses --      1.3096                 1.7923                 1.4228
 Frc consts  --      1.0705                 1.5009                 1.2383
 IR Inten    --      2.5279                16.5149                 4.9586

                     43                     44                     45
                      A                      A                      A
 Frequencies --   1226.1957              1245.4032              1263.0927
 Red. masses --      1.4255                 1.4347                 1.1993
 Frc consts  --      1.2628                 1.3111                 1.1273
 IR Inten    --     10.3939                26.9014                 9.3446

                     46                     47                     48
                      A                      A                      A
 Frequencies --   1281.1846              1296.4701              1318.6272
 Red. masses --      1.6337                 1.4414                 1.4217
 Frc consts  --      1.5800                 1.4274                 1.4564
 IR Inten    --     27.1767                 2.6077                17.6983

                     49                     50                     51
                      A                      A                      A
 Frequencies --   1348.7980              1382.1419              1390.1809
 Red. masses --      1.6726                 1.3853                 1.3553
 Frc consts  --      1.7928                 1.5592                 1.5432
 IR Inten    --     10.7168                 8.5791                 4.1381

                     52                     53                     54
                      A                      A                      A
 Frequencies --   1402.6520              1416.3760              1464.2008
 Red. masses --      1.2752                 1.2913                 1.1387
 Frc consts  --      1.4782                 1.5263                 1.4383
 IR Inten    --     31.1094                 2.0853                 0.5614

                     55                     56                     57
                      A                      A                      A
 Frequencies --   1475.1903              1482.8482              1491.7012
 Red. masses --      1.4002                 1.3121                 1.0846
 Frc consts  --      1.7952                 1.6999                 1.4219
 IR Inten    --     32.9941                21.7741                11.4281

                     58                     59                     60
                      A                      A                      A
 Frequencies --   1499.7337              1500.0718              1504.9782
 Red. masses --      1.0822                 1.0840                 1.1101
 Frc consts  --      1.4341                 1.4372                 1.4814
 IR Inten    --      1.4828                 4.4413                16.0351

                     61                     62                     63
                      A                      A                      A
 Frequencies --   1512.0316              1517.9415              3000.6239
 Red. masses --      1.0599                 1.1002                 1.0405
 Frc consts  --      1.4277                 1.4936                 5.5197
 IR Inten    --      6.7383                 2.9658                58.4971

                     64                     65                     66
                      A                      A                      A
 Frequencies --   3015.6295              3038.3540              3060.0928
 Red. masses --      1.0679                 1.0375                 1.0626
 Frc consts  --      5.7217                 5.6430                 5.8624
 IR Inten    --     53.8271                29.9453                23.1763

                     67                     68                     69
                      A                      A                      A
 Frequencies --   3071.2320              3095.4972              3096.8722
 Red. masses --      1.0924                 1.0805                 1.0910
 Frc consts  --      6.0711                 6.1001                 6.1647
 IR Inten    --     36.2124                30.2730                 6.4289

                     70                     71                     72
                      A                      A                      A
 Frequencies --   3100.7294              3101.5671              3110.8264
 Red. masses --      1.0947                 1.0787                 1.1033
 Frc consts  --      6.2011                 6.1137                 6.2906
 IR Inten    --     25.8459                11.3708                15.1221

                     73                     74                     75
                      A                      A                      A
 Frequencies --   3111.5356              3122.2723              3146.7678
 Red. masses --      1.1030                 1.0976                 1.0973
 Frc consts  --      6.2919                 6.3043                 6.4020
 IR Inten    --     26.2681                40.3631                15.4146

                     76                     77                     78
                      A                      A                      A
 Frequencies --   3147.3098              3171.1884              3823.0838
 Red. masses --      1.0935                 1.0873                 1.0659
 Frc consts  --      6.3818                 6.4426                 9.1792
 IR Inten    --     15.7973                19.4094                20.2348

 - Thermochemistry -
 -------------------
 Temperature   298.150 Kelvin.  Pressure   1.00000 Atm.
 Atom     1 has atomic number  6 and mass  12.00000

 Molecular mass:   172.10994 amu.
 Principal axes and moments of inertia in atomic units:
                           1         2         3
     Eigenvalues --  1421.522172374.260163049.77430
           X            0.99979   0.01518   0.01406
           Y           -0.01473   0.99938  -0.03207
           Z           -0.01454   0.03186   0.99939
 This molecule is an asymmetric top.
 Rotational symmetry number  1.
 Warning -- assumption of classical behavior for rotation
           may cause significant error
 Rotational temperatures (Kelvin)      0.06093     0.03648     0.02840
 Rotational constants (GHZ):           1.26958     0.76013     0.59176
 Zero-point vibrational energy     637993.5 (Joules/Mol)
                                  152.48411 (Kcal/Mol)
 Warning -- explicit consideration of  18 degrees of freedom as
           vibrations may cause significant error
 Vibrational temperatures:     43.14    91.34   146.91   158.12   175.00
          (Kelvin)            236.08   252.67   269.40   299.55   350.99
                              416.36   424.40   466.27   532.13   591.13
                              634.10   762.25   864.29   916.48   985.67
                             1127.77  1161.41  1193.44  1220.99  1251.69
                             1340.20  1353.63  1369.87  1441.26  1448.11
                             1498.94  1512.53  1528.82  1556.44  1596.88
                             1608.73  1616.04  1634.96  1668.88  1694.71
                             1715.29  1748.67  1764.22  1791.86  1817.31
                             1843.34  1865.33  1897.21  1940.62  1988.59
                             2000.16  2018.10  2037.85  2106.66  2122.47
                             2133.49  2146.23  2157.78  2158.27  2165.33
                             2175.48  2183.98  4317.23  4338.82  4371.51
                             4402.79  4418.82  4453.73  4455.71  4461.26
                             4462.46  4475.79  4476.81  4492.25  4527.50
                             4528.28  4562.63  5500.56

 Zero-point correction=                           0.242999 (Hartree/Particle)
 Thermal correction to Energy=                    0.256290
 Thermal correction to Enthalpy=                  0.257234
 Thermal correction to Gibbs Free Energy=         0.202927
 Sum of electronic and zero-point Energies=           -578.000048
 Sum of electronic and thermal Energies=              -577.986756
 Sum of electronic and thermal Enthalpies=            -577.985812
 Sum of electronic and thermal Free Energies=         -578.040120

                     E (Thermal)             CV                S
                      KCal/Mol        Cal/Mol-Kelvin    Cal/Mol-Kelvin
 Total                  160.825             48.862            114.301
 Electronic               0.000              0.000              0.000
 Translational            0.889              2.981             41.336
 Rotational               0.889              2.981             30.710
 Vibrational            159.047             42.900             42.254
 Vibration     1          0.594              1.984              5.830
 Vibration     2          0.597              1.972              4.346
 Vibration     3          0.604              1.947              3.414
 Vibration     4          0.606              1.941              3.271
 Vibration     5          0.609              1.931              3.074
 Vibration     6          0.623              1.887              2.502
 Vibration     7          0.628              1.872              2.375
 Vibration     8          0.632              1.857              2.255
 Vibration     9          0.642              1.828              2.059
 Vibration    10          0.659              1.773              1.774
 Vibration    11          0.686              1.693              1.478
 Vibration    12          0.689              1.683              1.445
 Vibration    13          0.709              1.627              1.289
 Vibration    14          0.742              1.534              1.080
 Vibration    15          0.775              1.447              0.924
 Vibration    16          0.801              1.381              0.824
 Vibration    17          0.885              1.184              0.588
 Vibration    18          0.959              1.030              0.448

                           ! Non-Optimized Parameters !
 Normal termination of Gaussian 16 at Tue May 23 12:37:59 2023.
