 Gaussian 16, Revision A.03,
 Gaussian 16:  ES64L-G16RevA.03 25-Dec-2016

 -----------------------------
 # opt freq b3lyp/6-31g(2df,p)
 -----------------------------

 -------------------
 Title Card Required
 -------------------
 Symbolic Z-matrix:
 Charge =  0 Multiplicity = 1

 SCF Done:  E(RB3LYP) =  -765.922124261     A.U. after   34 cycles
 SCF Done:  E(RB3LYP) =  -766.018887391     A.U. after   21 cycles
 SCF Done:  E(RB3LYP) =  -766.114989302     A.U. after   16 cycles
 SCF Done:  E(RB3LYP) =  -766.186348938     A.U. after   15 cycles
 SCF Done:  E(RB3LYP) =  -766.234121931     A.U. after   16 cycles
 SCF Done:  E(RB3LYP) =  -766.264560153     A.U. after   16 cycles
 SCF Done:  E(RB3LYP) =  -766.289142872     A.U. after   16 cycles
 SCF Done:  E(RB3LYP) =  -766.294614966     A.U. after   12 cycles
 SCF Done:  E(RB3LYP) =  -766.306159046     A.U. after   14 cycles
 SCF Done:  E(RB3LYP) =  -766.330600468     A.U. after   14 cycles
 SCF Done:  E(RB3LYP) =  -766.453458151     A.U. after    8 cycles
 SCF Done:  E(RB3LYP) =  -766.453466666     A.U. after    8 cycles
 SCF Done:  E(RB3LYP) =  -766.453474472     A.U. after    8 cycles
 SCF Done:  E(RB3LYP) =  -766.453495013     A.U. after    9 cycles
 SCF Done:  E(RB3LYP) =  -766.453504365     A.U. after    9 cycles
 SCF Done:  E(RB3LYP) =  -766.453510902     A.U. after    8 cycles
 SCF Done:  E(RB3LYP) =  -766.453512326     A.U. after    7 cycles
 SCF Done:  E(RB3LYP) =  -766.453512438     A.U. after    6 cycles
 SCF Done:  E(RB3LYP) =  -766.453512478     A.U. after    6 cycles
 Optimization completed.
    -- Stationary point found.

 The electronic state is 1-A.
 Alpha  occ. eigenvalues --  -19.15961 -19.15349 -19.14884 -19.11139 -10.23525
 Alpha  occ. eigenvalues --  -10.23422 -10.23078 -10.23054 -10.22206 -10.22085
 Alpha  occ. eigenvalues --  -10.21243 -10.20720 -10.19903 -10.19346 -10.18248
 Alpha  occ. eigenvalues --  -10.17808  -1.05353  -1.03869  -1.02583  -0.99736
 Alpha  occ. eigenvalues --   -0.91434  -0.81098  -0.77363  -0.75638  -0.71316
 Alpha  occ. eigenvalues --   -0.68879  -0.65850  -0.61759  -0.59280  -0.56543
 Alpha  occ. eigenvalues --   -0.56037  -0.55498  -0.51469  -0.51002  -0.50590
 Alpha  occ. eigenvalues --   -0.47150  -0.46582  -0.44784  -0.43790  -0.43395
 Alpha  occ. eigenvalues --   -0.42023  -0.40887  -0.39600  -0.38707  -0.37932
 Alpha  occ. eigenvalues --   -0.37599  -0.37168  -0.36553  -0.34582  -0.33990
 Alpha  occ. eigenvalues --   -0.33856  -0.33296  -0.32653  -0.31219  -0.26794
 Alpha  occ. eigenvalues --   -0.25464  -0.24071  -0.21206  -0.17943
 Alpha virt. eigenvalues --   -0.01243   0.00065   0.02006   0.06616   0.08283
 Alpha virt. eigenvalues --    0.10052   0.10642   0.11754   0.12210   0.13259
 Alpha virt. eigenvalues --    0.14087   0.14703   0.15768   0.16340   0.16995

 Mulliken charges:
               1
     1  C   -0.255586
     2  O   -0.300363
     3  C    0.120468
     4  C   -0.053641
     5  O   -0.454072
     6  C    0.279294
     7  C   -0.472839
     8  C    0.330436
     9  C   -0.240793
    10  C   -0.032123
    11  C   -0.242782
    12  C   -0.207715
    13  C    0.059638
    14  O   -0.448705
    15  C    0.196595
    16  O   -0.427234
    17  H    0.122314
    18  H    0.112868
    19  H    0.142867
    20  H    0.285245
    21  H    0.160095
    22  H    0.129181
    23  H    0.095909
    24  H    0.122503
    25  H    0.096981
    26  H    0.105303
    27  H    0.114129
    28  H    0.079483
    29  H    0.297273
    30  H    0.285274
 Sum of Mulliken charges =  -0.00000

 Dipole moment (field-independent basis, Debye):
    X=              1.5887    Y=              2.5113    Z=              0.3400  Tot=              2.9910
 Quadrupole moment (field-independent basis, Debye-Ang):
   XX=            -86.7694   YY=            -83.6421   ZZ=            -94.4869
   XY=              2.2369   XZ=             -3.0274   YZ=             -0.2690

 Normal termination of Gaussian 16 at Sun May 28 15:37:15 2023.

 ----------------------------------------------------------------------
 #N Geom=AllCheck Guess=TCheck SCRF=Check GenChk RB3LYP/6-31G(2df,p) Fr
 eq
 ----------------------------------------------------------------------

 Structure from the checkpoint file:  "COC1dCqOrC23CdC2CdCCCCqOrC13O.chk"
 -------------------
 Title Card Required
 -------------------
 Charge =  0 Multiplicity = 1

                         Standard orientation:
 ---------------------------------------------------------------------
 Center     Atomic      Atomic             Coordinates (Angstroms)
 Number     Number       Type             X           Y           Z
 ---------------------------------------------------------------------
      1          6           0        2.134172   -2.623007   -0.539177
      2          8           0        1.195310   -1.605707   -0.896132
      3          6           0        0.966711   -0.660884    0.116007
      4          6           0        1.922761    0.458189    0.246483
      5          8           0        3.215974    0.138096    0.665558
      6          6           0        1.484328    1.670387   -0.102965
      7          6           0        1.297255    3.075112   -0.362649
      8          6           0        0.271818    2.288828   -0.618879
      9          6           0       -0.993864    1.728088   -1.025116
     10          6           0       -2.035790    1.574437   -0.203803
     11          6           0       -3.044473    0.476812   -0.364839
     12          6           0       -2.780093   -0.678401    0.640686
     13          6           0       -1.461509   -1.468058    0.441767
     14          8           0       -1.463911   -1.961678   -0.881752
     15          6           0       -0.212329   -0.658974    0.775024
     16          8           0       -0.424767    0.171201    1.841125
     17          1           0        2.226174   -3.281734   -1.406171
     18          1           0        1.779078   -3.199993    0.324437
     19          1           0        3.106267   -2.182562   -0.300126
     20          1           0        3.796046    0.871002    0.434420
     21          1           0        1.712114    4.070911   -0.359568
     22          1           0       -0.923364    1.099240   -1.912364
     23          1           0       -2.059779    2.126596    0.732565
     24          1           0       -3.004013    0.070841   -1.379248
     25          1           0       -4.062213    0.845690   -0.188391
     26          1           0       -3.590794   -1.406711    0.529155
     27          1           0       -2.817413   -0.305072    1.667434
     28          1           0       -1.507218   -2.304965    1.163753
     29          1           0       -0.537780   -2.075418   -1.148419
     30          1           0        0.408110    0.641702    1.996903
 ---------------------------------------------------------------------

 SCF Done:  E(RB3LYP) =  -766.453512478     A.U. after    1 cycles
