 Gaussian 16, Revision A.03,
 Gaussian 16:  ES64L-G16RevA.03 25-Dec-2016

 -----------------------------
 # opt freq b3lyp/6-31g(2df,p)
 -----------------------------

 -------------------
 Title Card Required
 -------------------
 Symbolic Z-matrix:
 Charge =  0 Multiplicity = 1

 SCF Done:  E(RB3LYP) =  -651.843952207     A.U. after   32 cycles
 SCF Done:  E(RB3LYP) =  -651.969027869     A.U. after   22 cycles
 SCF Done:  E(RB3LYP) =  -652.029065199     A.U. after   19 cycles
 SCF Done:  E(RB3LYP) =  -652.274252871     A.U. after   19 cycles
 SCF Done:  E(RB3LYP) =  -652.447255642     A.U. after   17 cycles
 SCF Done:  E(RB3LYP) =  -652.543343885     A.U. after   16 cycles
 SCF Done:  E(RB3LYP) =  -652.610364271     A.U. after   15 cycles
 SCF Done:  E(RB3LYP) =  -652.649246490     A.U. after   15 cycles
 SCF Done:  E(RB3LYP) =  -652.681615242     A.U. after   15 cycles
 SCF Done:  E(RB3LYP) =  -652.706741890     A.U. after   14 cycles
 SCF Done:  E(RB3LYP) =  -652.747780057     A.U. after   11 cycles
 SCF Done:  E(RB3LYP) =  -652.747794473     A.U. after   10 cycles
 SCF Done:  E(RB3LYP) =  -652.747797898     A.U. after    9 cycles
 SCF Done:  E(RB3LYP) =  -652.747799775     A.U. after    8 cycles
 SCF Done:  E(RB3LYP) =  -652.747800272     A.U. after    8 cycles
 SCF Done:  E(RB3LYP) =  -652.747800605     A.U. after    8 cycles
 SCF Done:  E(RB3LYP) =  -652.747800778     A.U. after    7 cycles
 SCF Done:  E(RB3LYP) =  -652.747800910     A.U. after    7 cycles
 SCF Done:  E(RB3LYP) =  -652.747801000     A.U. after    7 cycles
 Optimization completed.
    -- Stationary point found.
 Normal termination of Gaussian 16 at Mon May 22 23:58:17 2023.

 ----------------------------------------------------------------------
 #N Geom=AllCheck Guess=TCheck SCRF=Check GenChk RB3LYP/6-31G(2df,p) Fr
 eq
 ----------------------------------------------------------------------

 Structure from the checkpoint file:  "COc1cccqOrc2c3cccqc1-3rCC2.chk"
 -------------------
 Title Card Required
 -------------------
 Charge =  0 Multiplicity = 1

                         Standard orientation:
 ---------------------------------------------------------------------
 Center     Atomic      Atomic             Coordinates (Angstroms)
 Number     Number       Type             X           Y           Z
 ---------------------------------------------------------------------
      1          6           0       -3.641047   -0.936689   -0.213347
      2          8           0       -2.263684   -1.194067    0.044807
      3          6           0       -1.365061   -0.334518   -0.504900
      4          6           0       -1.588303    1.151104   -0.566975
      5          6           0       -0.982779    1.619586    0.608996
      6          6           0        0.378786    2.020226    0.432836
      7          8           0        0.765511    2.804505   -0.590877
      8          6           0        1.133998    0.875817    0.690039
      9          6           0        1.246651    0.005407   -0.520608
     10          6           0        2.366772   -0.549523   -1.388392
     11          6           0        2.153646   -1.818094   -1.015132
     12          6           0        1.007691   -1.458245   -0.066475
     13          6           0       -0.087594   -0.699503   -0.719883
     14          6           0        1.001797   -1.495393    1.462404
     15          6           0        1.133686   -0.000221    1.934301
     16          1           0       -3.911125   -1.261074   -1.226425
     17          1           0       -3.871885    0.127012   -0.105002
     18          1           0       -4.206775   -1.520581    0.515020
     19          1           0       -1.269622    1.605664   -1.501950
     20          1           0       -1.193217    1.081449    1.526545
     21          1           0       -0.003953    3.271980   -0.944161
     22          1           0        2.990571   -0.071237   -2.134122
     23          1           0        2.521494   -2.776116   -1.364217
     24          1           0        1.838063   -2.091764    1.837374
     25          1           0        0.083683   -1.947230    1.848339
     26          1           0        2.091685    0.136170    2.453746
     27          1           0        0.367012    0.282485    2.666241
 ---------------------------------------------------------------------

 SCF Done:  E(RB3LYP) =  -652.747801000     A.U. after    1 cycles

 The electronic state is 1-A.
 Alpha  occ. eigenvalues --  -19.19028 -19.16189 -10.26995 -10.24258 -10.22617
 Alpha  occ. eigenvalues --  -10.21579 -10.20035 -10.19884 -10.19880 -10.19360
 Alpha  occ. eigenvalues --  -10.18790 -10.18626 -10.18485 -10.18263 -10.17519
 Alpha  occ. eigenvalues --   -1.08190  -1.05342  -0.91986  -0.83864  -0.78665
 Alpha  occ. eigenvalues --   -0.76264  -0.72337  -0.70265  -0.66593  -0.63169
 Alpha  occ. eigenvalues --   -0.60873  -0.57986  -0.57103  -0.53502  -0.51483
 Alpha  occ. eigenvalues --   -0.49697  -0.48695  -0.47933  -0.46355  -0.45361
 Alpha  occ. eigenvalues --   -0.44277  -0.41944  -0.41798  -0.40657  -0.40362
 Alpha  occ. eigenvalues --   -0.38009  -0.36850  -0.36310  -0.35413  -0.34910
 Alpha  occ. eigenvalues --   -0.33288  -0.30727  -0.29597  -0.28524  -0.26449
 Alpha  occ. eigenvalues --   -0.22478  -0.19479  -0.18084
 Alpha virt. eigenvalues --   -0.04597  -0.03658   0.00684   0.03162   0.06614
 Alpha virt. eigenvalues --    0.09111   0.09760   0.11491   0.12622   0.13478
 Alpha virt. eigenvalues --    0.14503   0.15842   0.16301   0.16828   0.17286

 Mulliken charges:
               1
     1  C   -0.252244
     2  O   -0.253935
     3  C    0.226058
     4  C   -0.325969
     5  C   -0.171634
     6  C    0.207022
     7  O   -0.355871
     8  C    0.029099
     9  C    0.155614
    10  C   -0.185587
    11  C   -0.174696
    12  C    0.087363
    13  C    0.038485
    14  C   -0.296971
    15  C   -0.283348
    16  H    0.119049
    17  H    0.131737
    18  H    0.127350
    19  H    0.089037
    20  H    0.126921
    21  H    0.303057
    22  H    0.104328
    23  H    0.102941
    24  H    0.107341
    25  H    0.121718
    26  H    0.119459
    27  H    0.103676
 Sum of Mulliken charges =  -0.00000

 Dipole moment (field-independent basis, Debye):
    X=             -0.9187    Y=              0.8304    Z=              0.6636  Tot=              1.4050
 Quadrupole moment (field-independent basis, Debye-Ang):
   XX=            -82.9861   YY=            -83.0324   ZZ=            -83.4904
   XY=             -2.7403   XZ=              0.0521   YZ=             -2.3907

  Exact polarizability: 171.663  -9.651 139.933   3.040  -3.973 115.996
 Approx polarizability: 333.101 -17.270 251.637  28.402  -8.585 201.442

                      1                      2                      3
                      A                      A                      A
 Frequencies --     72.1350                86.6118                91.0454
 Red. masses --      3.2160                 1.5867                 2.0641
 Frc consts  --      0.0099                 0.0070                 0.0101
 IR Inten    --      2.8444                 0.5336                 0.3737

                      4                      5                      6
                      A                      A                      A
 Frequencies --    120.4772               169.4085               191.6812
 Red. masses --      2.0547                 5.2846                 3.9432
 Frc consts  --      0.0176                 0.0894                 0.0854
 IR Inten    --      1.9467                 1.3160                 0.7228

                      7                      8                      9
                      A                      A                      A
 Frequencies --    225.9417               258.9442               267.6194
 Red. masses --      3.8055                 3.1410                 3.9585
 Frc consts  --      0.1145                 0.1241                 0.1670
 IR Inten    --      1.8525                 5.7637                 3.4667

                     10                     11                     12
                      A                      A                      A
 Frequencies --    352.3641               355.8227               379.6702
 Red. masses --      3.1880                 3.7779                 3.4087
 Frc consts  --      0.2332                 0.2818                 0.2895
 IR Inten    --      2.2915                24.9509                17.8650

                     13                     14                     15
                      A                      A                      A
 Frequencies --    416.7205               424.6101               455.3526
 Red. masses --      4.3951                 4.6005                 4.0163
 Frc consts  --      0.4497                 0.4887                 0.4907
 IR Inten    --     41.2622                15.1933                10.3542

                     16                     17                     18
                      A                      A                      A
 Frequencies --    485.6881               498.0598               565.2904
 Red. masses --      1.3985                 3.7094                 4.3925
 Frc consts  --      0.1944                 0.5422                 0.8270
 IR Inten    --    100.3112                16.5607                15.3531

                     19                     20                     21
                      A                      A                      A
 Frequencies --    619.6285               651.6209               679.0613
 Red. masses --      6.0702                 6.2273                 3.8641
 Frc consts  --      1.3731                 1.5579                 1.0498
 IR Inten    --     24.8445                11.5158                32.5545

                     22                     23                     24
                      A                      A                      A
 Frequencies --    683.5558               696.6693               745.4420
 Red. masses --      4.4463                 3.0010                 4.1599
 Frc consts  --      1.2240                 0.8582                 1.3619
 IR Inten    --     14.8550                 9.3694                 3.0555

                     25                     26                     27
                      A                      A                      A
 Frequencies --    762.4150               783.1185               802.2907
 Red. masses --      2.7836                 1.6480                 1.8584
 Frc consts  --      0.9533                 0.5955                 0.7048
 IR Inten    --     10.0244                 2.1743                52.7108

                     28                     29                     30
                      A                      A                      A
 Frequencies --    817.7604               853.5656               880.6229
 Red. masses --      2.0565                 3.8549                 4.1505
 Frc consts  --      0.8103                 1.6548                 1.8964
 IR Inten    --     28.3388                 6.4905                35.7530

                     31                     32                     33
                      A                      A                      A
 Frequencies --    901.8371               927.5705               942.1241
 Red. masses --      2.0267                 3.4802                 3.4921
 Frc consts  --      0.9712                 1.7642                 1.8262
 IR Inten    --     10.3119                11.7282                55.0285

                     34                     35                     36
                      A                      A                      A
 Frequencies --    962.4187              1009.4458              1029.0009
 Red. masses --      2.5395                 3.2348                 1.3558
 Frc consts  --      1.3859                 1.9421                 0.8458
 IR Inten    --     17.9743                49.9621                14.8663

                     37                     38                     39
                      A                      A                      A
 Frequencies --   1049.2767              1070.1947              1094.9488
 Red. masses --      2.5368                 3.6342                 1.4587
 Frc consts  --      1.6456                 2.4524                 1.0304
 IR Inten    --     34.5770                67.2607                 2.8495

                     40                     41                     42
                      A                      A                      A
 Frequencies --   1112.2650              1164.2631              1175.9156
 Red. masses --      1.8458                 2.6585                 1.3698
 Frc consts  --      1.3454                 2.1232                 1.1160
 IR Inten    --     15.9226                51.0686                 9.6500

                     43                     44                     45
                      A                      A                      A
 Frequencies --   1182.4868              1198.4587              1235.8560
 Red. masses --      1.7018                 2.0143                 2.0694
 Frc consts  --      1.4020                 1.7046                 1.8622
 IR Inten    --      3.5051                64.2880                82.7219

                     46                     47                     48
                      A                      A                      A
 Frequencies --   1238.3236              1250.1846              1258.5089
 Red. masses --      2.0930                 2.4216                 1.7836
 Frc consts  --      1.8910                 2.2300                 1.6644
 IR Inten    --    134.5620                21.4260                13.7015

                     49                     50                     51
                      A                      A                      A
 Frequencies --   1270.7291              1281.7750              1284.3779
 Red. masses --      1.5671                 1.9172                 1.5159
 Frc consts  --      1.4909                 1.8558                 1.4733
 IR Inten    --     79.9106                 5.1374                18.3934

                     52                     53                     54
                      A                      A                      A
 Frequencies --   1295.9446              1326.8908              1359.1817
 Red. masses --      2.0850                 1.5684                 2.6056
 Frc consts  --      2.0632                 1.6270                 2.8360
 IR Inten    --     76.8249                 4.9464               147.5401

                     55                     56                     57
                      A                      A                      A
 Frequencies --   1419.9943              1464.6438              1483.6655
 Red. masses --      1.8663                 1.1667                 1.0789
 Frc consts  --      2.2171                 1.4746                 1.3992
 IR Inten    --     63.4872                 7.5047                 2.1655

                     58                     59                     60
                      A                      A                      A
 Frequencies --   1489.6610              1500.6429              1507.0007
 Red. masses --      1.0838                 1.0972                 1.1085
 Frc consts  --      1.4171                 1.4557                 1.4833
 IR Inten    --      6.5538                 2.4911                29.2539

                     61                     62                     63
                      A                      A                      A
 Frequencies --   1510.4136              1600.8119              1670.2480
 Red. masses --      3.6820                 5.8839                10.4159
 Frc consts  --      4.9490                 8.8838                17.1201
 IR Inten    --     41.2907                 5.5888               198.1147

                     64                     65                     66
                      A                      A                      A
 Frequencies --   3009.5998              3016.1489              3036.9170
 Red. masses --      1.0638                 1.0369                 1.0978
 Frc consts  --      5.6770                 5.5576                 5.9656
 IR Inten    --     41.2137                80.1498                13.6788

                     67                     68                     69
                      A                      A                      A
 Frequencies --   3056.5653              3091.1311              3097.7674
 Red. masses --      1.0596                 1.0978                 1.1056
 Frc consts  --      5.8323                 6.1803                 6.2512
 IR Inten    --     43.5474                26.0443                16.5263

                     70                     71                     72
                      A                      A                      A
 Frequencies --   3135.3817              3136.2312              3177.3267
 Red. masses --      1.1032                 1.0853                 1.0834
 Frc consts  --      6.3900                 6.2897                 6.4442
 IR Inten    --     19.9948                16.0128                11.2658

                     73                     74                     75
                      A                      A                      A
 Frequencies --   3180.1601              3211.0259              3757.8599
 Red. masses --      1.0869                 1.1148                 1.0647
 Frc consts  --      6.4766                 6.7721                 8.8586
 IR Inten    --      8.7419                51.5909                45.2230

 - Thermochemistry -
 -------------------
 Temperature   298.150 Kelvin.  Pressure   1.00000 Atm.
 Atom     1 has atomic number  6 and mass  12.00000

 Molecular mass:   200.08373 amu.
 Principal axes and moments of inertia in atomic units:
                           1         2         3
     Eigenvalues --  2060.213812723.132033535.50374
           X            0.99983  -0.01694   0.00706
           Y            0.01711   0.99955  -0.02444
           Z           -0.00665   0.02456   0.99968
 This molecule is an asymmetric top.
 Rotational symmetry number  1.
 Warning -- assumption of classical behavior for rotation
           may cause significant error
 Rotational temperatures (Kelvin)      0.04204     0.03181     0.02450
 Rotational constants (GHZ):           0.87600     0.66274     0.51046
 Zero-point vibrational energy     559663.1 (Joules/Mol)
                                  133.76270 (Kcal/Mol)
 Warning -- explicit consideration of  19 degrees of freedom as
           vibrations may cause significant error
 Vibrational temperatures:    103.79   124.62   130.99   173.34   243.74
          (Kelvin)            275.79   325.08   372.56   385.04   506.97
                              511.95   546.26   599.57   610.92   655.15
                              698.80   716.60   813.33   891.51   937.54
                              977.02   983.48  1002.35  1072.52  1096.95
                             1126.73  1154.32  1176.57  1228.09  1267.02
                             1297.54  1334.57  1355.51  1384.71  1452.37
                             1480.50  1509.68  1539.77  1575.39  1600.30
                             1675.11  1691.88  1701.33  1724.31  1778.12
                             1781.67  1798.74  1810.71  1828.30  1844.19
                             1847.93  1864.58  1909.10  1955.56  2043.06
                             2107.30  2134.66  2143.29  2159.09  2168.24
                             2173.15  2303.21  2403.11  4330.14  4339.57
                             4369.45  4397.72  4447.45  4457.00  4511.11
                             4512.34  4571.46  4575.54  4619.95  5406.72

 Zero-point correction=                           0.213164 (Hartree/Particle)
 Thermal correction to Energy=                    0.225945
 Thermal correction to Enthalpy=                  0.226889
 Thermal correction to Gibbs Free Energy=         0.174613
 Sum of electronic and zero-point Energies=           -652.534637
 Sum of electronic and thermal Energies=              -652.521856
 Sum of electronic and thermal Enthalpies=            -652.520912
 Sum of electronic and thermal Free Energies=         -652.573188

                     E (Thermal)             CV                S
                      KCal/Mol        Cal/Mol-Kelvin    Cal/Mol-Kelvin
 Total                  141.783             51.106            110.025
 Electronic               0.000              0.000              0.000
 Translational            0.889              2.981             41.785
 Rotational               0.889              2.981             31.362
 Vibrational            140.005             45.144             36.878
 Vibration     1          0.598              1.967              4.094
 Vibration     2          0.601              1.959              3.735
 Vibration     3          0.602              1.956              3.637
 Vibration     4          0.609              1.932              3.093
 Vibration     5          0.625              1.880              2.442
 Vibration     6          0.634              1.851              2.212
 Vibration     7          0.650              1.802              1.911
 Vibration     8          0.668              1.748              1.669
 Vibration     9          0.673              1.733              1.612
 Vibration    10          0.729              1.570              1.156
 Vibration    11          0.731              1.563              1.140
 Vibration    12          0.750              1.514              1.040
 Vibration    13          0.780              1.434              0.903
 Vibration    14          0.787              1.417              0.876
 Vibration    15          0.814              1.349              0.780
 Vibration    16          0.842              1.282              0.695
 Vibration    17          0.854              1.254              0.663
 Vibration    18          0.921              1.106              0.513
 Vibration    19          0.980              0.990              0.417

 Optimization completed.
    -- Stationary point found.
 Normal termination of Gaussian 16 at Tue May 23 02:37:11 2023.
