 Gaussian 16, Revision A.03,
 Gaussian 16:  ES64L-G16RevA.03 25-Dec-2016

 -----------------------------
 # opt freq b3lyp/6-31g(2df,p)
 -----------------------------

 -------------------
 Title Card Required
 -------------------
 Symbolic Z-matrix:
 Charge =  0 Multiplicity = 1

 SCF Done:  E(RB3LYP) =  -602.310213616     A.U. after   12 cycles
 SCF Done:  E(RB3LYP) =  -602.319172176     A.U. after   11 cycles
 SCF Done:  E(RB3LYP) =  -602.322995196     A.U. after   11 cycles
 SCF Done:  E(RB3LYP) =  -602.325865689     A.U. after   11 cycles
 SCF Done:  E(RB3LYP) =  -602.328255167     A.U. after   11 cycles
 SCF Done:  E(RB3LYP) =  -602.329206417     A.U. after   11 cycles
 SCF Done:  E(RB3LYP) =  -602.329454978     A.U. after   10 cycles
 SCF Done:  E(RB3LYP) =  -602.329519479     A.U. after    9 cycles
 SCF Done:  E(RB3LYP) =  -602.329529761     A.U. after    8 cycles
 SCF Done:  E(RB3LYP) =  -602.329532478     A.U. after    7 cycles
 SCF Done:  E(RB3LYP) =  -602.329533177     A.U. after    7 cycles
 SCF Done:  E(RB3LYP) =  -602.329533489     A.U. after    7 cycles
 SCF Done:  E(RB3LYP) =  -602.329533600     A.U. after    6 cycles
 SCF Done:  E(RB3LYP) =  -602.329533622     A.U. after    5 cycles
 Optimization completed.
    -- Stationary point found.
 Normal termination of Gaussian 16 at Tue May 23 07:55:01 2023.

 ----------------------------------------------------------------------
 #N Geom=AllCheck Guess=TCheck SCRF=Check GenChk RB3LYP/6-31G(2df,p) Fr
 eq
 ----------------------------------------------------------------------

 Structure from the checkpoint file:  "COC1CCCCCqCCqCrNrCC1.chk"
 -------------------
 Title Card Required
 -------------------
 Charge =  0 Multiplicity = 1

                         Standard orientation:
 ---------------------------------------------------------------------
 Center     Atomic      Atomic             Coordinates (Angstroms)
 Number     Number       Type             X           Y           Z
 ---------------------------------------------------------------------
      1          6           0       -3.064109   -2.100724    0.842961
      2          8           0       -3.076749   -1.553768   -0.455237
      3          6           0       -2.182040   -0.466660   -0.720969
      4          6           0       -2.613801    0.797460    0.036321
      5          6           0       -2.066108    2.124085   -0.511706
      6          6           0       -0.536774    2.311161   -0.523424
      7          6           0        0.181331    1.972906    0.805366
      8          6           0        0.920612    0.614945    0.891439
      9          6           0        2.147125    0.595228   -0.049022
     10          6           0        3.150321   -0.561930    0.169870
     11          6           0        2.936907   -1.735955   -0.800132
     12          7           0        4.518635   -0.012265    0.106658
     13          6           0        0.010578   -0.632732    0.785489
     14          6           0       -0.697400   -0.888430   -0.568131
     15          1           0       -3.831490   -2.879720    0.858804
     16          1           0       -3.308307   -1.363370    1.621366
     17          1           0       -2.100551   -2.565504    1.098362
     18          1           0       -2.356738   -0.286470   -1.789014
     19          1           0       -2.364328    0.712738    1.099071
     20          1           0       -3.708015    0.831681   -0.015182
     21          1           0       -2.505375    2.929489    0.090997
     22          1           0       -2.443997    2.273618   -1.531858
     23          1           0       -0.344755    3.360329   -0.775098
     24          1           0       -0.096655    1.739359   -1.345913
     25          1           0       -0.538272    2.035797    1.631769
     26          1           0        0.926835    2.749978    1.010624
     27          1           0        1.334077    0.580572    1.910139
     28          1           0        2.697625    1.526941    0.120995
     29          1           0        1.836414    0.611847   -1.101533
     30          1           0        3.025810   -0.934742    1.195859
     31          1           0        3.087376   -1.405650   -1.835394
     32          1           0        1.931482   -2.162190   -0.731086
     33          1           0        3.653034   -2.540886   -0.599169
     34          1           0        4.680958    0.361904   -0.826788
     35          1           0        5.190634   -0.769276    0.212340
     36          1           0       -0.725914   -0.582244    1.594390
     37          1           0        0.625084   -1.508000    1.023448
     38          1           0       -0.675263   -1.959414   -0.798056
     39          1           0       -0.125961   -0.416913   -1.372148
 ---------------------------------------------------------------------

 SCF Done:  E(RB3LYP) =  -602.329533622     A.U. after    1 cycles

 The electronic state is 1-A.
 Alpha  occ. eigenvalues --  -19.12643 -14.30270 -10.22357 -10.21569 -10.20685
 Alpha  occ. eigenvalues --  -10.18283 -10.17792 -10.17627 -10.17502 -10.17455
 Alpha  occ. eigenvalues --  -10.17390 -10.17211 -10.17105 -10.17052  -1.01641
 Alpha  occ. eigenvalues --   -0.87905  -0.82005  -0.78109  -0.76289  -0.73228
 Alpha  occ. eigenvalues --   -0.69991  -0.69130  -0.65910  -0.64484  -0.58592
 Alpha  occ. eigenvalues --   -0.57355  -0.56338  -0.52681  -0.48688  -0.48096
 Alpha  occ. eigenvalues --   -0.46955  -0.46066  -0.45127  -0.44371  -0.43676
 Alpha  occ. eigenvalues --   -0.42609  -0.41401  -0.40578  -0.39950  -0.39454
 Alpha  occ. eigenvalues --   -0.39088  -0.37931  -0.37156  -0.36286  -0.34711
 Alpha  occ. eigenvalues --   -0.34574  -0.33479  -0.33163  -0.32280  -0.31826
 Alpha  occ. eigenvalues --   -0.30735  -0.29823  -0.29113  -0.28231  -0.24154
 Alpha  occ. eigenvalues --   -0.23274
 Alpha virt. eigenvalues --    0.06955   0.07797   0.08622   0.10037   0.10782
 Alpha virt. eigenvalues --    0.11224   0.12317   0.13127   0.13294   0.14410
 Alpha virt. eigenvalues --    0.14903   0.15212   0.16078   0.16254   0.16934

 Mulliken charges:
               1
     1  C   -0.238647
     2  O   -0.252812
     3  C    0.128082
     4  C   -0.210088
     5  C   -0.207678
     6  C   -0.181921
     7  C   -0.218178
     8  C    0.004017
     9  C   -0.180245
    10  C    0.043505
    11  C   -0.394553
    12  N   -0.514232
    13  C   -0.214314
    14  C   -0.221550
    15  H    0.122054
    16  H    0.101206
    17  H    0.105294
    18  H    0.078208
    19  H    0.096595
    20  H    0.101061
    21  H    0.094763
    22  H    0.092333
    23  H    0.091408
    24  H    0.095861
    25  H    0.088140
    26  H    0.093422
    27  H    0.073159
    28  H    0.102411
    29  H    0.086966
    30  H    0.077259
    31  H    0.105816
    32  H    0.122109
    33  H    0.102664
    34  H    0.216797
    35  H    0.217787
    36  H    0.092832
    37  H    0.096142
    38  H    0.104305
    39  H    0.100021
 Sum of Mulliken charges =  -0.00000

 Dipole moment (field-independent basis, Debye):
    X=              0.7816    Y=             -0.1464    Z=              0.0024  Tot=              0.7952
 Quadrupole moment (field-independent basis, Debye-Ang):
   XX=            -94.0117   YY=            -89.9287   ZZ=            -89.2641
   XY=             -6.4269   XZ=             -7.4125   YZ=             -3.4120

  Exact polarizability: 159.048  -0.617 140.205  -0.885  -2.787 117.729
 Approx polarizability: 198.667   1.558 194.455  -0.776  -4.239 192.287

                      1                      2                      3
                      A                      A                      A
 Frequencies --     43.0074                59.4053                73.5564
 Red. masses --      3.1441                 3.4782                 2.7080
 Frc consts  --      0.0034                 0.0072                 0.0086
 IR Inten    --      0.7543                 0.5149                 0.8450

                      4                      5                      6
                      A                      A                      A
 Frequencies --     83.5512               128.6366               149.0978
 Red. masses --      2.8839                 2.6539                 2.8450
 Frc consts  --      0.0119                 0.0259                 0.0373
 IR Inten    --      0.2994                 2.1108                 0.4726

                      7                      8                      9
                      A                      A                      A
 Frequencies --    197.4274               207.2916               219.4541
 Red. masses --      2.1590                 2.5284                 1.7295
 Frc consts  --      0.0496                 0.0640                 0.0491
 IR Inten    --      0.4918                 1.9659                 1.6451

                     10                     11                     12
                      A                      A                      A
 Frequencies --    227.6353               253.1458               257.4654
 Red. masses --      1.4596                 1.9895                 1.1572
 Frc consts  --      0.0446                 0.0751                 0.0452
 IR Inten    --      4.5405                 1.0191                10.6756

                     13                     14                     15
                      A                      A                      A
 Frequencies --    271.5415               286.1259               315.6584
 Red. masses --      2.0177                 1.7316                 2.5412
 Frc consts  --      0.0877                 0.0835                 0.1492
 IR Inten    --      4.1509                11.8234                 0.6678

                     16                     17                     18
                      A                      A                      A
 Frequencies --    343.7946               379.7014               405.2471
 Red. masses --      2.4026                 2.0539                 2.8599
 Frc consts  --      0.1673                 0.1745                 0.2767
 IR Inten    --      1.4594                 4.0377                 6.8107

                     19                     20                     21
                      A                      A                      A
 Frequencies --    420.7874               425.4300               448.3733
 Red. masses --      1.8813                 2.3381                 2.1793
 Frc consts  --      0.1963                 0.2493                 0.2581
 IR Inten    --      5.8092                 2.8909                 4.9626

                     22                     23                     24
                      A                      A                      A
 Frequencies --    485.2329               519.0693               598.7121
 Red. masses --      2.2120                 2.2343                 2.1842
 Frc consts  --      0.3069                 0.3547                 0.4613
 IR Inten    --      2.0385                 0.9887                 1.2692

                     25                     26                     27
                      A                      A                      A
 Frequencies --    612.7900               736.6898               773.4657
 Red. masses --      2.3791                 3.0026                 1.5539
 Frc consts  --      0.5264                 0.9601                 0.5477
 IR Inten    --      2.1670                 0.8111                 1.6663

                     28                     29                     30
                      A                      A                      A
 Frequencies --    787.3521               810.1056               846.5489
 Red. masses --      2.8485                 2.1694                 2.7463
 Frc consts  --      1.0404                 0.8388                 1.1596
 IR Inten    --      1.1801                 0.9935                12.4499

                     31                     32                     33
                      A                      A                      A
 Frequencies --    855.4223               885.1629               896.0914
 Red. masses --      2.2614                 2.0389                 1.8858
 Frc consts  --      0.9750                 0.9412                 0.8922
 IR Inten    --      4.4711                24.1700                61.9553

                     34                     35                     36
                      A                      A                      A
 Frequencies --    912.9357               924.8371               960.9079
 Red. masses --      2.0249                 1.3761                 1.6831
 Frc consts  --      0.9943                 0.6935                 0.9156
 IR Inten    --      0.2130                66.2733                 2.3252

                     37                     38                     39
                      A                      A                      A
 Frequencies --    964.9676               969.2247               979.3726
 Red. masses --      2.1668                 2.1461                 2.0184
 Frc consts  --      1.1888                 1.1878                 1.1407
 IR Inten    --      8.2508                 1.4090                 2.9348

                     40                     41                     42
                      A                      A                      A
 Frequencies --   1027.1024              1037.0646              1058.7241
 Red. masses --      1.7323                 2.0747                 2.2698
 Frc consts  --      1.0767                 1.3147                 1.4990
 IR Inten    --      1.0258                 7.1272                 6.1739

                     43                     44                     45
                      A                      A                      A
 Frequencies --   1076.8181              1099.0468              1111.4789
 Red. masses --      2.0166                 2.0146                 2.0455
 Frc consts  --      1.3777                 1.4337                 1.4888
 IR Inten    --     12.4633                18.9331                15.4483

                     46                     47                     48
                      A                      A                      A
 Frequencies --   1117.5773              1124.1560              1148.6769
 Red. masses --      2.7172                 2.5419                 2.2252
 Frc consts  --      1.9995                 1.8926                 1.7299
 IR Inten    --     23.5874                54.1788                38.6308

                     49                     50                     51
                      A                      A                      A
 Frequencies --   1175.0397              1178.6762              1184.2278
 Red. masses --      1.7223                 1.3181                 1.3593
 Frc consts  --      1.4011                 1.0789                 1.1232
 IR Inten    --      8.1954                 5.3724                 6.6891

                     52                     53                     54
                      A                      A                      A
 Frequencies --   1199.8014              1213.5175              1226.9426
 Red. masses --      1.2335                 1.5130                 1.4975
 Frc consts  --      1.0462                 1.3128                 1.3282
 IR Inten    --      0.1711                 7.2845                16.1802

                     55                     56                     57
                      A                      A                      A
 Frequencies --   1245.4862              1255.8290              1270.2540
 Red. masses --      1.2948                 1.1704                 1.2013
 Frc consts  --      1.1834                 1.0876                 1.1421
 IR Inten    --      2.0252                 6.5617                 7.4651

                     58                     59                     60
                      A                      A                      A
 Frequencies --   1285.9609              1302.5457              1321.3376
 Red. masses --      1.2055                 1.3259                 1.2517
 Frc consts  --      1.1745                 1.3254                 1.2876
 IR Inten    --      2.7165                 1.0210                 3.7768

                     61                     62                     63
                      A                      A                      A
 Frequencies --   1342.3829              1353.5860              1361.2657
 Red. masses --      1.3238                 1.3684                 1.3310
 Frc consts  --      1.4055                 1.4772                 1.4532
 IR Inten    --      1.3412                 3.2070                 9.6008

                     64                     65                     66
                      A                      A                      A
 Frequencies --   1366.8462              1380.8193              1382.7580
 Red. masses --      1.3836                 1.3557                 1.3136
 Frc consts  --      1.5230                 1.5230                 1.4799
 IR Inten    --      1.2071                 4.2423                 6.2814

                     67                     68                     69
                      A                      A                      A
 Frequencies --   1387.0195              1390.3282              1403.6724
 Red. masses --      1.3606                 1.3183                 1.3089
 Frc consts  --      1.5422                 1.5014                 1.5195
 IR Inten    --      2.0889                 9.7534                 7.0879

                     70                     71                     72
                      A                      A                      A
 Frequencies --   1404.6197              1407.4794              1412.6751
 Red. masses --      1.3168                 1.3332                 1.3357
 Frc consts  --      1.5307                 1.5561                 1.5705
 IR Inten    --      3.4648                 2.6249                 5.6528

                     73                     74                     75
                      A                      A                      A
 Frequencies --   1415.6123              1476.0730              1478.8484
 Red. masses --      1.3100                 1.0916                 1.0820
 Frc consts  --      1.5468                 1.4013                 1.3941
 IR Inten    --      3.2249                 3.0633                 0.5454

                     76                     77                     78
                      A                      A                      A
 Frequencies --   1483.2159              1484.9615              1488.4832
 Red. masses --      1.1216                 1.0799                 1.0835
 Frc consts  --      1.4538                 1.4031                 1.4144
 IR Inten    --      0.8871                 1.0669                 4.8093

                     79                     80                     81
                      A                      A                      A
 Frequencies --   1491.0467              1495.1856              1497.6758
 Red. masses --      1.0907                 1.0557                 1.0637
 Frc consts  --      1.4286                 1.3905                 1.4057
 IR Inten    --      4.4186                 4.4036                 3.4485

                     82                     83                     84
                      A                      A                      A
 Frequencies --   1498.7609              1508.9063              1510.5989
 Red. masses --      1.0602                 1.0774                 1.0631
 Frc consts  --      1.4032                 1.4453                 1.4293
 IR Inten    --      1.3803                 0.5838                 3.0274

                     85                     86                     87
                      A                      A                      A
 Frequencies --   1514.4541              1658.0437              2983.6494
 Red. masses --      1.0749                 1.0891                 1.0360
 Frc consts  --      1.4526                 1.7641                 5.4341
 IR Inten    --     27.5960                21.1538                44.7353

                     88                     89                     90
                      A                      A                      A
 Frequencies --   2986.2136              3005.8867              3010.1456
 Red. masses --      1.0810                 1.0813                 1.0608
 Frc consts  --      5.6797                 5.7563                 5.6631
 IR Inten    --     11.2882                11.6613                27.4042

                     91                     92                     93
                      A                      A                      A
 Frequencies --   3019.3933              3020.2500              3021.7958
 Red. masses --      1.0445                 1.0620                 1.0801
 Frc consts  --      5.6107                 5.7077                 5.8109
 IR Inten    --     16.0652                34.6598                20.4112

                     94                     95                     96
                      A                      A                      A
 Frequencies --   3025.0357              3029.2241              3034.8517
 Red. masses --      1.0588                 1.0918                 1.0785
 Frc consts  --      5.7087                 5.9026                 5.8527
 IR Inten    --     19.5483                32.6517                11.4952

                     97                     98                     99
                      A                      A                      A
 Frequencies --   3035.8076              3039.2290              3045.1531
 Red. masses --      1.0688                 1.0834                 1.0811
 Frc consts  --      5.8035                 5.8959                 5.9063
 IR Inten    --     48.0105                22.2339                33.5281

                    100                    101                    102
                      A                      A                      A
 Frequencies --   3050.7870              3056.1817              3066.4711
 Red. masses --      1.0674                 1.0936                 1.0986
 Frc consts  --      5.8533                 6.0182                 6.0867
 IR Inten    --     14.9075                37.0966                56.5810

                    103                    104                    105
                      A                      A                      A
 Frequencies --   3067.2168              3075.8759              3079.8809
 Red. masses --      1.0992                 1.0978                 1.0998
 Frc consts  --      6.0927                 6.1195                 6.1464
 IR Inten    --     33.3854                59.2453                32.6977

                    106                    107                    108
                      A                      A                      A
 Frequencies --   3085.1171              3091.5274              3100.6761
 Red. masses --      1.1011                 1.0931                 1.0968
 Frc consts  --      6.1745                 6.1553                 6.2130
 IR Inten    --     30.6449                71.0726                38.4024

                    109                    110                    111
                      A                      A                      A
 Frequencies --   3105.5998              3458.3771              3535.3801
 Red. masses --      1.0984                 1.0492                 1.0911
 Frc consts  --      6.2418                 7.3937                 8.0351
 IR Inten    --     33.6748                 2.3963                 0.8062

 - Thermochemistry -
 -------------------
 Temperature   298.150 Kelvin.  Pressure   1.00000 Atm.
 Atom     1 has atomic number  6 and mass  12.00000

 Molecular mass:   199.19361 amu.
 Principal axes and moments of inertia in atomic units:
                           1         2         3
     Eigenvalues --  1816.651574652.491525781.63005
           X            0.99982  -0.01512  -0.01120
           Y            0.01499   0.99982  -0.01177
           Z            0.01137   0.01160   0.99987
 This molecule is an asymmetric top.
 Rotational symmetry number  1.
 Warning -- assumption of classical behavior for rotation
           may cause significant error
 Rotational temperatures (Kelvin)      0.04768     0.01862     0.01498
 Rotational constants (GHZ):           0.99344     0.38791     0.31215
 Zero-point vibrational energy     951034.4 (Joules/Mol)
                                  227.30267 (Kcal/Mol)
 Warning -- explicit consideration of  25 degrees of freedom as
           vibrations may cause significant error
 Vibrational temperatures:     61.88    85.47   105.83   120.21   185.08
          (Kelvin)            214.52   284.05   298.25   315.75   327.52
                              364.22   370.44   390.69   411.67   454.16
                              494.64   546.31   583.06   605.42   612.10
                              645.11   698.14   746.82   861.41   881.67
                             1059.93  1112.84  1132.82  1165.56  1218.00
                             1230.76  1273.55  1289.28  1313.51  1330.63
                             1382.53  1388.37  1394.50  1409.10  1477.77
                             1492.10  1523.27  1549.30  1581.28  1599.17
                             1607.94  1617.41  1652.69  1690.62  1695.85
                             1703.84  1726.25  1745.98  1765.30  1791.98
                             1806.86  1827.61  1850.21  1874.07  1901.11
                             1931.39  1947.51  1958.56  1966.59  1986.69
                             1989.48  1995.61  2000.37  2019.57  2020.93
                             2025.05  2032.52  2036.75  2123.74  2127.73
                             2134.02  2136.53  2141.60  2145.28  2151.24
                             2154.82  2156.38  2170.98  2173.41  2178.96
                             2385.56  4292.81  4296.50  4324.80  4330.93
                             4344.23  4345.47  4347.69  4352.35  4358.38
                             4366.47  4367.85  4372.77  4381.30  4389.40
                             4397.16  4411.97  4413.04  4425.50  4431.26
                             4438.80  4448.02  4461.18  4468.27  4975.83
                             5086.62

 Zero-point correction=                           0.362230 (Hartree/Particle)
 Thermal correction to Energy=                    0.378056
 Thermal correction to Enthalpy=                  0.379000
 Thermal correction to Gibbs Free Energy=         0.319797
 Sum of electronic and zero-point Energies=           -601.967304
 Sum of electronic and thermal Energies=              -601.951477
 Sum of electronic and thermal Enthalpies=            -601.950533
 Sum of electronic and thermal Free Energies=         -602.009737

                     E (Thermal)             CV                S
                      KCal/Mol        Cal/Mol-Kelvin    Cal/Mol-Kelvin
 Total                  237.234             61.589            124.605
 Electronic               0.000              0.000              0.000
 Translational            0.889              2.981             41.772
 Rotational               0.889              2.981             32.258
 Vibrational            235.456             55.627             50.575
 Vibration     1          0.595              1.980              5.116
 Vibration     2          0.597              1.974              4.477
 Vibration     3          0.599              1.966              4.056
 Vibration     4          0.600              1.961              3.806
 Vibration     5          0.611              1.925              2.966
 Vibration     6          0.618              1.904              2.684
 Vibration     7          0.637              1.843              2.157
 Vibration     8          0.641              1.829              2.067
 Vibration     9          0.647              1.811              1.964
 Vibration    10          0.651              1.799              1.898
 Vibration    11          0.664              1.757              1.709
 Vibration    12          0.667              1.750              1.679
 Vibration    13          0.675              1.726              1.586
 Vibration    14          0.684              1.699              1.497
 Vibration    15          0.703              1.644              1.332
 Vibration    16          0.723              1.588              1.194
 Vibration    17          0.750              1.513              1.040
 Vibration    18          0.770              1.459              0.944
 Vibration    19          0.783              1.425              0.889
 Vibration    20          0.787              1.415              0.874
 Vibration    21          0.807              1.364              0.801
 Vibration    22          0.841              1.283              0.696
 Vibration    23          0.874              1.208              0.612
 Vibration    24          0.957              1.035              0.452
 Vibration    25          0.972              1.005              0.428

 Optimization completed.
    -- Stationary point found.
 Normal termination of Gaussian 16 at Tue May 23 10:57:12 2023.
