 Gaussian 16, Revision A.03,
 Gaussian 16:  ES64L-G16RevA.03 25-Dec-2016

 -----------------------------
 # opt freq b3lyp/6-31g(2df,p)
 -----------------------------

 -------------------
 Title Card Required
 -------------------
 Symbolic Z-matrix:
 Charge =  0 Multiplicity = 1

 SCF Done:  E(RB3LYP) =  -562.943396980     A.U. after   12 cycles
 SCF Done:  E(RB3LYP) =  -562.962557183     A.U. after   11 cycles
 SCF Done:  E(RB3LYP) =  -562.977492435     A.U. after   10 cycles
 SCF Done:  E(RB3LYP) =  -562.985131625     A.U. after   11 cycles
 SCF Done:  E(RB3LYP) =  -562.988708147     A.U. after   11 cycles
 SCF Done:  E(RB3LYP) =  -562.991117746     A.U. after   10 cycles
 SCF Done:  E(RB3LYP) =  -562.993241338     A.U. after   10 cycles
 SCF Done:  E(RB3LYP) =  -562.993775286     A.U. after   10 cycles
 SCF Done:  E(RB3LYP) =  -562.994973268     A.U. after   10 cycles
 SCF Done:  E(RB3LYP) =  -562.995192455     A.U. after    9 cycles
 SCF Done:  E(RB3LYP) =  -562.995249887     A.U. after    9 cycles
 SCF Done:  E(RB3LYP) =  -562.995257181     A.U. after    9 cycles
 SCF Done:  E(RB3LYP) =  -562.995262560     A.U. after    8 cycles
 SCF Done:  E(RB3LYP) =  -562.995263472     A.U. after    7 cycles
 SCF Done:  E(RB3LYP) =  -562.995263692     A.U. after    6 cycles
 SCF Done:  E(RB3LYP) =  -562.995263806     A.U. after    6 cycles
 Optimization completed.
    -- Stationary point found.
 Normal termination of Gaussian 16 at Sun May 28 08:02:15 2023.

 ----------------------------------------------------------------------
 #N Geom=AllCheck Guess=TCheck SCRF=Check GenChk RB3LYP/6-31G(2df,p) Fr
 eq
 ----------------------------------------------------------------------

 Structure from the checkpoint file:  "COC1CCCNCqCrCCqCrC1.chk"
 -------------------
 Title Card Required
 -------------------
 Charge =  0 Multiplicity = 1

                         Standard orientation:
 ---------------------------------------------------------------------
 Center     Atomic      Atomic             Coordinates (Angstroms)
 Number     Number       Type             X           Y           Z
 ---------------------------------------------------------------------
      1          6           0        3.150714    0.605791    1.062369
      2          8           0        2.066253   -0.216854    0.699604
      3          6           0        1.745672   -0.193160   -0.694374
      4          6           0        1.332637   -1.611439   -1.142584
      5          6           0       -0.116637   -2.046239   -0.894756
      6          6           0       -0.541227   -2.061583    0.588635
      7          7           0       -1.881768   -1.514653    0.804765
      8          6           0       -2.115611   -0.050983    0.684713
      9          6           0       -2.819760    0.285147   -0.641883
     10          6           0       -0.918399    0.878779    1.080982
     11          6           0       -0.026840    1.664276    0.072316
     12          6           0       -0.758394    2.875301   -0.540921
     13          6           0        0.724223    0.925402   -1.063720
     14          1           0        3.315223    0.471485    2.134894
     15          1           0        2.959000    1.671923    0.870167
     16          1           0        4.069586    0.322032    0.525568
     17          1           0        2.680009    0.023878   -1.233810
     18          1           0        2.028107   -2.310423   -0.662537
     19          1           0        1.527487   -1.675064   -2.221045
     20          1           0       -0.259924   -3.039653   -1.334785
     21          1           0       -0.794287   -1.394752   -1.449838
     22          1           0        0.232930   -1.560620    1.184463
     23          1           0       -0.572366   -3.096670    0.947869
     24          1           0       -2.179159   -1.798140    1.729800
     25          1           0       -2.875404    0.141682    1.451931
     26          1           0       -2.162364    0.219540   -1.511732
     27          1           0       -3.235818    1.297491   -0.615590
     28          1           0       -3.640140   -0.421301   -0.793491
     29          1           0       -0.252641    0.301159    1.725783
     30          1           0       -1.337257    1.658244    1.730192
     31          1           0        0.751173    2.089167    0.719863
     32          1           0       -1.482973    2.581022   -1.304726
     33          1           0       -0.044665    3.557278   -1.016328
     34          1           0       -1.295620    3.441231    0.227477
     35          1           0        1.266318    1.705121   -1.612196
     36          1           0        0.006862    0.525022   -1.786789
 ---------------------------------------------------------------------

 SCF Done:  E(RB3LYP) =  -562.995263806     A.U. after    1 cycles

 The electronic state is 1-A.
 Alpha  occ. eigenvalues --  -19.13517 -14.29386 -10.22707 -10.22289 -10.20115
 Alpha  occ. eigenvalues --  -10.18430 -10.18350 -10.17338 -10.17267 -10.16569
 Alpha  occ. eigenvalues --  -10.16564 -10.16525 -10.15871  -1.02564  -0.88220
 Alpha  occ. eigenvalues --   -0.80076  -0.78368  -0.73361  -0.71761  -0.67946
 Alpha  occ. eigenvalues --   -0.67215  -0.65787  -0.60148  -0.58309  -0.54456
 Alpha  occ. eigenvalues --   -0.52565  -0.49591  -0.48435  -0.46752  -0.45772
 Alpha  occ. eigenvalues --   -0.44476  -0.42775  -0.42027  -0.41754  -0.40570
 Alpha  occ. eigenvalues --   -0.39973  -0.39551  -0.38596  -0.37097  -0.35958
 Alpha  occ. eigenvalues --   -0.35917  -0.35329  -0.33968  -0.33016  -0.32635
 Alpha  occ. eigenvalues --   -0.31124  -0.30860  -0.30684  -0.29157  -0.28446
 Alpha  occ. eigenvalues --   -0.24743  -0.20126
 Alpha virt. eigenvalues --    0.06356   0.08553   0.09579   0.10057   0.12382
 Alpha virt. eigenvalues --    0.12833   0.13684   0.13840   0.14213   0.14652
 Alpha virt. eigenvalues --    0.15541   0.16428   0.16951   0.17171   0.17746

 Mulliken charges:
               1
     1  C   -0.241250
     2  O   -0.230047
     3  C    0.110465
     4  C   -0.226662
     5  C   -0.181042
     6  C   -0.178053
     7  N   -0.302843
     8  C    0.039005
     9  C   -0.372366
    10  C   -0.233588
    11  C    0.051700
    12  C   -0.400781
    13  C   -0.238015
    14  H    0.124534
    15  H    0.105830
    16  H    0.104461
    17  H    0.065089
    18  H    0.099695
    19  H    0.091298
    20  H    0.091853
    21  H    0.105890
    22  H    0.118362
    23  H    0.085592
    24  H    0.210487
    25  H    0.073260
    26  H    0.115332
    27  H    0.103649
    28  H    0.112547
    29  H    0.114134
    30  H    0.084833
    31  H    0.077800
    32  H    0.118892
    33  H    0.103072
    34  H    0.104652
    35  H    0.091919
    36  H    0.100295
 Sum of Mulliken charges =  -0.00000

 Dipole moment (field-independent basis, Debye):
    X=              1.2080    Y=              0.8369    Z=              0.2844  Tot=              1.4969
 Quadrupole moment (field-independent basis, Debye-Ang):
   XX=            -81.8885   YY=            -84.0548   ZZ=            -80.8694
   XY=              0.2234   XZ=             -2.4624   YZ=             -0.1009

  Exact polarizability: 136.187  -1.116 132.658  -1.398   0.289 114.792
 Approx polarizability: 181.488  -0.139 181.081  -1.379  -0.960 176.577

                      1                      2                      3
                      A                      A                      A
 Frequencies --     83.2367                96.8201               112.5819
 Red. masses --      3.1839                 2.8336                 2.6022
 Frc consts  --      0.0130                 0.0156                 0.0194
 IR Inten    --      0.6154                 1.4019                 1.8750

                      4                      5                      6
                      A                      A                      A
 Frequencies --    119.5830               138.2247               168.3153
 Red. masses --      2.8315                 2.1365                 1.4862
 Frc consts  --      0.0239                 0.0241                 0.0248
 IR Inten    --      0.2362                 1.8053                 0.6482

                      7                      8                      9
                      A                      A                      A
 Frequencies --    188.7431               222.9800               236.8945
 Red. masses --      1.7707                 1.3495                 2.4685
 Frc consts  --      0.0372                 0.0395                 0.0816
 IR Inten    --      0.9652                 0.1991                 1.8324

                     10                     11                     12
                      A                      A                      A
 Frequencies --    253.7029               273.4013               304.0514
 Red. masses --      2.3482                 1.6470                 1.7228
 Frc consts  --      0.0890                 0.0725                 0.0938
 IR Inten    --      1.5911                 0.0943                 0.9851

                     13                     14                     15
                      A                      A                      A
 Frequencies --    305.1244               326.4601               338.7289
 Red. masses --      1.8620                 2.3419                 2.6130
 Frc consts  --      0.1021                 0.1471                 0.1766
 IR Inten    --      0.5741                 1.7469                 1.4397

                     16                     17                     18
                      A                      A                      A
 Frequencies --    362.4611               386.0230               405.9261
 Red. masses --      2.5499                 2.1696                 2.7349
 Frc consts  --      0.1974                 0.1905                 0.2655
 IR Inten    --      3.0063                 1.2595                 1.7018

                     19                     20                     21
                      A                      A                      A
 Frequencies --    421.4444               483.7721               527.4772
 Red. masses --      2.0146                 2.2420                 3.1818
 Frc consts  --      0.2108                 0.3091                 0.5216
 IR Inten    --      3.8986                 8.4458                 8.1685

                     22                     23                     24
                      A                      A                      A
 Frequencies --    623.5293               660.8464               691.2188
 Red. masses --      1.9192                 2.7049                 3.4416
 Frc consts  --      0.4396                 0.6960                 0.9688
 IR Inten    --     26.4026                 1.9885                 8.5882

                     25                     26                     27
                      A                      A                      A
 Frequencies --    729.3171               770.7240               776.9939
 Red. masses --      2.1578                 2.2542                 2.1582
 Frc consts  --      0.6762                 0.7889                 0.7677
 IR Inten    --     36.4050                10.3580                 1.5550

                     28                     29                     30
                      A                      A                      A
 Frequencies --    798.7865               856.3128               885.9632
 Red. masses --      1.7477                 1.7306                 2.2047
 Frc consts  --      0.6570                 0.7477                 1.0196
 IR Inten    --      6.8137                 2.3517                 1.0429

                     31                     32                     33
                      A                      A                      A
 Frequencies --    900.9696               928.0441               958.0007
 Red. masses --      1.9065                 1.8281                 2.7376
 Frc consts  --      0.9118                 0.9277                 1.4803
 IR Inten    --      0.2887                 1.7216                11.7403

                     34                     35                     36
                      A                      A                      A
 Frequencies --    973.7216              1006.7180              1022.7849
 Red. masses --      1.7481                 1.9145                 1.7533
 Frc consts  --      0.9765                 1.1432                 1.0806
 IR Inten    --      3.2960                 0.6386                 1.0441

                     37                     38                     39
                      A                      A                      A
 Frequencies --   1049.7983              1065.0476              1070.5969
 Red. masses --      2.0391                 1.8948                 2.1042
 Frc consts  --      1.3240                 1.2663                 1.4210
 IR Inten    --     10.8627                 1.3286                 2.2182

                     40                     41                     42
                      A                      A                      A
 Frequencies --   1095.1893              1111.0010              1119.4565
 Red. masses --      2.1039                 2.4071                 2.0486
 Frc consts  --      1.4868                 1.7505                 1.5126
 IR Inten    --      4.9792                15.7619                10.2789

                     43                     44                     45
                      A                      A                      A
 Frequencies --   1134.7220              1149.4256              1175.5357
 Red. masses --      4.3068                 2.4747                 2.8673
 Frc consts  --      3.2672                 1.9264                 2.3345
 IR Inten    --     95.0887                46.1067                28.7011

                     46                     47                     48
                      A                      A                      A
 Frequencies --   1181.7248              1190.1519              1213.2568
 Red. masses --      1.3327                 2.7500                 1.3612
 Frc consts  --      1.0965                 2.2950                 1.1805
 IR Inten    --      3.2916                27.9053                 4.9629

                     49                     50                     51
                      A                      A                      A
 Frequencies --   1224.6865              1238.7066              1276.1793
 Red. masses --      1.2975                 1.2304                 1.2944
 Frc consts  --      1.1466                 1.1123                 1.2421
 IR Inten    --      6.2685                13.8523                 6.9400

                     52                     53                     54
                      A                      A                      A
 Frequencies --   1294.0607              1320.0515              1325.4864
 Red. masses --      1.1987                 1.1570                 1.1966
 Frc consts  --      1.1827                 1.1878                 1.2386
 IR Inten    --      2.9955                 1.6193                 1.3134

                     55                     56                     57
                      A                      A                      A
 Frequencies --   1333.6540              1347.1426              1365.7551
 Red. masses --      1.3018                 1.2252                 1.3391
 Frc consts  --      1.3642                 1.3100                 1.4717
 IR Inten    --      3.3265                 4.4579                13.9899

                     58                     59                     60
                      A                      A                      A
 Frequencies --   1371.1786              1385.8838              1394.1384
 Red. masses --      1.3208                 1.3351                 1.3362
 Frc consts  --      1.4631                 1.5108                 1.5301
 IR Inten    --      2.0558                 2.3391                 9.2456

                     61                     62                     63
                      A                      A                      A
 Frequencies --   1395.2084              1401.4433              1405.0126
 Red. masses --      1.2634                 1.2162                 1.2293
 Frc consts  --      1.4490                 1.4074                 1.4298
 IR Inten    --      6.3887                 6.5353                11.3084

                     64                     65                     66
                      A                      A                      A
 Frequencies --   1411.7865              1422.5129              1436.3349
 Red. masses --      1.2213                 1.2530                 1.3351
 Frc consts  --      1.4342                 1.4939                 1.6228
 IR Inten    --      8.1110                 5.3843                 3.9600

                     67                     68                     69
                      A                      A                      A
 Frequencies --   1471.1589              1476.8546              1479.0068
 Red. masses --      1.0867                 1.0954                 1.0922
 Frc consts  --      1.3857                 1.4077                 1.4077
 IR Inten    --      3.7370                 0.4894                 5.7516

                     70                     71                     72
                      A                      A                      A
 Frequencies --   1483.1608              1486.2585              1489.5181
 Red. masses --      1.0691                 1.0658                 1.0853
 Frc consts  --      1.3856                 1.3872                 1.4187
 IR Inten    --      0.9155                 5.4708                 3.1593

                     73                     74                     75
                      A                      A                      A
 Frequencies --   1495.6354              1504.9504              1509.2147
 Red. masses --      1.0555                 1.0545                 1.0936
 Frc consts  --      1.3911                 1.4071                 1.4676
 IR Inten    --      2.3607                 5.6022                 1.8988

                     76                     77                     78
                      A                      A                      A
 Frequencies --   1510.0728              1512.3161              1516.2689
 Red. masses --      1.0663                 1.0577                 1.1844
 Frc consts  --      1.4326                 1.4253                 1.6043
 IR Inten    --      3.3145                 0.7613                 2.4033

                     79                     80                     81
                      A                      A                      A
 Frequencies --   1528.4394              2965.7666              2975.6990
 Red. masses --      1.0785                 1.0713                 1.0479
 Frc consts  --      1.4844                 5.5518                 5.4671
 IR Inten    --     11.5295                 9.3033                81.1080

                     82                     83                     84
                      A                      A                      A
 Frequencies --   3001.3239              3010.9540              3017.2753
 Red. masses --      1.0804                 1.0842                 1.0611
 Frc consts  --      5.7340                 5.7911                 5.6915
 IR Inten    --      3.2783                38.5095                13.1516

                     85                     86                     87
                      A                      A                      A
 Frequencies --   3019.4318              3020.9409              3028.2726
 Red. masses --      1.0680                 1.0940                 1.0552
 Frc consts  --      5.7370                 5.8823                 5.7013
 IR Inten    --     10.2445                62.6480                14.7179

                     88                     89                     90
                      A                      A                      A
 Frequencies --   3028.8371              3034.9108              3037.5907
 Red. masses --      1.0714                 1.0558                 1.0832
 Frc consts  --      5.7909                 5.7298                 5.8889
 IR Inten    --     65.9906                44.6132                24.2520

                     91                     92                     93
                      A                      A                      A
 Frequencies --   3042.7392              3055.4344              3060.9868
 Red. masses --      1.0407                 1.0858                 1.1005
 Frc consts  --      5.6766                 5.9725                 6.0752
 IR Inten    --     37.9305                44.9425                22.4596

                     94                     95                     96
                      A                      A                      A
 Frequencies --   3074.5017              3090.5142              3099.7792
 Red. masses --      1.0937                 1.1004                 1.0887
 Frc consts  --      6.0909                 6.1926                 6.1635
 IR Inten    --     33.0221                38.9888                13.9315

                     97                     98                     99
                      A                      A                      A
 Frequencies --   3106.7216              3107.1770              3111.6639
 Red. masses --      1.0964                 1.0958                 1.0958
 Frc consts  --      6.2348                 6.2330                 6.2512
 IR Inten    --     29.1192                62.1835                37.5442

                    100                    101                    102
                      A                      A                      A
 Frequencies --   3117.5327              3127.4811              3541.6406
 Red. masses --      1.0978                 1.0978                 1.0748
 Frc consts  --      6.2865                 6.3267                 7.9430
 IR Inten    --     10.4903                30.3689                 0.0331

 - Thermochemistry -
 -------------------
 Temperature   298.150 Kelvin.  Pressure   1.00000 Atm.
 Atom     1 has atomic number  6 and mass  12.00000

 Molecular mass:   185.17796 amu.
 Principal axes and moments of inertia in atomic units:
                           1         2         3
     Eigenvalues --  1980.555412578.282233488.79683
           X            0.99985  -0.01621   0.00618
           Y            0.01621   0.99987   0.00148
           Z           -0.00621  -0.00138   0.99998
 This molecule is an asymmetric top.
 Rotational symmetry number  1.
 Warning -- assumption of classical behavior for rotation
           may cause significant error
 Rotational temperatures (Kelvin)      0.04373     0.03359     0.02483
 Rotational constants (GHZ):           0.91123     0.69998     0.51730
 Zero-point vibrational energy     875577.0 (Joules/Mol)
                                  209.26792 (Kcal/Mol)
 Warning -- explicit consideration of  21 degrees of freedom as
           vibrations may cause significant error
 Vibrational temperatures:    119.76   139.30   161.98   172.05   198.87
          (Kelvin)            242.17   271.56   320.82   340.84   365.02
                              393.36   437.46   439.01   469.70   487.36
                              521.50   555.40   584.04   606.36   696.04
                              758.92   897.12   950.81   994.51  1049.32
                             1108.90  1117.92  1149.28  1232.04  1274.70
                             1296.29  1335.25  1378.35  1400.97  1448.44
                             1471.56  1510.43  1532.37  1540.35  1575.73
                             1598.48  1610.65  1632.61  1653.77  1691.33
                             1700.24  1712.36  1745.61  1762.05  1782.22
                             1836.14  1861.86  1899.26  1907.08  1918.83
                             1938.24  1965.02  1972.82  1993.98  2005.85
                             2007.39  2016.36  2021.50  2031.25  2046.68
                             2066.57  2116.67  2124.86  2127.96  2133.94
                             2138.39  2143.08  2151.89  2165.29  2171.42
                             2172.66  2175.89  2181.57  2199.08  4267.08
                             4281.37  4318.24  4332.09  4341.19  4344.29
                             4346.46  4357.01  4357.82  4366.56  4370.42
                             4377.82  4396.09  4404.08  4423.52  4446.56
                             4459.89  4469.88  4470.53  4476.99  4485.43
                             4499.75  5095.63

 Zero-point correction=                           0.333490 (Hartree/Particle)
 Thermal correction to Energy=                    0.347982
 Thermal correction to Enthalpy=                  0.348926
 Thermal correction to Gibbs Free Energy=         0.293909
 Sum of electronic and zero-point Energies=           -562.661774
 Sum of electronic and thermal Energies=              -562.647282
 Sum of electronic and thermal Enthalpies=            -562.646338
 Sum of electronic and thermal Free Energies=         -562.701355

                     E (Thermal)             CV                S
                      KCal/Mol        Cal/Mol-Kelvin    Cal/Mol-Kelvin
 Total                  218.362             56.941            115.794
 Electronic               0.000              0.000              0.000
 Translational            0.889              2.981             41.555
 Rotational               0.889              2.981             31.255
 Vibrational            216.585             50.980             42.984
 Vibration     1          0.600              1.961              3.813
 Vibration     2          0.603              1.951              3.517
 Vibration     3          0.607              1.939              3.224
 Vibration     4          0.609              1.933              3.107
 Vibration     5          0.614              1.915              2.828
 Vibration     6          0.625              1.881              2.454
 Vibration     7          0.633              1.855              2.240
 Vibration     8          0.649              1.806              1.935
 Vibration     9          0.656              1.784              1.826
 Vibration    10          0.665              1.757              1.705
 Vibration    11          0.676              1.722              1.575
 Vibration    12          0.695              1.666              1.395
 Vibration    13          0.696              1.664              1.389
 Vibration    14          0.710              1.623              1.278
 Vibration    15          0.719              1.598              1.218
 Vibration    16          0.736              1.550              1.112
 Vibration    17          0.755              1.500              1.015
 Vibration    18          0.771              1.457              0.941
 Vibration    19          0.784              1.424              0.887
 Vibration    20          0.840              1.286              0.700
 Vibration    21          0.882              1.189              0.593

                           ! Non-Optimized Parameters !
 Normal termination of Gaussian 16 at Sun May 28 10:33:31 2023.
